 vasp.5.4.4.18Apr17-6-g9f103f2a35 (build May 12 2020 04:58:55) complex          
  
 MD_VERSION_INFO: Compiled 2020-05-12T11:58:55-UTC in devlin.sd.materialsdesign.
 com:/home/medea2/data/build/wwolf/vasp-gpu5.4.4/13047/x86_64/src/src/build/std 
 from svn 13047
 
 This VASP executable licensed from Materials Design, Inc.
 
 executed on                        Lin64 date 2023.03.24  18:41:01
 running on   16 total cores
 distrk:  each k-point on   16 cores,    1 groups
 distr:  one band on NCORES_PER_BAND=   1 cores,   16 groups


--------------------------------------------------------------------------------------------------------


 INCAR:
 POTCAR:    PAW_PBE Ni 02Aug2007                  
 POTCAR:    PAW_PBE O 08Apr2002                   

 ----------------------------------------------------------------------------- 
|                                                                             |
|           W    W    AA    RRRRR   N    N  II  N    N   GGGG   !!!           |
|           W    W   A  A   R    R  NN   N  II  NN   N  G    G  !!!           |
|           W    W  A    A  R    R  N N  N  II  N N  N  G       !!!           |
|           W WW W  AAAAAA  RRRRR   N  N N  II  N  N N  G  GGG   !            |
|           WW  WW  A    A  R   R   N   NN  II  N   NN  G    G                |
|           W    W  A    A  R    R  N    N  II  N    N   GGGG   !!!           |
|                                                                             |
|      For optimal performance we recommend to set                            |
|        NCORE= 4 - approx SQRT( number of cores)                             |
|      NCORE specifies how many cores store one orbital (NPAR=cpu/NCORE).     |
|      This setting can  greatly improve the performance of VASP for DFT.     |
|      The default,   NCORE=1            might be grossly inefficient         |
|      on modern multi-core architectures or massively parallel machines.     |
|      Do your own testing !!!!                                               |
|      Unfortunately you need to use the default for GW and RPA calculations. |
|      (for HF NCORE is supported but not extensively tested yet)             |
|                                                                             |
 ----------------------------------------------------------------------------- 

 POTCAR:    PAW_PBE Ni 02Aug2007                  
  local pseudopotential read in
  partial core-charges read in
  partial kinetic energy density read in
  atomic valenz-charges read in
  non local Contribution for L=           2  read in
    real space projection operators read in
  non local Contribution for L=           2  read in
    real space projection operators read in
  non local Contribution for L=           0  read in
    real space projection operators read in
  non local Contribution for L=           0  read in
    real space projection operators read in
  non local Contribution for L=           1  read in
    real space projection operators read in
  non local Contribution for L=           1  read in
    real space projection operators read in
    PAW grid and wavefunctions read in
 
   number of l-projection  operators is LMAX  =           6
   number of lm-projection operators is LMMAX =          18
 
 POTCAR:    PAW_PBE O 08Apr2002                   
  local pseudopotential read in
  partial core-charges read in
  partial kinetic energy density read in
  kinetic energy density of atom read in
  atomic valenz-charges read in
  non local Contribution for L=           0  read in
    real space projection operators read in
  non local Contribution for L=           0  read in
    real space projection operators read in
  non local Contribution for L=           1  read in
    real space projection operators read in
  non local Contribution for L=           1  read in
    real space projection operators read in
    PAW grid and wavefunctions read in
 
   number of l-projection  operators is LMAX  =           4
   number of lm-projection operators is LMMAX =           8
 
 Optimization of the real space projectors (new method)

 maximal supplied QI-value         = 16.25
 optimisation between [QCUT,QGAM] = [ 11.38, 22.75] = [ 36.24,144.96] Ry 
 Optimized for a Real-space Cutoff    1.47 Angstroem

   l    n(q)    QCUT    max X(q) W(low)/X(q) W(high)/X(q)  e(spline) 
   2      9    11.376    60.317    0.17E-03    0.16E-04    0.16E-06
   2      9    11.376    55.921    0.17E-03    0.16E-04    0.17E-06
   0     10    11.376    51.690    0.45E-04    0.60E-04    0.21E-06
   0     10    11.376    30.015    0.37E-04    0.55E-04    0.19E-06
   1     10    11.376    18.849    0.83E-04    0.11E-03    0.92E-07
   1     10    11.376    14.624    0.69E-04    0.92E-04    0.82E-07
 Optimization of the real space projectors (new method)

 maximal supplied QI-value         = 24.76
 optimisation between [QCUT,QGAM] = [ 11.39, 22.77] = [ 36.31,145.25] Ry 
 Optimized for a Real-space Cutoff    1.10 Angstroem

   l    n(q)    QCUT    max X(q) W(low)/X(q) W(high)/X(q)  e(spline) 
   0      7    11.387    20.381    0.22E-03    0.48E-03    0.18E-06
   0      7    11.387    15.268    0.22E-03    0.52E-03    0.19E-06
   1      7    11.387     5.964    0.22E-03    0.73E-03    0.24E-06
   1      7    11.387     5.382    0.19E-03    0.60E-03    0.21E-06

 ----------------------------------------------------------------------------- 
|                                                                             |
|  ADVICE TO THIS USER RUNNING 'VASP/VAMP'   (HEAR YOUR MASTER'S VOICE ...):  |
|                                                                             |
|      You enforced a specific xc-type in the INCAR file,                     |
|      a different type was found on the POTCAR file                          |
|          I HOPE YOU KNOW, WHAT YOU ARE  DOING                               |
|                                                                             |
 ----------------------------------------------------------------------------- 

  PAW_PBE Ni 02Aug2007                  :
 energy of atom  1       EATOM=-1077.6739
 kinetic energy error for atom=    0.0030 (will be added to EATOM!!)
  PAW_PBE O 08Apr2002                   :
 energy of atom  2       EATOM= -432.3788
 kinetic energy error for atom=    0.0224 (will be added to EATOM!!)
 
 
 POSCAR: NiO2_Fd-3m_scale_1_050_disp_0_20_round_2
  positions in direct lattice
  No initial velocities read in
 exchange correlation table for  LEXCH =       14
   RHO(1)=    0.500       N(1)  =     2000
   RHO(2)=  100.500       N(2)  =     4000
 


--------------------------------------------------------------------------------------------------------


 ion  position               nearest neighbor table
   1  0.153  0.601  0.116-  41 1.81  22 1.82  47 1.91  24 2.14  28 2.32   3 2.57   2 2.74   4 2.90

   2  0.360  0.848  0.177-  18 1.37  46 1.82  24 1.83  41 2.22  19 2.30   4 2.58  13 2.74   1 2.74

   3  0.311  0.537  0.373-  47 1.10  21 1.47  27 1.51  18 2.05  41 2.23  44 2.40   1 2.57  16 2.58
                             6 2.71   4 2.90
   4  0.124  0.830  0.376-  30 1.66  18 1.74  24 2.02  47 2.06  45 2.29  20 2.44   2 2.58   3 2.90
                             1 2.90  10 3.02
   5  0.086  0.136  0.621-  39 1.67  33 1.92  20 1.93  32 1.93  35 2.00   8 2.41  30 2.47   6 2.84
                             7 2.95  10 3.06
   6  0.364  0.334  0.620-  21 1.59  33 1.80  26 1.88  27 1.93  38 1.96  32 2.04   7 2.39   8 2.67
                             3 2.71  16 2.84   5 2.84
   7  0.386  0.118  0.807-  36 1.60  33 1.70  39 1.92  26 2.00  29 2.12   6 2.39   8 2.78   5 2.95
                            12 2.96
   8  0.127  0.324  0.836-  39 1.53  26 1.80  32 1.84  28 1.89  22 2.22   5 2.41   6 2.67   7 2.78

   9  0.609  0.642  0.645-  31 1.34  40 1.58  25 1.80  12 2.16  27 2.49  11 2.59  10 2.70
  10  0.847  0.857  0.608-  40 1.82  30 1.98  35 2.17  25 2.18  34 2.18  45 2.41  12 2.63   9 2.70
                             4 3.02   5 3.06
  11  0.811  0.531  0.852-  37 1.24  31 1.60  25 1.70  34 1.90  43 2.12  14 2.49   9 2.59
  12  0.607  0.840  0.812-  40 1.63  34 1.93  29 1.97  31 2.05  36 2.07   9 2.16  10 2.63   7 2.96

  13  0.572  0.094  0.129-  19 1.71  23 1.86  46 1.97  17 2.05  48 2.11  36 2.39  15 2.71   2 2.74
                            16 3.06
  14  0.817  0.372  0.104-  43 1.61  48 1.62  17 1.85  22 2.26  37 2.32  42 2.36  11 2.49  15 2.70
                            16 2.92
  15  0.812  0.150  0.340-  42 1.56  23 1.62  17 1.97  35 1.99  20 2.28  48 2.47  14 2.70  13 2.71
                            16 2.74
  16  0.578  0.380  0.360-  44 1.39  38 1.64  48 1.65  42 1.92  21 1.95  23 1.96   3 2.58  15 2.74
                             6 2.84  14 2.92  13 3.06
  17  0.810  0.150  0.105-  14 1.85  15 1.97  13 2.05
  18  0.318  0.778  0.320-   2 1.37   4 1.74  47 1.83   3 2.05
  19  0.369  0.120  0.132-  13 1.71   2 2.30
  20  0.079  0.118  0.390-   5 1.93  15 2.28   4 2.44
  21  0.357  0.379  0.435-   3 1.47   6 1.59  27 1.75  16 1.95
  22  0.087  0.394  0.090-   1 1.82   8 2.22  14 2.26
  23  0.617  0.149  0.341-  15 1.62  13 1.86  16 1.96
  24  0.145  0.856  0.135-   2 1.83   4 2.02   1 2.14
  25  0.821  0.603  0.662-  11 1.70   9 1.80  31 1.88  10 2.18
  26  0.341  0.350  0.844-   8 1.80   6 1.88   7 2.00
  27  0.340  0.553  0.551-   3 1.51  21 1.75   6 1.93   9 2.49
  28  0.126  0.551  0.843-   8 1.89   1 2.32
  29  0.373  0.866  0.837-  12 1.97   7 2.12
  30  0.081  0.844  0.569-   4 1.66  10 1.98   5 2.47
  31  0.640  0.597  0.796-   9 1.34  11 1.60  25 1.88  12 2.05
  32  0.121  0.365  0.620-   8 1.84   5 1.93   6 2.04
  33  0.316  0.123  0.616-   7 1.70   6 1.80   5 1.92
  34  0.821  0.759  0.849-  11 1.90  12 1.93  10 2.18
  35  0.852  0.115  0.573-  15 1.99   5 2.00  10 2.17
  36  0.572  0.084  0.843-   7 1.60  12 2.07  13 2.39
  37  0.812  0.384  0.827-  11 1.24  14 2.32
  38  0.589  0.351  0.554-  16 1.64   6 1.96
  39  0.157  0.146  0.808-   8 1.53   5 1.67   7 1.92
  40  0.631  0.828  0.619-   9 1.58  12 1.63  10 1.82
  41  0.370  0.589  0.117-   1 1.81   2 2.22   3 2.23
  42  0.801  0.331  0.384-  15 1.56  16 1.92  14 2.36
  43  0.834  0.563  0.104-  14 1.61  11 2.12
  44  0.596  0.544  0.333-  16 1.39   3 2.40
  45  0.855  0.811  0.323-   4 2.29  10 2.41
  46  0.572  0.858  0.127-   2 1.82  13 1.97
  47  0.198  0.596  0.340-   3 1.10  18 1.83   1 1.91   4 2.06
  48  0.643  0.332  0.179-  14 1.62  16 1.65  13 2.11  15 2.47
 
  LATTYP: Found a simple cubic cell.
 ALAT       =     8.3389845000
  
  Lattice vectors:
  
 A1 = (   8.3389845000,   0.0000000000,   0.0000000000)
 A2 = (   0.0000000000,   8.3389845000,   0.0000000000)
 A3 = (   0.0000000000,   0.0000000000,   8.3389845000)


Analysis of symmetry for initial positions (statically):
=====================================================================
 Subroutine PRICEL returns:
 Original cell was already a primitive cell.
 

 Routine SETGRP: Setting up the symmetry group for a 
 simple cubic supercell.


 Subroutine GETGRP returns: Found  1 space group operations
 (whereof  1 operations were pure point group operations)
 out of a pool of 48 trial point group operations.


The static configuration has the point symmetry C_1 .


Analysis of symmetry for dynamics (positions and initial velocities):
=====================================================================
 Subroutine PRICEL returns:
 Original cell was already a primitive cell.
 

 Routine SETGRP: Setting up the symmetry group for a 
 simple cubic supercell.


 Subroutine GETGRP returns: Found  1 space group operations
 (whereof  1 operations were pure point group operations)
 out of a pool of 48 trial point group operations.


The dynamic configuration has the point symmetry C_1 .


Analysis of structural, dynamic, and magnetic symmetry:
=====================================================================
 Subroutine PRICEL returns:
 Original cell was already a primitive cell.
 

 Routine SETGRP: Setting up the symmetry group for a 
 simple cubic supercell.


 Subroutine GETGRP returns: Found  1 space group operations
 (whereof  1 operations were pure point group operations)
 out of a pool of 48 trial point group operations.


The magnetic configuration has the point symmetry C_1 .


 Subroutine INISYM returns: Found  1 space group operations
 (whereof  1 operations are pure point group operations),
 and found     1 'primitive' translations

 
 
 KPOINTS: Automatic mesh                          

Automatic generation of k-mesh.
Space group operators:
 irot       det(A)        alpha          n_x          n_y          n_z        tau_x        tau_y        tau_z
    1     1.000000     0.000001     1.000000     0.000000     0.000000     0.000000     0.000000     0.000000
 
 Subroutine IBZKPT returns following result:
 ===========================================
 
 Found     36 irreducible k-points:
 
 Following reciprocal coordinates:
            Coordinates               Weight
  0.000000  0.000000  0.000000      1.000000
  0.250000  0.000000  0.000000      2.000000
  0.500000  0.000000  0.000000      1.000000
  0.000000  0.250000  0.000000      2.000000
  0.250000  0.250000  0.000000      2.000000
  0.500000  0.250000  0.000000      2.000000
 -0.250000  0.250000  0.000000      2.000000
  0.000000  0.500000  0.000000      1.000000
  0.250000  0.500000  0.000000      2.000000
  0.500000  0.500000  0.000000      1.000000
  0.000000  0.000000  0.250000      2.000000
  0.250000  0.000000  0.250000      2.000000
  0.500000  0.000000  0.250000      2.000000
 -0.250000  0.000000  0.250000      2.000000
  0.000000  0.250000  0.250000      2.000000
  0.250000  0.250000  0.250000      2.000000
  0.500000  0.250000  0.250000      2.000000
 -0.250000  0.250000  0.250000      2.000000
  0.000000  0.500000  0.250000      2.000000
  0.250000  0.500000  0.250000      2.000000
  0.500000  0.500000  0.250000      2.000000
 -0.250000  0.500000  0.250000      2.000000
  0.000000 -0.250000  0.250000      2.000000
  0.250000 -0.250000  0.250000      2.000000
  0.500000 -0.250000  0.250000      2.000000
 -0.250000 -0.250000  0.250000      2.000000
  0.000000  0.000000  0.500000      1.000000
  0.250000  0.000000  0.500000      2.000000
  0.500000  0.000000  0.500000      1.000000
  0.000000  0.250000  0.500000      2.000000
  0.250000  0.250000  0.500000      2.000000
  0.500000  0.250000  0.500000      2.000000
 -0.250000  0.250000  0.500000      2.000000
  0.000000  0.500000  0.500000      1.000000
  0.250000  0.500000  0.500000      2.000000
  0.500000  0.500000  0.500000      1.000000
 
 Following cartesian coordinates:
            Coordinates               Weight
  0.000000  0.000000  0.000000      1.000000
  0.029980  0.000000  0.000000      2.000000
  0.059959  0.000000  0.000000      1.000000
  0.000000  0.029980  0.000000      2.000000
  0.029980  0.029980  0.000000      2.000000
  0.059959  0.029980  0.000000      2.000000
 -0.029980  0.029980  0.000000      2.000000
  0.000000  0.059959  0.000000      1.000000
  0.029980  0.059959  0.000000      2.000000
  0.059959  0.059959  0.000000      1.000000
  0.000000  0.000000  0.029980      2.000000
  0.029980  0.000000  0.029980      2.000000
  0.059959  0.000000  0.029980      2.000000
 -0.029980  0.000000  0.029980      2.000000
  0.000000  0.029980  0.029980      2.000000
  0.029980  0.029980  0.029980      2.000000
  0.059959  0.029980  0.029980      2.000000
 -0.029980  0.029980  0.029980      2.000000
  0.000000  0.059959  0.029980      2.000000
  0.029980  0.059959  0.029980      2.000000
  0.059959  0.059959  0.029980      2.000000
 -0.029980  0.059959  0.029980      2.000000
  0.000000 -0.029980  0.029980      2.000000
  0.029980 -0.029980  0.029980      2.000000
  0.059959 -0.029980  0.029980      2.000000
 -0.029980 -0.029980  0.029980      2.000000
  0.000000  0.000000  0.059959      1.000000
  0.029980  0.000000  0.059959      2.000000
  0.059959  0.000000  0.059959      1.000000
  0.000000  0.029980  0.059959      2.000000
  0.029980  0.029980  0.059959      2.000000
  0.059959  0.029980  0.059959      2.000000
 -0.029980  0.029980  0.059959      2.000000
  0.000000  0.059959  0.059959      1.000000
  0.029980  0.059959  0.059959      2.000000
  0.059959  0.059959  0.059959      1.000000
 


--------------------------------------------------------------------------------------------------------




 Dimension of arrays:
   k-points           NKPTS =     36   k-points in BZ     NKDIM =     36   number of bands    NBANDS=    240
   number of dos      NEDOS =    301   number of ions     NIONS =     48
   non local maximal  LDIM  =      6   non local SUM 2l+1 LMDIM =     18
   total plane-waves  NPLWV = 262144
   max r-space proj   IRMAX =   6119   max aug-charges    IRDMAX=  14851
   dimension x,y,z NGX =    64 NGY =   64 NGZ =   64
   dimension x,y,z NGXF=   128 NGYF=  128 NGZF=  128
   support grid    NGXF=   128 NGYF=  128 NGZF=  128
   ions per type =              16  32
   NGX,Y,Z   is equivalent  to a cutoff of  12.76, 12.76, 12.76 a.u.
   NGXF,Y,Z  is equivalent  to a cutoff of  25.52, 25.52, 25.52 a.u.

 SYSTEM =  unknown system                          
 POSCAR =  NiO2_Fd-3m_scale_1_050_disp_0_20_round_2

 Startparameter for this run:
   NWRITE =      1    write-flag & timer
   PREC   = accura    normal or accurate (medium, high low for compatibility)
   ISTART =      0    job   : 0-new  1-cont  2-samecut
   ICHARG =      2    charge: 1-file 2-atom 10-const
   ISPIN  =      2    spin polarized calculation?
   LNONCOLLINEAR =      F non collinear calculations
   LSORBIT =      F    spin-orbit coupling
   INIWAV =      1    electr: 0-lowe 1-rand  2-diag
   LASPH  =      F    aspherical Exc in radial PAW
   METAGGA=      F    non-selfconsistent MetaGGA calc.

 Electronic Relaxation 1
   ENCUT  =  500.0 eV  36.75 Ry    6.06 a.u.  15.20 15.20 15.20*2*pi/ulx,y,z
   ENINI  =  500.0     initial cutoff
   ENAUG  =  605.4 eV  augmentation charge cutoff
   NELM   =     80;   NELMIN=  2; NELMDL= -5     # of ELM steps 
   EDIFF  = 0.1E-04   stopping-criterion for ELM
   LREAL  =      T    real-space projection
   NLSPLINE    = F    spline interpolate recip. space projectors
   LCOMPAT=      F    compatible to vasp.4.4
   GGA_COMPAT  = T    GGA compatible to vasp.4.4-vasp.4.6
   LMAXPAW     = -100 max onsite density
   LMAXMIX     =    2 max onsite mixed and CHGCAR
   VOSKOWN=      1    Vosko Wilk Nusair interpolation
   ROPT   =   -0.00025  -0.00025
 Ionic relaxation
   EDIFFG = 0.1E-03   stopping-criterion for IOM
   NSW    =      0    number of steps for IOM
   NBLOCK =      1;   KBLOCK =      1    inner block; outer block 
   IBRION =     -1    ionic relax: 0-MD 1-quasi-New 2-CG
   NFREE  =      0    steps in history (QN), initial steepest desc. (CG)
   ISIF   =      2    stress and relaxation
   IWAVPR =     10    prediction:  0-non 1-charg 2-wave 3-comb
   ISYM   =      2    0-nonsym 1-usesym 2-fastsym
   LCORR  =      T    Harris-Foulkes like correction to forces

   POTIM  = 0.5000    time-step for ionic-motion
   TEIN   =    0.0    initial temperature
   TEBEG  =    0.0;   TEEND  =   0.0 temperature during run
   SMASS  =  -3.00    Nose mass-parameter (am)
   estimated Nose-frequenzy (Omega)   =  0.10E-29 period in steps =****** mass=  -0.159E-26a.u.
   SCALEE = 1.0000    scale energy and forces
   NPACO  =    256;   APACO  = 16.0  distance and # of slots for P.C.
   PSTRESS=    0.0 pullay stress

  Mass of Ions in am
   POMASS =  58.69 16.00
  Ionic Valenz
   ZVAL   =  10.00  6.00
  Atomic Wigner-Seitz radii
   RWIGS  =   1.15  0.73
  virtual crystal weights 
   VCA    =   1.00  1.00
   NELECT =     352.0000    total number of electrons
   NUPDOWN=      -1.0000    fix difference up-down

 DOS related values:
   EMIN   =  10.00;   EMAX   =-10.00  energy-range for DOS
   EFERMI =   0.00
   ISMEAR =     0;   SIGMA  =   0.05  broadening in eV -4-tet -1-fermi 0-gaus

 Electronic relaxation 2 (details)
   IALGO  =     38    algorithm
   LDIAG  =      T    sub-space diagonalisation (order eigenvalues)
   LSUBROT=      F    optimize rotation matrix (better conditioning)
   TURBO    =      0    0=normal 1=particle mesh
   IRESTART =      0    0=no restart 2=restart with 2 vectors
   NREBOOT  =      0    no. of reboots
   NMIN     =      0    reboot dimension
   EREF     =   0.00    reference energy to select bands
   IMIX   =      4    mixing-type and parameters
     AMIX     =   0.40;   BMIX     =  1.00
     AMIX_MAG =   1.60;   BMIX_MAG =  1.00
     AMIN     =   0.10
     WC   =   100.;   INIMIX=   1;  MIXPRE=   1;  MAXMIX= -45

 Intra band minimization:
   WEIMIN = 0.0000     energy-eigenvalue tresh-hold
   EBREAK =  0.10E-07  absolut break condition
   DEPER  =   0.30     relativ break condition  

   TIME   =   0.40     timestep for ELM

  volume/ion in A,a.u.               =      12.08        81.53
  Fermi-wavevector in a.u.,A,eV,Ry     =   1.386147  2.619438 26.142273  1.921403
  Thomas-Fermi vector in A             =   2.510490
 
 Write flags
   LWAVE        =      F    write WAVECAR
   LDOWNSAMPLE  =      F    k-point downsampling of WAVECAR
   LCHARG       =      T    write CHGCAR
   LVTOT        =      F    write LOCPOT, total local potential
   LVHAR        =      F    write LOCPOT, Hartree potential only
   LELF         =      F    write electronic localiz. function (ELF)
   LORBIT       =      0    0 simple, 1 ext, 2 COOP (PROOUT), +10 PAW based schemes


 Dipole corrections
   LMONO  =      F    monopole corrections only (constant potential shift)
   LDIPOL =      F    correct potential (dipole corrections)
   IDIPOL =      0    1-x, 2-y, 3-z, 4-all directions 
   EPSILON=  1.0000000 bulk dielectric constant

 Exchange correlation treatment:
   GGA     =    PS    GGA type
   LEXCH   =    14    internal setting for exchange type
   VOSKOWN=      1    Vosko Wilk Nusair interpolation
   LHFCALC =     F    Hartree Fock is set to
   LHFONE  =     F    Hartree Fock one center treatment
   AEXX    =    0.0000 exact exchange contribution

 Linear response parameters
   LEPSILON=     F    determine dielectric tensor
   LRPA    =     F    only Hartree local field effects (RPA)
   LNABLA  =     F    use nabla operator in PAW spheres
   LVEL    =     F    velocity operator in full k-point grid
   LINTERFAST=   F  fast interpolation
   KINTER  =     0    interpolate to denser k-point grid
   CSHIFT  =0.1000    complex shift for real part using Kramers Kronig
   OMEGAMAX=  -1.0    maximum frequency
   DEG_THRESHOLD= 0.2000000E-02 threshold for treating states as degnerate
   RTIME   =   -0.100 relaxation time in fs
  (WPLASMAI=    0.000 imaginary part of plasma frequency in eV, 0.658/RTIME)
   DFIELD  = 0.0000000 0.0000000 0.0000000 field for delta impulse in time
 
 Orbital magnetization related:
   ORBITALMAG=     F  switch on orbital magnetization
   LCHIMAG   =     F  perturbation theory with respect to B field
   DQ        =  0.001000  dq finite difference perturbation B field
   LLRAUG    =     F  two centre corrections for induced B field



--------------------------------------------------------------------------------------------------------


 Static calculation
 charge density and potential will be updated during run
 spin polarized calculation
 Variant of blocked Davidson
 Davidson routine will perform the subspace rotation
 perform sub-space diagonalisation
    after iterative eigenvector-optimisation
 modified Broyden-mixing scheme, WC =      100.0
 initial mixing is a Kerker type mixing with AMIX =  0.4000 and BMIX =      1.0000
 Hartree-type preconditioning will be used
 using additional bands           64
 real space projection scheme for non local part
 use partial core corrections
 calculate Harris-corrections to forces 
   (improved forces if not selfconsistent)
 use gradient corrections 
 use of overlap-Matrix (Vanderbilt PP)
 Gauss-broadening in eV      SIGMA  =   0.05


--------------------------------------------------------------------------------------------------------


  energy-cutoff  :      500.00
  volume of cell :      579.88
      direct lattice vectors                 reciprocal lattice vectors
     8.338984500  0.000000000  0.000000000     0.119918678  0.000000000  0.000000000
     0.000000000  8.338984500  0.000000000     0.000000000  0.119918678  0.000000000
     0.000000000  0.000000000  8.338984500     0.000000000  0.000000000  0.119918678

  length of vectors
     8.338984500  8.338984500  8.338984500     0.119918678  0.119918678  0.119918678


 
 k-points in units of 2pi/SCALE and weight: Automatic mesh                          
   0.00000000  0.00000000  0.00000000       0.016
   0.02997967  0.00000000  0.00000000       0.031
   0.05995934  0.00000000  0.00000000       0.016
   0.00000000  0.02997967  0.00000000       0.031
   0.02997967  0.02997967  0.00000000       0.031
   0.05995934  0.02997967  0.00000000       0.031
  -0.02997967  0.02997967  0.00000000       0.031
   0.00000000  0.05995934  0.00000000       0.016
   0.02997967  0.05995934  0.00000000       0.031
   0.05995934  0.05995934  0.00000000       0.016
   0.00000000  0.00000000  0.02997967       0.031
   0.02997967  0.00000000  0.02997967       0.031
   0.05995934  0.00000000  0.02997967       0.031
  -0.02997967  0.00000000  0.02997967       0.031
   0.00000000  0.02997967  0.02997967       0.031
   0.02997967  0.02997967  0.02997967       0.031
   0.05995934  0.02997967  0.02997967       0.031
  -0.02997967  0.02997967  0.02997967       0.031
   0.00000000  0.05995934  0.02997967       0.031
   0.02997967  0.05995934  0.02997967       0.031
   0.05995934  0.05995934  0.02997967       0.031
  -0.02997967  0.05995934  0.02997967       0.031
   0.00000000 -0.02997967  0.02997967       0.031
   0.02997967 -0.02997967  0.02997967       0.031
   0.05995934 -0.02997967  0.02997967       0.031
  -0.02997967 -0.02997967  0.02997967       0.031
   0.00000000  0.00000000  0.05995934       0.016
   0.02997967  0.00000000  0.05995934       0.031
   0.05995934  0.00000000  0.05995934       0.016
   0.00000000  0.02997967  0.05995934       0.031
   0.02997967  0.02997967  0.05995934       0.031
   0.05995934  0.02997967  0.05995934       0.031
  -0.02997967  0.02997967  0.05995934       0.031
   0.00000000  0.05995934  0.05995934       0.016
   0.02997967  0.05995934  0.05995934       0.031
   0.05995934  0.05995934  0.05995934       0.016
 
 k-points in reciprocal lattice and weights: Automatic mesh                          
   0.00000000  0.00000000  0.00000000       0.016
   0.25000000  0.00000000  0.00000000       0.031
   0.50000000  0.00000000  0.00000000       0.016
   0.00000000  0.25000000  0.00000000       0.031
   0.25000000  0.25000000  0.00000000       0.031
   0.50000000  0.25000000  0.00000000       0.031
  -0.25000000  0.25000000  0.00000000       0.031
   0.00000000  0.50000000  0.00000000       0.016
   0.25000000  0.50000000  0.00000000       0.031
   0.50000000  0.50000000  0.00000000       0.016
   0.00000000  0.00000000  0.25000000       0.031
   0.25000000  0.00000000  0.25000000       0.031
   0.50000000  0.00000000  0.25000000       0.031
  -0.25000000  0.00000000  0.25000000       0.031
   0.00000000  0.25000000  0.25000000       0.031
   0.25000000  0.25000000  0.25000000       0.031
   0.50000000  0.25000000  0.25000000       0.031
  -0.25000000  0.25000000  0.25000000       0.031
   0.00000000  0.50000000  0.25000000       0.031
   0.25000000  0.50000000  0.25000000       0.031
   0.50000000  0.50000000  0.25000000       0.031
  -0.25000000  0.50000000  0.25000000       0.031
   0.00000000 -0.25000000  0.25000000       0.031
   0.25000000 -0.25000000  0.25000000       0.031
   0.50000000 -0.25000000  0.25000000       0.031
  -0.25000000 -0.25000000  0.25000000       0.031
   0.00000000  0.00000000  0.50000000       0.016
   0.25000000  0.00000000  0.50000000       0.031
   0.50000000  0.00000000  0.50000000       0.016
   0.00000000  0.25000000  0.50000000       0.031
   0.25000000  0.25000000  0.50000000       0.031
   0.50000000  0.25000000  0.50000000       0.031
  -0.25000000  0.25000000  0.50000000       0.031
   0.00000000  0.50000000  0.50000000       0.016
   0.25000000  0.50000000  0.50000000       0.031
   0.50000000  0.50000000  0.50000000       0.016
 
 position of ions in fractional coordinates (direct lattice) 
   0.15274092  0.60054140  0.11556213
   0.36009763  0.84786812  0.17715469
   0.31117542  0.53713685  0.37264341
   0.12388036  0.82957477  0.37565940
   0.08648706  0.13587742  0.62050076
   0.36361623  0.33385814  0.62037022
   0.38638337  0.11780814  0.80675284
   0.12699346  0.32448268  0.83606220
   0.60866925  0.64219889  0.64472916
   0.84726779  0.85734122  0.60813589
   0.81117037  0.53140465  0.85220326
   0.60717848  0.83955765  0.81190943
   0.57183518  0.09417076  0.12880379
   0.81729588  0.37160121  0.10430339
   0.81202676  0.15001652  0.34040784
   0.57752508  0.37993674  0.35951424
   0.81023651  0.15034866  0.10474703
   0.31849753  0.77773530  0.32028775
   0.36867375  0.12016184  0.13197032
   0.07885362  0.11797157  0.38966998
   0.35651896  0.37884214  0.43535974
   0.08725383  0.39446414  0.09016951
   0.61735371  0.14865492  0.34084928
   0.14533484  0.85639225  0.13538162
   0.82055454  0.60294921  0.66172265
   0.34108247  0.34983554  0.84381546
   0.33976585  0.55345126  0.55054859
   0.12577095  0.55139068  0.84344690
   0.37345269  0.86560411  0.83676338
   0.08105269  0.84402581  0.56898586
   0.64037905  0.59703781  0.79626317
   0.12078989  0.36500659  0.61977615
   0.31596382  0.12300548  0.61596332
   0.82079996  0.75859437  0.84866446
   0.85223301  0.11506428  0.57317244
   0.57162147  0.08385695  0.84261729
   0.81237118  0.38449692  0.82669140
   0.58878940  0.35065010  0.55399343
   0.15737342  0.14580520  0.80813897
   0.63122414  0.82846836  0.61863339
   0.36953932  0.58864971  0.11706191
   0.80147651  0.33135963  0.38391489
   0.83416713  0.56335621  0.10365113
   0.59584520  0.54391665  0.33269496
   0.85493323  0.81087501  0.32284918
   0.57163252  0.85805147  0.12681316
   0.19768824  0.59624642  0.34036720
   0.64260044  0.33241439  0.17895744
 
 position of ions in cartesian coordinates  (Angst):
   1.27370416  5.00790543  0.96367081
   3.00284856  7.07035911  1.47729021
   2.59488700  4.47917587  3.10746762
   1.03303640  6.91781115  3.13261791
   0.72121425  1.13307970  5.17434622
   3.03219011  2.78403785  5.17325765
   3.22204493  0.98240025  6.72749943
   1.05899649  2.70585604  6.97190973
   5.07568344  5.35528659  5.37638647
   7.06535297  7.14935514  5.07123576
   6.76433714  4.43137514  7.10650978
   5.06325193  7.00105823  6.77050015
   4.76852470  0.78528851  1.07409281
   6.81541768  3.09877673  0.86978435
   6.77147857  1.25098544  2.83865570
   4.81597269  3.16828659  2.99798367
   6.75654970  1.25375515  0.87348386
   2.65594597  6.48552261  2.67087458
   3.07436469  1.00202772  1.10049845
   0.65755911  0.98376309  3.24945192
   2.97300608  3.15915873  3.63045812
   0.72760834  3.28943035  0.75192215
   5.14810302  1.23963107  2.84233686
   1.21194498  7.14144170  1.12894523
   6.84259159  5.02798412  5.51809492
   2.84428143  2.91727315  7.03656404
   2.83330216  4.61522148  4.59101616
   1.04880200  4.59803833  7.03349063
   3.11421619  7.21825926  6.97775686
   0.67589713  7.03831815  4.74476427
   5.34011097  4.97868904  6.64002623
   1.00726502  3.04378430  5.16830371
   2.63481740  1.02574079  5.13650858
   6.84463814  6.32590669  7.07699978
   7.10675786  0.95951925  4.77967609
   4.76674258  0.69928181  7.02657252
   6.77435068  3.20631386  6.89376677
   4.90990568  2.92406575  4.61974263
   1.31233451  1.21586730  6.73905834
   5.26376832  6.90858481  5.15877425
   3.08158266  4.90874081  0.97617745
   6.68350019  2.76320282  3.20146032
   6.95610677  4.69781870  0.86434517
   4.96874389  4.53571251  2.77433811
   7.12927495  6.76187414  2.69223431
   4.76683472  7.15527791  1.05749298
   1.64851917  4.97208965  2.83831681
   5.35863511  2.77199845  1.49232332
 


--------------------------------------------------------------------------------------------------------


 k-point  1 :   0.0000 0.0000 0.0000  plane waves:   14771
 k-point  2 :   0.2500 0.0000 0.0000  plane waves:   14742
 k-point  3 :   0.5000 0.0000 0.0000  plane waves:   14662
 k-point  4 :   0.0000 0.2500 0.0000  plane waves:   14742
 k-point  5 :   0.2500 0.2500 0.0000  plane waves:   14750
 k-point  6 :   0.5000 0.2500 0.0000  plane waves:   14666
 k-point  7 :  -0.2500 0.2500 0.0000  plane waves:   14750
 k-point  8 :   0.0000 0.5000 0.0000  plane waves:   14662
 k-point  9 :   0.2500 0.5000 0.0000  plane waves:   14666
 k-point 10 :   0.5000 0.5000 0.0000  plane waves:   14676
 k-point 11 :   0.0000 0.0000 0.2500  plane waves:   14742
 k-point 12 :   0.2500 0.0000 0.2500  plane waves:   14750
 k-point 13 :   0.5000 0.0000 0.2500  plane waves:   14666
 k-point 14 :  -0.2500 0.0000 0.2500  plane waves:   14750
 k-point 15 :   0.0000 0.2500 0.2500  plane waves:   14750
 k-point 16 :   0.2500 0.2500 0.2500  plane waves:   14676
 k-point 17 :   0.5000 0.2500 0.2500  plane waves:   14700
 k-point 18 :  -0.2500 0.2500 0.2500  plane waves:   14676
 k-point 19 :   0.0000 0.5000 0.2500  plane waves:   14666
 k-point 20 :   0.2500 0.5000 0.2500  plane waves:   14700
 k-point 21 :   0.5000 0.5000 0.2500  plane waves:   14772
 k-point 22 :  -0.2500 0.5000 0.2500  plane waves:   14700
 k-point 23 :   0.0000-0.2500 0.2500  plane waves:   14750
 k-point 24 :   0.2500-0.2500 0.2500  plane waves:   14676
 k-point 25 :   0.5000-0.2500 0.2500  plane waves:   14700
 k-point 26 :  -0.2500-0.2500 0.2500  plane waves:   14676
 k-point 27 :   0.0000 0.0000 0.5000  plane waves:   14662
 k-point 28 :   0.2500 0.0000 0.5000  plane waves:   14666
 k-point 29 :   0.5000 0.0000 0.5000  plane waves:   14676
 k-point 30 :   0.0000 0.2500 0.5000  plane waves:   14666
 k-point 31 :   0.2500 0.2500 0.5000  plane waves:   14700
 k-point 32 :   0.5000 0.2500 0.5000  plane waves:   14772
 k-point 33 :  -0.2500 0.2500 0.5000  plane waves:   14700
 k-point 34 :   0.0000 0.5000 0.5000  plane waves:   14676
 k-point 35 :   0.2500 0.5000 0.5000  plane waves:   14772
 k-point 36 :   0.5000 0.5000 0.5000  plane waves:   14832

 maximum and minimum number of plane-waves per node :     14832    14662

 maximum number of plane-waves:     14832
 maximum index in each direction: 
   IXMAX=   15   IYMAX=   15   IZMAX=   15
   IXMIN=  -15   IYMIN=  -15   IZMIN=  -15

 The following grids will avoid any aliasing or wrap around errors in the Hartre
 e energy
  - symmetry arguments have not been applied
  - exchange correlation energies might require even more grid points
  - we recommend to set PREC=Normal or Accurate and rely on VASP defaults
 NGX is ok and might be reduce to    64
 NGY is ok and might be reduce to    64
 NGZ is ok and might be reduce to    64

 serial   3D FFT for wavefunctions
 parallel 3D FFT for charge:
    minimum data exchange during FFTs selected (reduces bandwidth)


 total amount of memory used by VASP MPI-rank0   359809. kBytes
=======================================================================

   base      :      30000. kBytes
   nonlr-proj:      25363. kBytes
   fftplans  :       5538. kBytes
   grid      :      31719. kBytes
   one-center:       1492. kBytes
   wavefun   :     265697. kBytes
 
     INWAV:  cpu time    0.0000: real time    0.0000
 Broyden mixing: mesh for mixing (old mesh)
   NGX = 31   NGY = 31   NGZ = 31
  (NGX  =128   NGY  =128   NGZ  =128)
  gives a total of  29791 points

 initial charge density was supplied:
 charge density of overlapping atoms calculated
 number of electron     352.0000000 magnetization      40.0000000
 keeping initial charge density in first step


--------------------------------------------------------------------------------------------------------


 Maximum index for non-local projection operator         5904
 Maximum index for augmentation-charges         1021 (set IRDMAX)


--------------------------------------------------------------------------------------------------------


 First call to EWALD:  gamma=   0.213
 Maximum number of real-space cells 3x 3x 3
 Maximum number of reciprocal cells 3x 3x 3

    FEWALD:  cpu time    0.0023: real time    0.0023


--------------------------------------- Iteration      1(   1)  ---------------------------------------


    POTLOK:  cpu time    0.1670: real time    0.1794
    SETDIJ:  cpu time    0.0193: real time    0.0230
     EDDAV:  cpu time   80.1755: real time   80.3660
    --------------------------------------------
      LOOP:  cpu time   80.3654: real time   80.5737

 eigenvalue-minimisations  : 34560
 total energy-change (2. order) : 0.4528003E+04  (-0.1538925E+05)
 number of electron     352.0000000 magnetization      40.0000000
 augmentation part      352.0000000 magnetization      40.0000000

 Free energy of the ion-electron system (eV)
  ---------------------------------------------------
  alpha Z        PSCENC =       945.17957177
  Ewald energy   TEWEN  =    -16684.90471369
  -Hartree energ DENC   =    -14432.04566110
  -exchange      EXHF   =         0.00000000
  -V(xc)+E(xc)   XCENC  =      1422.25880595
  PAW double counting   =     26463.90193480   -27579.55909067
  entropy T*S    EENTRO =        -0.00990076
  eigenvalues    EBANDS =      3379.50922941
  atomic energy  EATOM  =     31013.67235384
  Solvation  Ediel_sol  =         0.00000000
  ---------------------------------------------------
  free energy    TOTEN  =      4528.00252955 eV

  energy without entropy =     4528.01243032  energy(sigma->0) =     4528.00747993


--------------------------------------------------------------------------------------------------------




--------------------------------------- Iteration      1(   2)  ---------------------------------------


     EDDAV:  cpu time   82.3872: real time   82.5846
    --------------------------------------------
      LOOP:  cpu time   82.3870: real time   82.5828

 eigenvalue-minimisations  : 35984
 total energy-change (2. order) :-0.3902521E+04  (-0.3494157E+04)
 number of electron     352.0000000 magnetization      40.0000000
 augmentation part      352.0000000 magnetization      40.0000000

 Free energy of the ion-electron system (eV)
  ---------------------------------------------------
  alpha Z        PSCENC =       945.17957177
  Ewald energy   TEWEN  =    -16684.90471369
  -Hartree energ DENC   =    -14432.04566110
  -exchange      EXHF   =         0.00000000
  -V(xc)+E(xc)   XCENC  =      1422.25880595
  PAW double counting   =     26463.90193480   -27579.55909067
  entropy T*S    EENTRO =        -0.02738310
  eigenvalues    EBANDS =      -522.99389870
  atomic energy  EATOM  =     31013.67235384
  Solvation  Ediel_sol  =         0.00000000
  ---------------------------------------------------
  free energy    TOTEN  =       625.48191911 eV

  energy without entropy =      625.50930221  energy(sigma->0) =      625.49561066


--------------------------------------------------------------------------------------------------------




--------------------------------------- Iteration      1(   3)  ---------------------------------------


     EDDAV:  cpu time   87.4870: real time   87.6949
    --------------------------------------------
      LOOP:  cpu time   87.4882: real time   87.6960

 eigenvalue-minimisations  : 36832
 total energy-change (2. order) :-0.8907974E+03  (-0.8048104E+03)
 number of electron     352.0000000 magnetization      40.0000000
 augmentation part      352.0000000 magnetization      40.0000000

 Free energy of the ion-electron system (eV)
  ---------------------------------------------------
  alpha Z        PSCENC =       945.17957177
  Ewald energy   TEWEN  =    -16684.90471369
  -Hartree energ DENC   =    -14432.04566110
  -exchange      EXHF   =         0.00000000
  -V(xc)+E(xc)   XCENC  =      1422.25880595
  PAW double counting   =     26463.90193480   -27579.55909067
  entropy T*S    EENTRO =        -0.05555806
  eigenvalues    EBANDS =     -1413.76307809
  atomic energy  EATOM  =     31013.67235384
  Solvation  Ediel_sol  =         0.00000000
  ---------------------------------------------------
  free energy    TOTEN  =      -265.31543524 eV

  energy without entropy =     -265.25987718  energy(sigma->0) =     -265.28765621


--------------------------------------------------------------------------------------------------------




--------------------------------------- Iteration      1(   4)  ---------------------------------------


     EDDAV:  cpu time   92.4901: real time   92.7099
    --------------------------------------------
      LOOP:  cpu time   92.4901: real time   92.7099

 eigenvalue-minimisations  : 38544
 total energy-change (2. order) :-0.8157554E+02  (-0.7951185E+02)
 number of electron     352.0000000 magnetization      40.0000000
 augmentation part      352.0000000 magnetization      40.0000000

 Free energy of the ion-electron system (eV)
  ---------------------------------------------------
  alpha Z        PSCENC =       945.17957177
  Ewald energy   TEWEN  =    -16684.90471369
  -Hartree energ DENC   =    -14432.04566110
  -exchange      EXHF   =         0.00000000
  -V(xc)+E(xc)   XCENC  =      1422.25880595
  PAW double counting   =     26463.90193480   -27579.55909067
  entropy T*S    EENTRO =        -0.05176775
  eigenvalues    EBANDS =     -1495.34240554
  atomic energy  EATOM  =     31013.67235384
  Solvation  Ediel_sol  =         0.00000000
  ---------------------------------------------------
  free energy    TOTEN  =      -346.89097238 eV

  energy without entropy =     -346.83920463  energy(sigma->0) =     -346.86508851


--------------------------------------------------------------------------------------------------------




--------------------------------------- Iteration      1(   5)  ---------------------------------------


     EDDAV:  cpu time   93.3232: real time   93.5450
    CHARGE:  cpu time    3.7647: real time    3.7785
    MIXING:  cpu time    0.0046: real time    0.0114
    --------------------------------------------
      LOOP:  cpu time   97.0881: real time   97.3305

 eigenvalue-minimisations  : 38352
 total energy-change (2. order) :-0.2037619E+01  (-0.2028252E+01)
 number of electron     352.0000000 magnetization      41.3115299
 augmentation part       99.9474010 magnetization      30.0528570

 Broyden mixing:
  rms(total) = 0.17932E+02    rms(broyden)= 0.17931E+02
  rms(prec ) = 0.20710E+02
  weight for this iteration     100.00

 Free energy of the ion-electron system (eV)
  ---------------------------------------------------
  alpha Z        PSCENC =       945.17957177
  Ewald energy   TEWEN  =    -16684.90471369
  -Hartree energ DENC   =    -14432.04566110
  -exchange      EXHF   =         0.00000000
  -V(xc)+E(xc)   XCENC  =      1422.25880595
  PAW double counting   =     26463.90193480   -27579.55909067
  entropy T*S    EENTRO =        -0.05218861
  eigenvalues    EBANDS =     -1497.37960374
  atomic energy  EATOM  =     31013.67235384
  Solvation  Ediel_sol  =         0.00000000
  ---------------------------------------------------
  free energy    TOTEN  =      -348.92859144 eV

  energy without entropy =     -348.87640283  energy(sigma->0) =     -348.90249713


--------------------------------------------------------------------------------------------------------




--------------------------------------- Iteration      1(   6)  ---------------------------------------


    POTLOK:  cpu time    0.1419: real time    0.1422
    SETDIJ:  cpu time    0.0172: real time    0.0173
     EDDAV:  cpu time  120.4747: real time  120.7609
    CHARGE:  cpu time    3.3625: real time    3.3705
    MIXING:  cpu time    0.0049: real time    0.2635
    --------------------------------------------
      LOOP:  cpu time  124.0012: real time  124.5544

 eigenvalue-minimisations  : 53472
 total energy-change (2. order) :-0.1519352E+03  (-0.1065408E+03)
 number of electron     351.9999990 magnetization      33.8278668
 augmentation part      136.3543409 magnetization      31.7664053

 Broyden mixing:
  rms(total) = 0.25292E+02    rms(broyden)= 0.25291E+02
  rms(prec ) = 0.28745E+02
  weight for this iteration     100.00

 eigenvalues of (default mixing * dielectric matrix)
  average eigenvalue GAMMA=   0.2777
  0.2777

 Free energy of the ion-electron system (eV)
  ---------------------------------------------------
  alpha Z        PSCENC =       945.17957177
  Ewald energy   TEWEN  =    -16684.90471369
  -Hartree energ DENC   =    -13835.68888198
  -exchange      EXHF   =         0.00000000
  -V(xc)+E(xc)   XCENC  =      1431.64029930
  PAW double counting   =     30703.67656203   -31639.63316501
  entropy T*S    EENTRO =        -0.03705701
  eigenvalues    EBANDS =     -2434.76879728
  atomic energy  EATOM  =     31013.67235384
  Solvation  Ediel_sol  =         0.00000000
  ---------------------------------------------------
  free energy    TOTEN  =      -500.86382803 eV

  energy without entropy =     -500.82677101  energy(sigma->0) =     -500.84529952


--------------------------------------------------------------------------------------------------------




--------------------------------------- Iteration      1(   7)  ---------------------------------------


    POTLOK:  cpu time    0.1473: real time    0.1476
    SETDIJ:  cpu time    0.0175: real time    0.0175
     EDDAV:  cpu time  107.9132: real time  108.1695
    CHARGE:  cpu time    3.4806: real time    3.4889
    MIXING:  cpu time    0.0041: real time    0.0135
    --------------------------------------------
      LOOP:  cpu time  111.5627: real time  111.8370

 eigenvalue-minimisations  : 45392
 total energy-change (2. order) : 0.2287307E+03  (-0.3680276E+02)
 number of electron     351.9999999 magnetization      26.1236451
 augmentation part      126.1780089 magnetization      21.8072224

 Broyden mixing:
  rms(total) = 0.10588E+02    rms(broyden)= 0.10586E+02
  rms(prec ) = 0.13481E+02
  weight for this iteration     100.00

 eigenvalues of (default mixing * dielectric matrix)
  average eigenvalue GAMMA=   0.5716
  0.5716  0.5716

 Free energy of the ion-electron system (eV)
  ---------------------------------------------------
  alpha Z        PSCENC =       945.17957177
  Ewald energy   TEWEN  =    -16684.90471369
  -Hartree energ DENC   =    -14106.89162138
  -exchange      EXHF   =         0.00000000
  -V(xc)+E(xc)   XCENC  =      1420.56951198
  PAW double counting   =     32588.71373817   -33678.99776807
  entropy T*S    EENTRO =        -0.03551822
  eigenvalues    EBANDS =     -1769.43863282
  atomic energy  EATOM  =     31013.67235384
  Solvation  Ediel_sol  =         0.00000000
  ---------------------------------------------------
  free energy    TOTEN  =      -272.13307841 eV

  energy without entropy =     -272.09756019  energy(sigma->0) =     -272.11531930


--------------------------------------------------------------------------------------------------------




--------------------------------------- Iteration      1(   8)  ---------------------------------------


    POTLOK:  cpu time    0.1378: real time    0.1381
    SETDIJ:  cpu time    0.0174: real time    0.0174
     EDDAV:  cpu time  117.8142: real time  118.0941
    CHARGE:  cpu time    3.2135: real time    3.2212
    MIXING:  cpu time    0.0035: real time    0.0035
    --------------------------------------------
      LOOP:  cpu time  121.1864: real time  121.4743

 eigenvalue-minimisations  : 52272
 total energy-change (2. order) :-0.3348960E+02  (-0.3326195E+02)
 number of electron     351.9999994 magnetization      20.1935402
 augmentation part      116.1748378 magnetization      16.1326682

 Broyden mixing:
  rms(total) = 0.13923E+02    rms(broyden)= 0.13922E+02
  rms(prec ) = 0.20876E+02
  weight for this iteration     100.00

 eigenvalues of (default mixing * dielectric matrix)
  average eigenvalue GAMMA=   0.5405
  0.8847  0.5089  0.2277

 Free energy of the ion-electron system (eV)
  ---------------------------------------------------
  alpha Z        PSCENC =       945.17957177
  Ewald energy   TEWEN  =    -16684.90471369
  -Hartree energ DENC   =    -14166.91260798
  -exchange      EXHF   =         0.00000000
  -V(xc)+E(xc)   XCENC  =      1415.17323336
  PAW double counting   =     34165.33127990   -35357.03882476
  entropy T*S    EENTRO =        -0.04432277
  eigenvalues    EBANDS =     -1636.07864621
  atomic energy  EATOM  =     31013.67235384
  Solvation  Ediel_sol  =         0.00000000
  ---------------------------------------------------
  free energy    TOTEN  =      -305.62267653 eV

  energy without entropy =     -305.57835376  energy(sigma->0) =     -305.60051514


--------------------------------------------------------------------------------------------------------




--------------------------------------- Iteration      1(   9)  ---------------------------------------


    POTLOK:  cpu time    0.1397: real time    0.1400
    SETDIJ:  cpu time    0.0173: real time    0.0174
     EDDAV:  cpu time  105.2282: real time  105.4782
    CHARGE:  cpu time    3.5508: real time    3.5593
    MIXING:  cpu time    0.0050: real time    0.0065
    --------------------------------------------
      LOOP:  cpu time  108.9411: real time  109.2014

 eigenvalue-minimisations  : 45008
 total energy-change (2. order) :-0.3109184E+02  (-0.4660108E+02)
 number of electron     352.0000004 magnetization      13.2393925
 augmentation part      105.1384360 magnetization      10.8545560

 Broyden mixing:
  rms(total) = 0.13310E+02    rms(broyden)= 0.13309E+02
  rms(prec ) = 0.19806E+02
  weight for this iteration     100.00

 eigenvalues of (default mixing * dielectric matrix)
  average eigenvalue GAMMA=   0.5602
  1.3418  0.3711  0.3711  0.1569

 Free energy of the ion-electron system (eV)
  ---------------------------------------------------
  alpha Z        PSCENC =       945.17957177
  Ewald energy   TEWEN  =    -16684.90471369
  -Hartree energ DENC   =    -14231.70590016
  -exchange      EXHF   =         0.00000000
  -V(xc)+E(xc)   XCENC  =      1413.25056829
  PAW double counting   =     35700.69121487   -36936.59390295
  entropy T*S    EENTRO =        -0.03491888
  eigenvalues    EBANDS =     -1556.26878944
  atomic energy  EATOM  =     31013.67235384
  Solvation  Ediel_sol  =         0.00000000
  ---------------------------------------------------
  free energy    TOTEN  =      -336.71451634 eV

  energy without entropy =     -336.67959746  energy(sigma->0) =     -336.69705690


--------------------------------------------------------------------------------------------------------




--------------------------------------- Iteration      1(  10)  ---------------------------------------


    POTLOK:  cpu time    0.1710: real time    0.1714
    SETDIJ:  cpu time    0.0243: real time    0.0244
     EDDAV:  cpu time  108.7662: real time  109.0245
    CHARGE:  cpu time    3.4847: real time    3.4930
    MIXING:  cpu time    0.0050: real time    0.0051
    --------------------------------------------
      LOOP:  cpu time  112.4512: real time  112.7183

 eigenvalue-minimisations  : 46800
 total energy-change (2. order) :-0.3336423E+01  (-0.3121450E+02)
 number of electron     352.0000001 magnetization       8.2856520
 augmentation part      107.0408410 magnetization       6.3999257

 Broyden mixing:
  rms(total) = 0.12960E+02    rms(broyden)= 0.12959E+02
  rms(prec ) = 0.20608E+02
  weight for this iteration     100.00

 eigenvalues of (default mixing * dielectric matrix)
  average eigenvalue GAMMA=   0.5526
  1.6621  0.3794  0.3794  0.1711  0.1711

 Free energy of the ion-electron system (eV)
  ---------------------------------------------------
  alpha Z        PSCENC =       945.17957177
  Ewald energy   TEWEN  =    -16684.90471369
  -Hartree energ DENC   =    -14177.40266476
  -exchange      EXHF   =         0.00000000
  -V(xc)+E(xc)   XCENC  =      1411.77015274
  PAW double counting   =     37331.17733166   -38582.07665864
  entropy T*S    EENTRO =        -0.04609707
  eigenvalues    EBANDS =     -1597.42021564
  atomic energy  EATOM  =     31013.67235384
  Solvation  Ediel_sol  =         0.00000000
  ---------------------------------------------------
  free energy    TOTEN  =      -340.05093977 eV

  energy without entropy =     -340.00484270  energy(sigma->0) =     -340.02789124


--------------------------------------------------------------------------------------------------------




--------------------------------------- Iteration      1(  11)  ---------------------------------------


    POTLOK:  cpu time    0.1727: real time    0.1731
    SETDIJ:  cpu time    0.0238: real time    0.0239
     EDDAV:  cpu time  113.5764: real time  113.8463
    CHARGE:  cpu time    3.4568: real time    3.4650
    MIXING:  cpu time    0.0039: real time    0.0040
    --------------------------------------------
      LOOP:  cpu time  117.2336: real time  117.5121

 eigenvalue-minimisations  : 49008
 total energy-change (2. order) : 0.9102269E+02  (-0.1030250E+02)
 number of electron     351.9999996 magnetization       6.8956058
 augmentation part      111.4039026 magnetization       5.1398695

 Broyden mixing:
  rms(total) = 0.84361E+01    rms(broyden)= 0.84352E+01
  rms(prec ) = 0.13323E+02
  weight for this iteration     100.00

 eigenvalues of (default mixing * dielectric matrix)
  average eigenvalue GAMMA=   0.5167
  1.7117  0.3933  0.3681  0.3681  0.1296  0.1296

 Free energy of the ion-electron system (eV)
  ---------------------------------------------------
  alpha Z        PSCENC =       945.17957177
  Ewald energy   TEWEN  =    -16684.90471369
  -Hartree energ DENC   =    -14112.11268285
  -exchange      EXHF   =         0.00000000
  -V(xc)+E(xc)   XCENC  =      1411.35872854
  PAW double counting   =     38434.50065094   -39684.41578737
  entropy T*S    EENTRO =        -0.04803696
  eigenvalues    EBANDS =     -1572.25833212
  atomic energy  EATOM  =     31013.67235384
  Solvation  Ediel_sol  =         0.00000000
  ---------------------------------------------------
  free energy    TOTEN  =      -249.02824790 eV

  energy without entropy =     -248.98021093  energy(sigma->0) =     -249.00422942


--------------------------------------------------------------------------------------------------------




--------------------------------------- Iteration      1(  12)  ---------------------------------------


    POTLOK:  cpu time    0.1402: real time    0.1405
    SETDIJ:  cpu time    0.0174: real time    0.0174
     EDDAV:  cpu time  105.8240: real time  106.0754
    CHARGE:  cpu time    3.8017: real time    3.8108
    MIXING:  cpu time    0.0042: real time    0.0042
    --------------------------------------------
      LOOP:  cpu time  109.7875: real time  110.0483

 eigenvalue-minimisations  : 45776
 total energy-change (2. order) : 0.2237465E+02  (-0.5225915E+01)
 number of electron     352.0000002 magnetization       6.1232292
 augmentation part      115.2094149 magnetization       3.8499834

 Broyden mixing:
  rms(total) = 0.57315E+01    rms(broyden)= 0.57300E+01
  rms(prec ) = 0.85592E+01
  weight for this iteration     100.00

 eigenvalues of (default mixing * dielectric matrix)
  average eigenvalue GAMMA=   0.4939
  1.7009  0.5529  0.4110  0.4110  0.1479  0.1167  0.1167

 Free energy of the ion-electron system (eV)
  ---------------------------------------------------
  alpha Z        PSCENC =       945.17957177
  Ewald energy   TEWEN  =    -16684.90471369
  -Hartree energ DENC   =    -14082.27861297
  -exchange      EXHF   =         0.00000000
  -V(xc)+E(xc)   XCENC  =      1410.92812548
  PAW double counting   =     38670.36380248   -39915.61891782
  entropy T*S    EENTRO =        -0.04028472
  eigenvalues    EBANDS =     -1583.95492631
  atomic energy  EATOM  =     31013.67235384
  Solvation  Ediel_sol  =         0.00000000
  ---------------------------------------------------
  free energy    TOTEN  =      -226.65360193 eV

  energy without entropy =     -226.61331721  energy(sigma->0) =     -226.63345957


--------------------------------------------------------------------------------------------------------




--------------------------------------- Iteration      1(  13)  ---------------------------------------


    POTLOK:  cpu time    0.1399: real time    0.1403
    SETDIJ:  cpu time    0.0174: real time    0.0175
     EDDAV:  cpu time  116.3692: real time  116.6456
    CHARGE:  cpu time    4.1394: real time    4.1492
    MIXING:  cpu time    0.0055: real time    0.0055
    --------------------------------------------
      LOOP:  cpu time  120.6714: real time  120.9581

 eigenvalue-minimisations  : 51984
 total energy-change (2. order) : 0.4031113E+01  (-0.2677116E+01)
 number of electron     352.0000001 magnetization       5.4397373
 augmentation part      114.4134502 magnetization       3.8374865

 Broyden mixing:
  rms(total) = 0.52957E+01    rms(broyden)= 0.52948E+01
  rms(prec ) = 0.80517E+01
  weight for this iteration     100.00

 eigenvalues of (default mixing * dielectric matrix)
  average eigenvalue GAMMA=   0.4595
  1.7374  0.5746  0.4247  0.4247  0.1451  0.1451  0.1122  0.1122

 Free energy of the ion-electron system (eV)
  ---------------------------------------------------
  alpha Z        PSCENC =       945.17957177
  Ewald energy   TEWEN  =    -16684.90471369
  -Hartree energ DENC   =    -14088.01560169
  -exchange      EXHF   =         0.00000000
  -V(xc)+E(xc)   XCENC  =      1410.45205045
  PAW double counting   =     38746.98843191   -39988.43076382
  entropy T*S    EENTRO =        -0.06257849
  eigenvalues    EBANDS =     -1577.50123901
  atomic energy  EATOM  =     31013.67235384
  Solvation  Ediel_sol  =         0.00000000
  ---------------------------------------------------
  free energy    TOTEN  =      -222.62248873 eV

  energy without entropy =     -222.55991024  energy(sigma->0) =     -222.59119948


--------------------------------------------------------------------------------------------------------




--------------------------------------- Iteration      1(  14)  ---------------------------------------


    POTLOK:  cpu time    0.1741: real time    0.1745
    SETDIJ:  cpu time    0.0251: real time    0.0251
     EDDAV:  cpu time  117.1883: real time  117.4667
    CHARGE:  cpu time    3.4057: real time    3.4137
    MIXING:  cpu time    0.0055: real time    0.0055
    --------------------------------------------
      LOOP:  cpu time  120.7986: real time  121.0856

 eigenvalue-minimisations  : 51152
 total energy-change (2. order) : 0.5963349E+01  (-0.1894905E+01)
 number of electron     352.0000001 magnetization       4.4597995
 augmentation part      114.7558409 magnetization       2.6449062

 Broyden mixing:
  rms(total) = 0.30241E+01    rms(broyden)= 0.30231E+01
  rms(prec ) = 0.37059E+01
  weight for this iteration     100.00

 eigenvalues of (default mixing * dielectric matrix)
  average eigenvalue GAMMA=   0.4530
  1.7818  0.5653  0.5653  0.3261  0.3261  0.1801  0.1192  0.1192  0.0936

 Free energy of the ion-electron system (eV)
  ---------------------------------------------------
  alpha Z        PSCENC =       945.17957177
  Ewald energy   TEWEN  =    -16684.90471369
  -Hartree energ DENC   =    -14092.43828046
  -exchange      EXHF   =         0.00000000
  -V(xc)+E(xc)   XCENC  =      1410.21387323
  PAW double counting   =     38846.29540947   -40085.79713321
  entropy T*S    EENTRO =        -0.05607160
  eigenvalues    EBANDS =     -1568.82414891
  atomic energy  EATOM  =     31013.67235384
  Solvation  Ediel_sol  =         0.00000000
  ---------------------------------------------------
  free energy    TOTEN  =      -216.65913956 eV

  energy without entropy =     -216.60306796  energy(sigma->0) =     -216.63110376


--------------------------------------------------------------------------------------------------------




--------------------------------------- Iteration      1(  15)  ---------------------------------------


    POTLOK:  cpu time    0.1679: real time    0.1683
    SETDIJ:  cpu time    0.0259: real time    0.0260
     EDDAV:  cpu time  111.6735: real time  111.9387
    CHARGE:  cpu time    3.6939: real time    3.7027
    MIXING:  cpu time    0.0056: real time    0.0056
    --------------------------------------------
      LOOP:  cpu time  115.5668: real time  115.8413

 eigenvalue-minimisations  : 50304
 total energy-change (2. order) : 0.2383004E-02  (-0.6801947E+00)
 number of electron     351.9999999 magnetization       3.3263351
 augmentation part      114.8831870 magnetization       1.9978166

 Broyden mixing:
  rms(total) = 0.30103E+01    rms(broyden)= 0.30096E+01
  rms(prec ) = 0.39706E+01
  weight for this iteration     100.00

 eigenvalues of (default mixing * dielectric matrix)
  average eigenvalue GAMMA=   0.4532
  1.8036  0.6468  0.6468  0.3671  0.3671  0.2179  0.1554  0.1141  0.1141  0.0986

 Free energy of the ion-electron system (eV)
  ---------------------------------------------------
  alpha Z        PSCENC =       945.17957177
  Ewald energy   TEWEN  =    -16684.90471369
  -Hartree energ DENC   =    -14090.21287153
  -exchange      EXHF   =         0.00000000
  -V(xc)+E(xc)   XCENC  =      1409.79686392
  PAW double counting   =     39019.21601760   -40254.43674772
  entropy T*S    EENTRO =        -0.05859615
  eigenvalues    EBANDS =     -1574.90863461
  atomic energy  EATOM  =     31013.67235384
  Solvation  Ediel_sol  =         0.00000000
  ---------------------------------------------------
  free energy    TOTEN  =      -216.65675655 eV

  energy without entropy =     -216.59816041  energy(sigma->0) =     -216.62745848


--------------------------------------------------------------------------------------------------------




--------------------------------------- Iteration      1(  16)  ---------------------------------------


    POTLOK:  cpu time    0.1662: real time    0.1666
    SETDIJ:  cpu time    0.0169: real time    0.0170
     EDDAV:  cpu time  103.9397: real time  104.1866
    CHARGE:  cpu time    3.5684: real time    3.5769
    MIXING:  cpu time    0.0082: real time    0.0584
    --------------------------------------------
      LOOP:  cpu time  107.6995: real time  108.0055

 eigenvalue-minimisations  : 43936
 total energy-change (2. order) :-0.1078632E+01  (-0.9151760E+00)
 number of electron     352.0000004 magnetization       1.9085617
 augmentation part      116.1198375 magnetization       0.4753885

 Broyden mixing:
  rms(total) = 0.30403E+01    rms(broyden)= 0.30396E+01
  rms(prec ) = 0.40870E+01
  weight for this iteration     100.00

 eigenvalues of (default mixing * dielectric matrix)
  average eigenvalue GAMMA=   0.4755
  1.8869  0.7914  0.7914  0.4126  0.4126  0.3203  0.1473  0.1473  0.1125  0.1125
  0.0952

 Free energy of the ion-electron system (eV)
  ---------------------------------------------------
  alpha Z        PSCENC =       945.17957177
  Ewald energy   TEWEN  =    -16684.90471369
  -Hartree energ DENC   =    -14079.82251064
  -exchange      EXHF   =         0.00000000
  -V(xc)+E(xc)   XCENC  =      1409.45884250
  PAW double counting   =     39216.00191945   -40445.94154009
  entropy T*S    EENTRO =        -0.04640868
  eigenvalues    EBANDS =     -1591.33290339
  atomic energy  EATOM  =     31013.67235384
  Solvation  Ediel_sol  =         0.00000000
  ---------------------------------------------------
  free energy    TOTEN  =      -217.73538892 eV

  energy without entropy =     -217.68898024  energy(sigma->0) =     -217.71218458


--------------------------------------------------------------------------------------------------------




--------------------------------------- Iteration      1(  17)  ---------------------------------------


    POTLOK:  cpu time    0.1461: real time    0.1465
    SETDIJ:  cpu time    0.0173: real time    0.0173
     EDDAV:  cpu time  100.8789: real time  101.1186
    CHARGE:  cpu time    3.7923: real time    3.8013
    MIXING:  cpu time    0.0050: real time    0.0050
    --------------------------------------------
      LOOP:  cpu time  104.8395: real time  105.0886

 eigenvalue-minimisations  : 43456
 total energy-change (2. order) : 0.5524364E+00  (-0.5232074E+00)
 number of electron     351.9999999 magnetization       1.2570432
 augmentation part      117.7790959 magnetization       0.0660597

 Broyden mixing:
  rms(total) = 0.25034E+01    rms(broyden)= 0.25027E+01
  rms(prec ) = 0.36008E+01
  weight for this iteration     100.00

 eigenvalues of (default mixing * dielectric matrix)
  average eigenvalue GAMMA=   0.4892
  1.9728  0.9327  0.9327  0.4479  0.4063  0.4063  0.1653  0.1653  0.1137  0.1137
  0.1179  0.0955

 Free energy of the ion-electron system (eV)
  ---------------------------------------------------
  alpha Z        PSCENC =       945.17957177
  Ewald energy   TEWEN  =    -16684.90471369
  -Hartree energ DENC   =    -14064.89538594
  -exchange      EXHF   =         0.00000000
  -V(xc)+E(xc)   XCENC  =      1409.16942516
  PAW double counting   =     39501.73209189   -40726.74431266
  entropy T*S    EENTRO =        -0.05946269
  eigenvalues    EBANDS =     -1610.33252016
  atomic energy  EATOM  =     31013.67235384
  Solvation  Ediel_sol  =         0.00000000
  ---------------------------------------------------
  free energy    TOTEN  =      -217.18295247 eV

  energy without entropy =     -217.12348978  energy(sigma->0) =     -217.15322113


--------------------------------------------------------------------------------------------------------




--------------------------------------- Iteration      1(  18)  ---------------------------------------


    POTLOK:  cpu time    0.1397: real time    0.1400
    SETDIJ:  cpu time    0.0175: real time    0.0176
     EDDAV:  cpu time  111.2490: real time  111.5133
    CHARGE:  cpu time    4.2401: real time    4.2502
    MIXING:  cpu time    0.0067: real time    0.0067
    --------------------------------------------
      LOOP:  cpu time  115.6530: real time  115.9277

 eigenvalue-minimisations  : 48400
 total energy-change (2. order) : 0.1319592E+01  (-0.3348128E+00)
 number of electron     352.0000000 magnetization       1.0055375
 augmentation part      116.8591322 magnetization       0.0145910

 Broyden mixing:
  rms(total) = 0.15892E+01    rms(broyden)= 0.15886E+01
  rms(prec ) = 0.20514E+01
  weight for this iteration     100.00

 eigenvalues of (default mixing * dielectric matrix)
  average eigenvalue GAMMA=   0.4829
  2.0177  0.9825  0.9825  0.4912  0.4101  0.4101  0.2313  0.1785  0.1271  0.1271
  0.1121  0.1121  0.0949

 Free energy of the ion-electron system (eV)
  ---------------------------------------------------
  alpha Z        PSCENC =       945.17957177
  Ewald energy   TEWEN  =    -16684.90471369
  -Hartree energ DENC   =    -14074.10993657
  -exchange      EXHF   =         0.00000000
  -V(xc)+E(xc)   XCENC  =      1409.06201320
  PAW double counting   =     39655.12833619   -40878.71481648
  entropy T*S    EENTRO =        -0.05839277
  eigenvalues    EBANDS =     -1601.11777636
  atomic energy  EATOM  =     31013.67235384
  Solvation  Ediel_sol  =         0.00000000
  ---------------------------------------------------
  free energy    TOTEN  =      -215.86336087 eV

  energy without entropy =     -215.80496810  energy(sigma->0) =     -215.83416449


--------------------------------------------------------------------------------------------------------




--------------------------------------- Iteration      1(  19)  ---------------------------------------


    POTLOK:  cpu time    0.1841: real time    0.1845
    SETDIJ:  cpu time    0.0199: real time    0.0199
     EDDAV:  cpu time  118.3762: real time  118.6574
    CHARGE:  cpu time    4.2197: real time    4.2297
    MIXING:  cpu time    0.0065: real time    0.0066
    --------------------------------------------
      LOOP:  cpu time  122.8064: real time  123.0981

 eigenvalue-minimisations  : 48656
 total energy-change (2. order) : 0.3773526E+00  (-0.1126032E+00)
 number of electron     352.0000002 magnetization       0.9490759
 augmentation part      116.0973889 magnetization       0.1698724

 Broyden mixing:
  rms(total) = 0.12374E+01    rms(broyden)= 0.12370E+01
  rms(prec ) = 0.15376E+01
  weight for this iteration     100.00

 eigenvalues of (default mixing * dielectric matrix)
  average eigenvalue GAMMA=   0.4911
  1.8311  1.1625  1.1625  0.5318  0.5318  0.3584  0.3584  0.2051  0.1501  0.1501
  0.1128  0.1128  0.0954  0.1119

 Free energy of the ion-electron system (eV)
  ---------------------------------------------------
  alpha Z        PSCENC =       945.17957177
  Ewald energy   TEWEN  =    -16684.90471369
  -Hartree energ DENC   =    -14082.40405343
  -exchange      EXHF   =         0.00000000
  -V(xc)+E(xc)   XCENC  =      1409.03980824
  PAW double counting   =     39723.28644628   -40946.38130948
  entropy T*S    EENTRO =        -0.05344381
  eigenvalues    EBANDS =     -1592.92066803
  atomic energy  EATOM  =     31013.67235384
  Solvation  Ediel_sol  =         0.00000000
  ---------------------------------------------------
  free energy    TOTEN  =      -215.48600831 eV

  energy without entropy =     -215.43256450  energy(sigma->0) =     -215.45928641


--------------------------------------------------------------------------------------------------------




--------------------------------------- Iteration      1(  20)  ---------------------------------------


    POTLOK:  cpu time    0.1676: real time    0.1680
    SETDIJ:  cpu time    0.0172: real time    0.0173
     EDDAV:  cpu time  109.4387: real time  109.6986
    CHARGE:  cpu time    4.1773: real time    4.1873
    MIXING:  cpu time    0.0074: real time    0.0074
    --------------------------------------------
      LOOP:  cpu time  113.8083: real time  114.0787

 eigenvalue-minimisations  : 43552
 total energy-change (2. order) :-0.5896446E+00  (-0.1436331E+00)
 number of electron     352.0000000 magnetization       0.9933175
 augmentation part      116.3165933 magnetization       0.1299428

 Broyden mixing:
  rms(total) = 0.15845E+01    rms(broyden)= 0.15842E+01
  rms(prec ) = 0.23398E+01
  weight for this iteration     100.00

 eigenvalues of (default mixing * dielectric matrix)
  average eigenvalue GAMMA=   0.4864
  1.6933  1.6933  0.9107  0.5741  0.5741  0.3601  0.3601  0.2677  0.1576  0.1576
  0.1133  0.1133  0.0954  0.1127  0.1127

 Free energy of the ion-electron system (eV)
  ---------------------------------------------------
  alpha Z        PSCENC =       945.17957177
  Ewald energy   TEWEN  =    -16684.90471369
  -Hartree energ DENC   =    -14084.13394941
  -exchange      EXHF   =         0.00000000
  -V(xc)+E(xc)   XCENC  =      1408.92511624
  PAW double counting   =     39736.64134413   -40955.78398235
  entropy T*S    EENTRO =        -0.06246941
  eigenvalues    EBANDS =     -1595.60892405
  atomic energy  EATOM  =     31013.67235384
  Solvation  Ediel_sol  =         0.00000000
  ---------------------------------------------------
  free energy    TOTEN  =      -216.07565294 eV

  energy without entropy =     -216.01318352  energy(sigma->0) =     -216.04441823


--------------------------------------------------------------------------------------------------------




--------------------------------------- Iteration      1(  21)  ---------------------------------------


    POTLOK:  cpu time    0.1716: real time    0.1720
    SETDIJ:  cpu time    0.0173: real time    0.0174
     EDDAV:  cpu time  103.3588: real time  103.6043
    CHARGE:  cpu time    3.4947: real time    3.5030
    MIXING:  cpu time    0.0058: real time    0.0058
    --------------------------------------------
      LOOP:  cpu time  107.0482: real time  107.3025

 eigenvalue-minimisations  : 41344
 total energy-change (2. order) : 0.5772874E+00  (-0.1254449E+00)
 number of electron     352.0000000 magnetization       1.1650690
 augmentation part      116.3687406 magnetization       0.1976596

 Broyden mixing:
  rms(total) = 0.87470E+00    rms(broyden)= 0.87421E+00
  rms(prec ) = 0.13246E+01
  weight for this iteration     100.00

 eigenvalues of (default mixing * dielectric matrix)
  average eigenvalue GAMMA=   0.5020
  1.8583  1.8583  0.8758  0.6359  0.6359  0.3883  0.3883  0.3686  0.1715  0.1515
  0.1515  0.1125  0.1125  0.0955  0.1136  0.1136

 Free energy of the ion-electron system (eV)
  ---------------------------------------------------
  alpha Z        PSCENC =       945.17957177
  Ewald energy   TEWEN  =    -16684.90471369
  -Hartree energ DENC   =    -14084.10197869
  -exchange      EXHF   =         0.00000000
  -V(xc)+E(xc)   XCENC  =      1408.90751285
  PAW double counting   =     39736.51885999   -40953.37310600
  entropy T*S    EENTRO =        -0.06232959
  eigenvalues    EBANDS =     -1597.33453603
  atomic energy  EATOM  =     31013.67235384
  Solvation  Ediel_sol  =         0.00000000
  ---------------------------------------------------
  free energy    TOTEN  =      -215.49836554 eV

  energy without entropy =     -215.43603595  energy(sigma->0) =     -215.46720075


--------------------------------------------------------------------------------------------------------




--------------------------------------- Iteration      1(  22)  ---------------------------------------


    POTLOK:  cpu time    0.1407: real time    0.1410
    SETDIJ:  cpu time    0.0173: real time    0.0173
     EDDAV:  cpu time  125.1074: real time  125.4045
    CHARGE:  cpu time    4.0722: real time    4.0818
    MIXING:  cpu time    0.0093: real time    0.0094
    --------------------------------------------
      LOOP:  cpu time  129.3469: real time  129.6541

 eigenvalue-minimisations  : 50080
 total energy-change (2. order) : 0.1229963E+00  (-0.6661131E-01)
 number of electron     352.0000000 magnetization       1.2412608
 augmentation part      116.3324603 magnetization       0.3163235

 Broyden mixing:
  rms(total) = 0.78384E+00    rms(broyden)= 0.78352E+00
  rms(prec ) = 0.10878E+01
  weight for this iteration     100.00

 eigenvalues of (default mixing * dielectric matrix)
  average eigenvalue GAMMA=   0.5047
  1.9776  1.9776  0.8270  0.7056  0.7056  0.3933  0.3933  0.3880  0.1902  0.1902
  0.1482  0.1482  0.1129  0.1129  0.0954  0.1066  0.1066

 Free energy of the ion-electron system (eV)
  ---------------------------------------------------
  alpha Z        PSCENC =       945.17957177
  Ewald energy   TEWEN  =    -16684.90471369
  -Hartree energ DENC   =    -14084.45211382
  -exchange      EXHF   =         0.00000000
  -V(xc)+E(xc)   XCENC  =      1408.93525369
  PAW double counting   =     39732.98643407   -40948.35893088
  entropy T*S    EENTRO =        -0.05643114
  eigenvalues    EBANDS =     -1598.37679306
  atomic energy  EATOM  =     31013.67235384
  Solvation  Ediel_sol  =         0.00000000
  ---------------------------------------------------
  free energy    TOTEN  =      -215.37536921 eV

  energy without entropy =     -215.31893807  energy(sigma->0) =     -215.34715364


--------------------------------------------------------------------------------------------------------




--------------------------------------- Iteration      1(  23)  ---------------------------------------


    POTLOK:  cpu time    0.1898: real time    0.1902
    SETDIJ:  cpu time    0.0272: real time    0.0272
     EDDAV:  cpu time  123.7796: real time  124.0736
    CHARGE:  cpu time    3.5847: real time    3.5932
    MIXING:  cpu time    0.0060: real time    0.0060
    --------------------------------------------
      LOOP:  cpu time  127.5872: real time  127.8903

 eigenvalue-minimisations  : 50800
 total energy-change (2. order) : 0.6828533E-01  (-0.3422951E-01)
 number of electron     352.0000000 magnetization       1.3368828
 augmentation part      116.2787213 magnetization       0.2345436

 Broyden mixing:
  rms(total) = 0.63901E+00    rms(broyden)= 0.63885E+00
  rms(prec ) = 0.87693E+00
  weight for this iteration     100.00

 eigenvalues of (default mixing * dielectric matrix)
  average eigenvalue GAMMA=   0.5008
  1.9957  1.9957  0.8928  0.7481  0.7481  0.3977  0.3977  0.3892  0.2839  0.2038
  0.1522  0.1522  0.1128  0.1128  0.0954  0.1156  0.1099  0.1099

 Free energy of the ion-electron system (eV)
  ---------------------------------------------------
  alpha Z        PSCENC =       945.17957177
  Ewald energy   TEWEN  =    -16684.90471369
  -Hartree energ DENC   =    -14086.62679721
  -exchange      EXHF   =         0.00000000
  -V(xc)+E(xc)   XCENC  =      1408.99587520
  PAW double counting   =     39750.75847982   -40964.95407384
  entropy T*S    EENTRO =        -0.05604569
  eigenvalues    EBANDS =     -1597.37173408
  atomic energy  EATOM  =     31013.67235384
  Solvation  Ediel_sol  =         0.00000000
  ---------------------------------------------------
  free energy    TOTEN  =      -215.30708388 eV

  energy without entropy =     -215.25103820  energy(sigma->0) =     -215.27906104


--------------------------------------------------------------------------------------------------------




--------------------------------------- Iteration      1(  24)  ---------------------------------------


    POTLOK:  cpu time    0.1370: real time    0.1374
    SETDIJ:  cpu time    0.0171: real time    0.0171
     EDDAV:  cpu time  106.3397: real time  106.5925
    CHARGE:  cpu time    3.5573: real time    3.5658
    MIXING:  cpu time    0.0064: real time    0.0064
    --------------------------------------------
      LOOP:  cpu time  110.0575: real time  110.3191

 eigenvalue-minimisations  : 49648
 total energy-change (2. order) : 0.4025693E-01  (-0.1954508E-01)
 number of electron     352.0000000 magnetization       1.4744712
 augmentation part      116.2308448 magnetization       0.4603452

 Broyden mixing:
  rms(total) = 0.49593E+00    rms(broyden)= 0.49580E+00
  rms(prec ) = 0.66740E+00
  weight for this iteration     100.00

 eigenvalues of (default mixing * dielectric matrix)
  average eigenvalue GAMMA=   0.4938
  2.0062  2.0062  0.8889  0.7956  0.7956  0.3876  0.3876  0.3929  0.3929  0.2375
  0.1521  0.1521  0.1434  0.1127  0.1127  0.1137  0.1137  0.0956  0.0956

 Free energy of the ion-electron system (eV)
  ---------------------------------------------------
  alpha Z        PSCENC =       945.17957177
  Ewald energy   TEWEN  =    -16684.90471369
  -Hartree energ DENC   =    -14088.99365940
  -exchange      EXHF   =         0.00000000
  -V(xc)+E(xc)   XCENC  =      1409.06296417
  PAW double counting   =     39767.04678209   -40980.99717728
  entropy T*S    EENTRO =        -0.05578038
  eigenvalues    EBANDS =     -1595.27716807
  atomic energy  EATOM  =     31013.67235384
  Solvation  Ediel_sol  =         0.00000000
  ---------------------------------------------------
  free energy    TOTEN  =      -215.26682695 eV

  energy without entropy =     -215.21104657  energy(sigma->0) =     -215.23893676


--------------------------------------------------------------------------------------------------------




--------------------------------------- Iteration      1(  25)  ---------------------------------------


    POTLOK:  cpu time    0.1405: real time    0.1409
    SETDIJ:  cpu time    0.0174: real time    0.0175
     EDDAV:  cpu time  109.1234: real time  109.3826
    CHARGE:  cpu time    3.6594: real time    3.6681
    MIXING:  cpu time    0.0064: real time    0.0064
    --------------------------------------------
      LOOP:  cpu time  112.9472: real time  113.2155

 eigenvalue-minimisations  : 51248
 total energy-change (2. order) : 0.1810556E-01  (-0.1128388E-01)
[...]
 -0.005  -0.001   0.000  -0.002   0.001   0.003   0.001  -0.002   0.001   0.002   0.001  -0.000  -0.000  -0.000   0.000   0.000


------------------------ aborting loop because EDIFF is reached ----------------------------------------


    CHARGE:  cpu time    3.4349: real time    3.4431
    FORLOC:  cpu time    0.0311: real time    0.0378
    FORNL :  cpu time   29.8374: real time   29.9082
    STRESS:  cpu time   95.0341: real time   95.2662
    FORCOR:  cpu time    0.2201: real time    0.2206
    FORHAR:  cpu time    0.0568: real time    0.0570
    MIXING:  cpu time    0.0181: real time    0.0181
    OFIELD:  cpu time    0.0001: real time    0.0001

  FORCE on cell =-STRESS in cart. coord.  units (eV):
  Direction    XX          YY          ZZ          XY          YZ          ZX
  --------------------------------------------------------------------------------------
  Alpha Z   945.17957   945.17957   945.17957
  Ewald   -5792.76786 -5205.05025 -5687.19661 -1260.58279  -910.28125  -109.50413
  Hartree  4633.60238  4803.77718  4666.67538  -788.27765  -525.98811  -172.31953
  E(xc)   -1803.66671 -1804.83088 -1804.42120     0.37600     0.46074    -0.42248
  Local   -5578.30821 -6290.41030 -5712.77915  1974.40539  1372.41360   314.59043
  n-local  -694.55891  -667.84662  -693.81548   -24.49450   -19.15760    12.16642
  augment  2981.91642  2967.68639  2983.51731    29.11563    27.07586   -13.05181
  Kinetic  5431.79639  5433.23558  5434.12334    17.64135    19.59071    -5.84893
  Fock        0.00000     0.00000     0.00000     0.00000     0.00000     0.00000
  -------------------------------------------------------------------------------------
  Total      123.1930841    181.7406715    131.2831638    -51.8165575    -35.8860526     25.6099820
  in kB      340.3748087    502.1381417    362.7271945   -143.1659170    -99.1509253     70.7587831
  external PRESSURE =     401.7467149 kB  Pullay stress =       0.0000000 kB


 VOLUME and BASIS-vectors are now :
 -----------------------------------------------------------------------------
  energy-cutoff  :      500.00
  volume of cell :      579.88
      direct lattice vectors                 reciprocal lattice vectors
     8.338984500  0.000000000  0.000000000     0.119918678  0.000000000  0.000000000
     0.000000000  8.338984500  0.000000000     0.000000000  0.119918678  0.000000000
     0.000000000  0.000000000  8.338984500     0.000000000  0.000000000  0.119918678

  length of vectors
     8.338984500  8.338984500  8.338984500     0.119918678  0.119918678  0.119918678


 FORCES acting on ions
    electron-ion (+dipol)            ewald-force                    non-local-force                 convergence-correction
 -----------------------------------------------------------------------------------------------
   0.281E+03 -.113E+03 0.294E+03   -.280E+03 0.110E+03 -.303E+03   -.234E+01 0.233E+01 0.530E+01   -.652E-02 -.114E-01 -.596E-01
   -.136E+03 -.299E+03 0.305E+03   0.146E+03 0.310E+03 -.330E+03   -.318E+01 -.125E+01 0.390E+01   -.226E-01 -.311E-01 -.155E-01
   -.120E+03 0.634E+02 0.176E+03   0.211E+03 -.101E+03 -.166E+03   -.406E+01 0.272E+00 0.148E+01   -.460E-01 0.269E-01 -.193E-01
   0.258E+03 -.204E+03 -.106E+02   -.265E+03 0.209E+03 0.104E+02   0.329E+01 -.214E+01 -.260E+01   0.244E-02 -.174E-01 -.176E-01
   0.281E+03 0.290E+03 0.652E+02   -.285E+03 -.291E+03 -.755E+02   0.316E+01 -.531E+00 0.307E+01   -.228E-02 0.867E-02 0.167E-01
   -.126E+03 0.340E+02 -.188E+03   0.127E+03 -.339E+02 0.195E+03   -.191E+01 0.185E+01 -.269E+01   -.493E-01 0.396E-02 0.413E-01
   -.588E+02 0.230E+03 -.249E+03   0.575E+02 -.234E+03 0.253E+03   -.244E+01 0.182E+01 -.106E+01   -.959E-02 -.168E-01 0.590E-02
   0.317E+03 -.677E+02 -.386E+03   -.317E+03 0.846E+02 0.392E+03   -.222E+01 -.456E+01 -.187E+01   -.600E-02 0.842E-01 0.594E-02
   0.340E+03 0.479E+02 0.420E+03   -.349E+03 -.514E+02 -.453E+03   0.138E+01 0.319E+01 0.747E+01   -.121E-01 0.175E-01 0.232E-01
   -.209E+03 -.157E+03 0.374E+02   0.213E+03 0.159E+03 -.407E+02   -.222E+01 -.215E+01 0.133E+01   0.749E-02 0.578E-02 -.242E-02
   -.247E+03 -.135E+03 -.293E+03   0.258E+03 0.185E+03 0.309E+03   -.547E+01 -.451E+01 -.293E+01   0.549E-01 -.133E-01 0.634E-02
   0.759E+02 -.263E+03 -.382E+03   -.802E+02 0.272E+03 0.392E+03   0.147E+01 -.642E+01 -.254E+01   -.293E-01 0.395E-02 0.305E-02
   -.302E+02 0.186E+03 0.195E+03   0.308E+02 -.188E+03 -.195E+03   0.158E+01 0.267E+01 -.737E+00   -.434E-02 -.260E-01 -.286E-01
   -.277E+03 0.486E+02 0.139E+03   0.281E+03 -.518E+02 -.138E+03   0.375E+00 0.466E+00 -.215E+01   0.496E-01 0.224E-01 -.494E-01
   -.397E+03 0.461E+03 0.316E+02   0.406E+03 -.469E+03 -.303E+02   -.146E+01 0.121E+00 -.841E+00   0.351E-01 -.524E-01 0.670E-02
   0.630E+02 0.759E+02 0.818E+02   -.634E+02 -.967E+02 -.772E+02   -.237E+00 0.274E+01 -.301E+00   -.248E-01 0.117E-01 -.122E-01
   -.272E+03 0.319E+03 0.268E+03   0.283E+03 -.334E+03 -.281E+03   -.107E+02 0.138E+02 0.147E+02   0.179E-01 -.892E-02 -.170E-01
   -.183E+03 -.158E+03 -.288E+03   0.190E+03 0.140E+03 0.329E+03   -.922E+01 0.130E+02 -.208E+02   -.870E-02 -.629E-02 -.116E-01
   0.315E+03 -.773E+02 -.199E+02   -.337E+03 0.860E+02 0.211E+02   0.223E+02 -.102E+02 -.117E+01   -.196E-01 -.539E-02 -.169E-01
   -.794E+02 -.110E+02 0.264E+03   0.861E+02 0.139E+02 -.277E+03   -.809E+01 -.353E+01 0.133E+02   0.109E-02 -.135E-02 0.619E-02
   0.149E+03 0.354E+03 0.230E+03   -.149E+03 -.392E+03 -.245E+03   0.270E+01 0.214E+02 0.953E+01   -.454E-01 0.709E-02 0.188E-03
   -.284E+02 0.227E+03 -.978E+02   0.301E+02 -.243E+03 0.104E+03   -.220E+01 0.151E+02 -.684E+01   0.143E-01 0.377E-01 -.213E-01
   0.224E+03 0.341E+03 -.174E+03   -.247E+03 -.350E+03 0.191E+03   0.181E+02 0.610E+01 -.161E+02   -.278E-02 -.346E-01 0.674E-02
   0.303E+03 -.234E+03 0.294E+03   -.320E+03 0.246E+03 -.309E+03   0.174E+02 -.142E+02 0.158E+02   0.155E-02 -.279E-01 -.132E-01
   -.356E+03 0.572E+02 0.314E+03   0.377E+03 -.595E+02 -.337E+03   -.171E+02 0.305E+01 0.158E+02   0.200E-01 -.101E-01 0.209E-01
   -.209E+03 -.198E+03 -.320E+03   0.224E+03 0.215E+03 0.339E+03   -.124E+02 -.172E+02 -.195E+02   -.244E-01 0.195E-01 0.820E-02
   0.713E+02 -.357E+03 -.393E+03   -.715E+02 0.377E+03 0.434E+03   0.327E+01 -.144E+02 -.257E+02   -.277E-01 0.179E-01 0.237E-01
   -.381E+02 -.324E+03 0.369E+02   0.410E+02 0.339E+03 -.434E+02   -.366E+01 -.156E+02 0.803E+01   0.341E-02 0.747E-02 0.154E-01
   0.258E+03 0.143E+03 -.788E+01   -.272E+03 -.151E+03 0.896E+01   0.165E+02 0.100E+02 -.171E+01   -.112E-01 -.573E-02 0.257E-02
   -.808E+02 0.638E+02 -.270E+03   0.890E+02 -.672E+02 0.294E+03   -.971E+01 0.433E+01 -.210E+02   0.781E-02 -.548E-02 0.965E-02
   0.289E+03 0.146E+03 -.388E+03   -.310E+03 -.162E+03 0.439E+03   0.156E+02 0.783E+01 -.259E+02   -.156E-03 -.259E-02 0.971E-02
   0.271E+03 -.216E+03 0.189E+03   -.280E+03 0.235E+03 -.206E+03   0.881E+01 -.197E+02 0.163E+02   -.737E-02 0.183E-01 0.240E-01
   -.938E+02 0.360E+03 0.275E+03   0.970E+02 -.379E+03 -.299E+03   -.277E+01 0.183E+02 0.214E+02   -.855E-02 -.130E-01 0.244E-01
   -.316E+03 -.298E+03 -.297E+03   0.331E+03 0.306E+03 0.309E+03   -.138E+02 -.456E+01 -.111E+02   0.162E-01 -.141E-01 0.122E-01
   0.100E+03 0.892E+01 -.182E+03   -.112E+03 -.139E+01 0.193E+03   0.128E+02 -.914E+01 -.992E+01   0.138E-01 -.412E-02 0.149E-01
   -.312E+03 -.547E+02 -.162E+02   0.339E+03 0.600E+02 0.173E+02   -.228E+02 -.633E+01 0.715E+00   -.184E-01 -.411E-02 -.747E-02
   0.332E+01 0.550E+03 0.101E+03   -.515E+01 -.635E+03 -.121E+03   0.339E+01 0.363E+02 0.129E+02   0.222E-01 0.184E-01 0.515E-02
   -.216E+03 0.135E+03 -.307E+03   0.231E+03 -.143E+03 0.329E+03   -.161E+02 0.662E+01 -.173E+02   0.269E-02 -.278E-02 0.442E-01
   0.197E+03 0.421E+03 -.348E+03   -.198E+03 -.453E+03 0.368E+03   0.452E+00 0.226E+02 -.158E+02   0.563E-02 -.405E-02 -.139E-02
   0.148E+03 -.321E+03 0.344E+03   -.158E+03 0.348E+03 -.373E+03   0.111E+02 -.199E+02 0.233E+02   -.102E-01 0.217E-02 0.631E-02
   -.218E+03 0.811E+02 0.283E+03   0.237E+03 -.863E+02 -.292E+03   -.199E+02 0.538E+01 0.870E+01   -.422E-01 0.912E-02 -.223E-01
   -.338E+03 -.263E+03 -.177E+03   0.350E+03 0.292E+03 0.190E+03   -.967E+01 -.226E+02 -.115E+02   0.412E-01 -.679E-03 0.988E-02
   -.308E+02 -.377E+03 -.131E+03   0.317E+02 0.407E+03 0.140E+03   -.465E+00 -.266E+02 -.967E+01   0.316E-01 0.123E-01 -.220E-01
   -.187E+03 -.512E+03 0.143E+03   0.198E+03 0.563E+03 -.154E+03   -.976E+01 -.307E+02 0.884E+01   -.346E-02 0.523E-01 -.114E-01
   0.810E+02 0.286E+02 0.153E+03   -.876E+02 -.319E+02 -.161E+03   0.832E+01 0.452E+01 0.998E+01   0.101E-01 -.214E-02 -.913E-02
   -.250E+03 0.132E+03 -.396E+01   0.268E+03 -.145E+03 0.253E+01   -.185E+02 0.149E+02 0.127E+01   -.756E-02 -.125E-01 -.778E-02
   0.616E+03 -.685E+02 0.929E+01   -.746E+03 0.128E+03 -.351E+02   0.340E+02 -.139E+02 -.101E+01   -.142E-01 0.695E-02 -.268E-01
   0.184E+03 -.671E+02 0.301E+03   -.200E+03 0.630E+02 -.315E+03   0.108E+02 0.395E+01 0.753E+01   -.288E-02 0.296E-02 -.424E-01
 -----------------------------------------------------------------------------------------------
   0.158E+02 0.274E+02 0.221E+02   0.938E-12 0.838E-12 -.227E-12   -.157E+02 -.274E+02 -.220E+02   -.109E+00 0.631E-01 -.817E-01
 
 
 POSITION                                       TOTAL-FORCE (eV/Angst)
 -----------------------------------------------------------------------------------
      1.27370      5.00791      0.96367        -1.605775     -0.405913     -3.435546
      3.00285      7.07036      1.47729         6.663018     10.324177    -21.516307
      2.59489      4.47918      3.10747        87.782889    -37.574229     12.274612
      1.03304      6.91781      3.13262        -4.621475      2.581319     -2.802655
      0.72121      1.13308      5.17435        -1.157539     -1.698071     -7.144365
      3.03219      2.78404      5.17326        -0.791295      1.986066      4.116493
      3.22204      0.98240      6.72750        -3.748840     -2.580229      2.719603
      1.05900      2.70586      6.97191        -1.895799     12.426584      4.147960
      5.07568      5.35529      5.37639        -7.507342     -0.222681    -25.774042
      7.06535      7.14936      5.07124         2.013048     -0.440999     -1.967342
      6.76434      4.43138      7.10651         5.156427     45.023789     12.408981
      5.06325      7.00106      6.77050        -2.841001      2.660944      7.451112
      4.76852      0.78529      1.07409         2.197460      0.402433     -0.630439
      6.81542      3.09878      0.86978         4.405636     -2.778543     -1.149220
      6.77148      1.25099      2.83866         7.291389     -8.125255      0.416393
      4.81597      3.16829      2.99798        -0.625512    -18.022274      4.308477
      6.75655      1.25376      0.87348         0.254215     -1.006919      1.056031
      2.65595      6.48552      2.67087        -1.322152     -5.075209     20.353325
      3.07436      1.00203      1.10050        -0.050733     -1.538068     -0.029009
      0.65756      0.98376      3.24945        -1.397784     -0.576642      0.778794
      2.97301      3.15916      3.63046         2.696801    -16.301333     -5.377102
      0.72761      3.28943      0.75192        -0.550530     -0.656178     -0.914997
      5.14810      1.23963      2.84234        -4.948181     -2.938099      0.672966
      1.21194      7.14144      1.12895        -0.006904     -2.128593      0.908643
      6.84259      5.02798      5.51809         4.192534      0.802630     -7.094025
      2.84428      2.91727      7.03656         1.873407     -0.701469     -0.312811
      2.83330      4.61522      4.59102         3.001327      5.340498     14.544627
      1.04880      4.59804      7.03349        -0.720855     -0.744863      1.537924
      3.11422      7.21826      6.97776         2.190446      1.725620     -0.616051
      0.67590      7.03832      4.74476        -1.515219      0.975577      2.605849
      5.34011      4.97869      6.64003        -5.567528     -7.982847     25.619578
      1.00727      3.04378      5.16830         0.161445     -1.233924     -0.006283
      2.63482      1.02574      5.13651         0.419197     -0.476239     -2.861635
      6.84464      6.32591      7.07700         1.107512      3.826102      0.946751
      7.10676      0.95952      4.77968         0.765461     -1.624490      0.305514
      4.76674      0.69928      7.02657         4.056269     -0.993992      1.792741
      6.77435      3.20631      6.89377         1.583021    -48.840958     -7.107264
      4.90991      2.92407      4.61974        -0.632951     -0.496633      4.879400
      1.31233      1.21587      6.73906         0.075616     -9.245473      3.783248
      5.26377      6.90858      5.15877         1.054100      7.150909     -6.248603
      3.08158      4.90874      0.97618        -0.683403      0.160145     -0.101044
      6.68350      2.76320      3.20146         1.839653      6.459111      1.752170
      6.95611      4.69782      0.86435         0.476830      3.503096     -0.782790
      4.96874      4.53571      2.77434         1.316201     20.419146     -2.239136
      7.12927      6.76187      2.69223         1.658805      1.246763      2.178993
      4.76683      7.15528      1.05749        -0.610511      1.913735     -0.169858
      1.64852      4.97209      2.83832       -96.444763     45.700917    -26.795867
      5.35864      2.77200      1.49232        -4.986618     -0.219438     -6.483793
 -----------------------------------------------------------------------------------
    total drift:                               -0.021930     -0.008510     -0.028829


--------------------------------------------------------------------------------------------------------



  FREE ENERGIE OF THE ION-ELECTRON SYSTEM (eV)
  ---------------------------------------------------
  free  energy   TOTEN  =      -215.3130024860 eV

  energy  without entropy=     -215.2634827604  energy(sigma->0) =     -215.28824262
 


--------------------------------------------------------------------------------------------------------


    POTLOK:  cpu time    0.1744: real time    0.1748


--------------------------------------------------------------------------------------------------------


     LOOP+:  cpu time 7146.9072: real time 7164.5101
    4ORBIT:  cpu time    0.0000: real time    0.0000

volume of typ            1:    17.6 %

volume of typ            2:     9.0 %
 
total charge     
 
# of ion       s       p       d       tot
------------------------------------------
    1        0.253   0.263   7.869   8.386
    2        0.400   0.505   7.991   8.895
    3        0.662   1.112   8.463  10.238
    4        0.283   0.338   7.892   8.513
    5        0.276   0.353   7.869   8.499
    6        0.321   0.458   7.918   8.697
    7        0.329   0.425   7.887   8.641
    8        0.326   0.465   7.926   8.716
    9        0.424   0.622   8.177   9.224
   10        0.209   0.221   7.876   8.306
   11        0.506   0.816   8.164   9.486
   12        0.281   0.335   7.934   8.550
   13        0.268   0.307   7.841   8.416
   14        0.343   0.440   7.926   8.709
   15        0.342   0.428   7.906   8.676
   16        0.450   0.701   8.020   9.171
   17        1.284   2.703   0.006   3.993
   18        1.315   2.879   0.035   4.230
   19        1.298   2.652   0.006   3.956
   20        1.299   2.610   0.003   3.913
   21        1.297   2.911   0.031   4.239
   22        1.288   2.659   0.004   3.951
   23        1.292   2.765   0.013   4.071
   24        1.293   2.670   0.006   3.970
   25        1.312   2.716   0.013   4.040
   26        1.292   2.704   0.009   4.004
   27        1.301   2.788   0.019   4.109
   28        1.304   2.608   0.003   3.915
   29        1.300   2.608   0.003   3.911
   30        1.285   2.705   0.009   3.998
   31        1.310   2.921   0.043   4.275
   32        1.298   2.676   0.007   3.982
   33        1.288   2.751   0.013   4.052
   34        1.294   2.693   0.007   3.994
   35        1.292   2.643   0.004   3.938
   36        1.290   2.718   0.010   4.018
   37        1.331   2.880   0.039   4.250
   38        1.300   2.718   0.010   4.028
   39        1.281   2.861   0.022   4.164
   40        1.278   2.846   0.024   4.147
   41        1.302   2.648   0.006   3.955
   42        1.312   2.725   0.015   4.051
   43        1.301   2.689   0.010   4.000
   44        1.314   2.784   0.023   4.121
   45        1.311   2.543   0.001   3.856
   46        1.291   2.661   0.005   3.957
   47        1.356   3.022   0.067   4.445
   48        1.289   2.826   0.018   4.133
--------------------------------------------------
tot          47.27   95.38  128.14  270.79
 
magnetization (x)
 
# of ion       s       p       d       tot
------------------------------------------
    1        0.002  -0.007  -0.329  -0.334
    2       -0.009  -0.003  -0.447  -0.460
    3        0.001   0.002   0.005   0.008
    4        0.001  -0.003   0.328   0.326
    5       -0.003  -0.006  -0.141  -0.150
    6        0.001   0.002  -0.053  -0.050
    7        0.002   0.003   0.237   0.242
    8        0.002  -0.003  -0.254  -0.256
    9       -0.003   0.005   0.012   0.013
   10       -0.004  -0.002   0.063   0.058
   11       -0.005  -0.007   0.290   0.278
   12       -0.002   0.003   0.286   0.287
   13        0.001   0.000   0.101   0.103
   14        0.003  -0.000   0.480   0.483
   15       -0.002  -0.006   0.013   0.005
   16        0.002   0.003   0.450   0.455
   17       -0.000  -0.020   0.000  -0.021
   18       -0.003  -0.107  -0.000  -0.111
   19        0.003   0.190  -0.000   0.193
   20        0.008   0.391  -0.000   0.399
   21        0.001   0.022   0.000   0.023
   22       -0.001  -0.040  -0.000  -0.041
   23        0.000   0.002   0.000   0.002
   24       -0.001  -0.014  -0.000  -0.014
   25        0.014   0.268   0.000   0.282
   26       -0.002  -0.055  -0.000  -0.057
   27       -0.000  -0.009  -0.000  -0.009
   28       -0.004  -0.217   0.000  -0.221
   29        0.002   0.081   0.000   0.083
   30        0.003   0.177  -0.000   0.180
   31        0.004   0.025   0.000   0.029
   32       -0.003  -0.132  -0.000  -0.135
   33       -0.001  -0.035   0.000  -0.036
   34        0.006   0.266  -0.000   0.271
   35        0.003   0.163  -0.000   0.166
   36        0.006   0.251   0.000   0.257
   37        0.003   0.167   0.001   0.171
   38        0.002   0.031   0.000   0.033
   39       -0.000  -0.060   0.000  -0.060
   40        0.000   0.009   0.000   0.009
   41       -0.008  -0.385   0.000  -0.393
   42        0.005   0.201  -0.000   0.206
   43        0.006   0.322  -0.000   0.328
   44        0.006   0.293   0.000   0.299
   45        0.002   0.128  -0.000   0.130
   46       -0.003  -0.147   0.000  -0.150
   47       -0.000  -0.007   0.000  -0.007
   48        0.008   0.208   0.000   0.216
--------------------------------------------------
tot           0.04    1.95    1.04    3.03
 

 total amount of memory used by VASP MPI-rank0   359809. kBytes
=======================================================================

   base      :      30000. kBytes
   nonlr-proj:      25363. kBytes
   fftplans  :       5538. kBytes
   grid      :      31719. kBytes
   one-center:       1492. kBytes
   wavefun   :     265697. kBytes
 
  
  
 General timing and accounting informations for this job:
 ========================================================
  
                  Total CPU time used (sec):     7206.836
                            User time (sec):     7195.744
                          System time (sec):       11.093
                         Elapsed time (sec):     7228.423
  
                   Maximum memory used (kb):      434700.
                   Average memory used (kb):           0.
  
                          Minor page faults:        43814
                          Major page faults:           49
                 Voluntary context switches:         1241
