 vasp.5.4.4.18Apr17-6-g9f103f2a35 (build May 12 2020 04:58:55) complex          
  
 MD_VERSION_INFO: Compiled 2020-05-12T11:58:55-UTC in devlin.sd.materialsdesign.
 com:/home/medea2/data/build/wwolf/vasp-gpu5.4.4/13047/x86_64/src/src/build/std 
 from svn 13047
 
 This VASP executable licensed from Materials Design, Inc.
 
 executed on                        Lin64 date 2023.03.24  19:34:25
 running on   16 total cores
 distrk:  each k-point on   16 cores,    1 groups
 distr:  one band on NCORES_PER_BAND=   1 cores,   16 groups


--------------------------------------------------------------------------------------------------------


 INCAR:
 POTCAR:    PAW_PBE Ni 02Aug2007                  
 POTCAR:    PAW_PBE O 08Apr2002                   

 ----------------------------------------------------------------------------- 
|                                                                             |
|           W    W    AA    RRRRR   N    N  II  N    N   GGGG   !!!           |
|           W    W   A  A   R    R  NN   N  II  NN   N  G    G  !!!           |
|           W    W  A    A  R    R  N N  N  II  N N  N  G       !!!           |
|           W WW W  AAAAAA  RRRRR   N  N N  II  N  N N  G  GGG   !            |
|           WW  WW  A    A  R   R   N   NN  II  N   NN  G    G                |
|           W    W  A    A  R    R  N    N  II  N    N   GGGG   !!!           |
|                                                                             |
|      For optimal performance we recommend to set                            |
|        NCORE= 4 - approx SQRT( number of cores)                             |
|      NCORE specifies how many cores store one orbital (NPAR=cpu/NCORE).     |
|      This setting can  greatly improve the performance of VASP for DFT.     |
|      The default,   NCORE=1            might be grossly inefficient         |
|      on modern multi-core architectures or massively parallel machines.     |
|      Do your own testing !!!!                                               |
|      Unfortunately you need to use the default for GW and RPA calculations. |
|      (for HF NCORE is supported but not extensively tested yet)             |
|                                                                             |
 ----------------------------------------------------------------------------- 

 POTCAR:    PAW_PBE Ni 02Aug2007                  
  local pseudopotential read in
  partial core-charges read in
  partial kinetic energy density read in
  atomic valenz-charges read in
  non local Contribution for L=           2  read in
    real space projection operators read in
  non local Contribution for L=           2  read in
    real space projection operators read in
  non local Contribution for L=           0  read in
    real space projection operators read in
  non local Contribution for L=           0  read in
    real space projection operators read in
  non local Contribution for L=           1  read in
    real space projection operators read in
  non local Contribution for L=           1  read in
    real space projection operators read in
    PAW grid and wavefunctions read in
 
   number of l-projection  operators is LMAX  =           6
   number of lm-projection operators is LMMAX =          18
 
 POTCAR:    PAW_PBE O 08Apr2002                   
  local pseudopotential read in
  partial core-charges read in
  partial kinetic energy density read in
  kinetic energy density of atom read in
  atomic valenz-charges read in
  non local Contribution for L=           0  read in
    real space projection operators read in
  non local Contribution for L=           0  read in
    real space projection operators read in
  non local Contribution for L=           1  read in
    real space projection operators read in
  non local Contribution for L=           1  read in
    real space projection operators read in
    PAW grid and wavefunctions read in
 
   number of l-projection  operators is LMAX  =           4
   number of lm-projection operators is LMMAX =           8
 
 Optimization of the real space projectors (new method)

 maximal supplied QI-value         = 16.25
 optimisation between [QCUT,QGAM] = [ 11.38, 22.75] = [ 36.24,144.96] Ry 
 Optimized for a Real-space Cutoff    1.47 Angstroem

   l    n(q)    QCUT    max X(q) W(low)/X(q) W(high)/X(q)  e(spline) 
   2      9    11.376    60.317    0.17E-03    0.16E-04    0.16E-06
   2      9    11.376    55.921    0.17E-03    0.16E-04    0.17E-06
   0     10    11.376    51.690    0.45E-04    0.60E-04    0.21E-06
   0     10    11.376    30.015    0.37E-04    0.55E-04    0.19E-06
   1     10    11.376    18.849    0.83E-04    0.11E-03    0.92E-07
   1     10    11.376    14.624    0.69E-04    0.92E-04    0.82E-07
 Optimization of the real space projectors (new method)

 maximal supplied QI-value         = 24.76
 optimisation between [QCUT,QGAM] = [ 11.39, 22.77] = [ 36.31,145.25] Ry 
 Optimized for a Real-space Cutoff    1.10 Angstroem

   l    n(q)    QCUT    max X(q) W(low)/X(q) W(high)/X(q)  e(spline) 
   0      7    11.387    20.381    0.22E-03    0.48E-03    0.18E-06
   0      7    11.387    15.268    0.22E-03    0.52E-03    0.19E-06
   1      7    11.387     5.964    0.22E-03    0.73E-03    0.24E-06
   1      7    11.387     5.382    0.19E-03    0.60E-03    0.21E-06

 ----------------------------------------------------------------------------- 
|                                                                             |
|  ADVICE TO THIS USER RUNNING 'VASP/VAMP'   (HEAR YOUR MASTER'S VOICE ...):  |
|                                                                             |
|      You enforced a specific xc-type in the INCAR file,                     |
|      a different type was found on the POTCAR file                          |
|          I HOPE YOU KNOW, WHAT YOU ARE  DOING                               |
|                                                                             |
 ----------------------------------------------------------------------------- 

  PAW_PBE Ni 02Aug2007                  :
 energy of atom  1       EATOM=-1077.6739
 kinetic energy error for atom=    0.0030 (will be added to EATOM!!)
  PAW_PBE O 08Apr2002                   :
 energy of atom  2       EATOM= -432.3788
 kinetic energy error for atom=    0.0224 (will be added to EATOM!!)
 
 
 POSCAR: NiO2_Fd-3m_scale_1_025_disp_0_20_round_2
  positions in direct lattice
  No initial velocities read in
 exchange correlation table for  LEXCH =       14
   RHO(1)=    0.500       N(1)  =     2000
   RHO(2)=  100.500       N(2)  =     4000
 


--------------------------------------------------------------------------------------------------------


 ion  position               nearest neighbor table
   1  0.112  0.602  0.124-  41 1.84  47 1.89  28 1.93  24 1.93  22 1.94  43 2.13   3 2.68   8 2.78
                             2 2.78  11 2.82   4 2.87  14 3.01
   2  0.346  0.848  0.103-  24 1.49  18 1.70  41 1.78  29 1.93  46 2.08   3 2.54   1 2.78   4 2.81
                            13 2.92  12 2.97   7 3.05
   3  0.347  0.655  0.349-  18 1.27  41 1.69  47 2.02  44 2.27  27 2.36   4 2.50  21 2.52   2 2.54
                             1 2.68   9 2.92
   4  0.120  0.861  0.363-  24 1.89  47 1.94  20 1.97  18 2.10  45 2.18  30 2.42   3 2.50   2 2.81
                             1 2.87  10 2.92   5 2.98
   5  0.098  0.099  0.639-  33 1.74  39 1.82  32 1.91  35 1.97  30 2.05  20 2.22   7 2.59  10 2.74
                             6 2.80   4 2.98
   6  0.357  0.323  0.611-  26 1.81  32 1.84  21 1.93  27 2.01  33 2.05  38 2.06   7 2.52   8 2.59
                            16 2.62   5 2.80   9 3.07
   7  0.352  0.105  0.831-  29 1.92  26 1.92  39 1.93  36 1.98  33 2.06  19 2.36   6 2.52   5 2.59
                             8 2.97  12 2.98  13 3.01   2 3.05
   8  0.160  0.414  0.843-  26 1.41  28 1.86  32 2.02  22 2.16  39 2.18  37 2.18   6 2.59   1 2.78
                            11 2.96   7 2.97
   9  0.606  0.605  0.591-  27 1.60  25 1.74  40 1.81  44 1.85  31 1.97  38 2.08  16 2.61  12 2.86
                             3 2.92  10 2.95   6 3.07
  10  0.855  0.869  0.603-  34 1.56  35 1.61  45 2.22  30 2.29  40 2.34   5 2.74  12 2.84   4 2.92
                             9 2.95  11 3.00
  11  0.866  0.627  0.881-  28 1.56  43 1.81  25 2.02  37 2.10  31 2.13  34 2.14  12 2.76   1 2.82
                            14 2.90   8 2.96  10 3.00
  12  0.607  0.843  0.848-  31 1.84  29 1.84  40 1.87  34 1.97  46 2.03  11 2.76  10 2.84  13 2.86
                             9 2.86   2 2.97   7 2.98
  13  0.609  0.093  0.095-  46 1.90  23 2.05  48 2.12  36 2.17  17 2.21  19 2.27  14 2.85  12 2.86
                            15 2.87   2 2.92   7 3.01
  14  0.827  0.366  0.120-  48 1.55  42 1.88  17 2.05  43 2.05  37 2.20  15 2.54  13 2.85  11 2.90
                            16 2.94   1 3.01
  15  0.837  0.161  0.355-  42 1.69  17 1.76  23 1.87  35 2.23  20 2.31  45 2.40  16 2.51  14 2.54
                            13 2.87
  16  0.597  0.349  0.397-  21 1.41  38 1.77  44 1.90  42 1.95  23 2.02  48 2.08  15 2.51   9 2.61
                             6 2.62  14 2.94
  17  0.874  0.121  0.145-  15 1.76  14 2.05  13 2.21
  18  0.366  0.805  0.307-   3 1.27   2 1.70  41 1.95   4 2.10
  19  0.342  0.167  0.114-  13 2.27   7 2.36
  20  0.114  0.103  0.367-   4 1.97   5 2.22  15 2.31
  21  0.424  0.358  0.386-  16 1.41   6 1.93   3 2.52
  22  0.164  0.370  0.105-   1 1.94   8 2.16
  23  0.615  0.106  0.346-  15 1.87  16 2.02  13 2.05
  24  0.167  0.832  0.137-   2 1.49   4 1.89   1 1.93
  25  0.808  0.564  0.648-   9 1.74  11 2.02
  26  0.314  0.338  0.829-   8 1.41   6 1.81   7 1.92
  27  0.416  0.562  0.615-   9 1.60   6 2.01   3 2.36
  28  0.057  0.613  0.894-  11 1.56   8 1.86   1 1.93
  29  0.384  0.874  0.870-  12 1.84   7 1.92   2 1.93
  30  0.130  0.851  0.659-   5 2.05  10 2.29   4 2.42
  31  0.609  0.618  0.832-  12 1.84   9 1.97  11 2.13
  32  0.132  0.330  0.611-   6 1.84   5 1.91   8 2.02
  33  0.303  0.078  0.584-   5 1.74   6 2.05   7 2.06
  34  0.841  0.874  0.795-  10 1.56  12 1.97  11 2.14
  35  0.860  0.066  0.610-  10 1.61   5 1.97  15 2.23
  36  0.583  0.179  0.845-   7 1.98  13 2.17
  37  0.896  0.371  0.858-  11 2.10   8 2.18  14 2.20
  38  0.608  0.350  0.615-  16 1.77   6 2.06   9 2.08
  39  0.121  0.150  0.855-   5 1.82   7 1.93   8 2.18
  40  0.571  0.822  0.622-   9 1.81  12 1.87  10 2.34
  41  0.335  0.634  0.143-   3 1.69   2 1.78   1 1.84  18 1.95
  42  0.831  0.368  0.351-  15 1.69  14 1.88  16 1.95
  43  0.851  0.616  0.102-  11 1.81  14 2.05   1 2.13
  44  0.615  0.579  0.365-   9 1.85  16 1.90   3 2.27
  45  0.854  0.867  0.331-   4 2.18  10 2.22  15 2.40
  46  0.601  0.859  0.097-  13 1.90  12 2.03   2 2.08
  47  0.100  0.623  0.355-   1 1.89   4 1.94   3 2.02
  48  0.640  0.346  0.146-  14 1.55  16 2.08  13 2.12
 
  LATTYP: Found a simple cubic cell.
 ALAT       =     8.1404372500
  
  Lattice vectors:
  
 A1 = (   8.1404372500,   0.0000000000,   0.0000000000)
 A2 = (   0.0000000000,   8.1404372500,   0.0000000000)
 A3 = (   0.0000000000,   0.0000000000,   8.1404372500)


Analysis of symmetry for initial positions (statically):
=====================================================================
 Subroutine PRICEL returns:
 Original cell was already a primitive cell.
 

 Routine SETGRP: Setting up the symmetry group for a 
 simple cubic supercell.


 Subroutine GETGRP returns: Found  1 space group operations
 (whereof  1 operations were pure point group operations)
 out of a pool of 48 trial point group operations.


The static configuration has the point symmetry C_1 .


Analysis of symmetry for dynamics (positions and initial velocities):
=====================================================================
 Subroutine PRICEL returns:
 Original cell was already a primitive cell.
 

 Routine SETGRP: Setting up the symmetry group for a 
 simple cubic supercell.


 Subroutine GETGRP returns: Found  1 space group operations
 (whereof  1 operations were pure point group operations)
 out of a pool of 48 trial point group operations.


The dynamic configuration has the point symmetry C_1 .


Analysis of structural, dynamic, and magnetic symmetry:
=====================================================================
 Subroutine PRICEL returns:
 Original cell was already a primitive cell.
 

 Routine SETGRP: Setting up the symmetry group for a 
 simple cubic supercell.


 Subroutine GETGRP returns: Found  1 space group operations
 (whereof  1 operations were pure point group operations)
 out of a pool of 48 trial point group operations.


The magnetic configuration has the point symmetry C_1 .


 Subroutine INISYM returns: Found  1 space group operations
 (whereof  1 operations are pure point group operations),
 and found     1 'primitive' translations

 
 
 KPOINTS: Automatic mesh                          

Automatic generation of k-mesh.
Space group operators:
 irot       det(A)        alpha          n_x          n_y          n_z        tau_x        tau_y        tau_z
    1     1.000000     0.000001     1.000000     0.000000     0.000000     0.000000     0.000000     0.000000
 
 Subroutine IBZKPT returns following result:
 ===========================================
 
 Found     36 irreducible k-points:
 
 Following reciprocal coordinates:
            Coordinates               Weight
  0.000000  0.000000  0.000000      1.000000
  0.250000  0.000000  0.000000      2.000000
  0.500000  0.000000  0.000000      1.000000
  0.000000  0.250000  0.000000      2.000000
  0.250000  0.250000  0.000000      2.000000
  0.500000  0.250000  0.000000      2.000000
 -0.250000  0.250000  0.000000      2.000000
  0.000000  0.500000  0.000000      1.000000
  0.250000  0.500000  0.000000      2.000000
  0.500000  0.500000  0.000000      1.000000
  0.000000  0.000000  0.250000      2.000000
  0.250000  0.000000  0.250000      2.000000
  0.500000  0.000000  0.250000      2.000000
 -0.250000  0.000000  0.250000      2.000000
  0.000000  0.250000  0.250000      2.000000
  0.250000  0.250000  0.250000      2.000000
  0.500000  0.250000  0.250000      2.000000
 -0.250000  0.250000  0.250000      2.000000
  0.000000  0.500000  0.250000      2.000000
  0.250000  0.500000  0.250000      2.000000
  0.500000  0.500000  0.250000      2.000000
 -0.250000  0.500000  0.250000      2.000000
  0.000000 -0.250000  0.250000      2.000000
  0.250000 -0.250000  0.250000      2.000000
  0.500000 -0.250000  0.250000      2.000000
 -0.250000 -0.250000  0.250000      2.000000
  0.000000  0.000000  0.500000      1.000000
  0.250000  0.000000  0.500000      2.000000
  0.500000  0.000000  0.500000      1.000000
  0.000000  0.250000  0.500000      2.000000
  0.250000  0.250000  0.500000      2.000000
  0.500000  0.250000  0.500000      2.000000
 -0.250000  0.250000  0.500000      2.000000
  0.000000  0.500000  0.500000      1.000000
  0.250000  0.500000  0.500000      2.000000
  0.500000  0.500000  0.500000      1.000000
 
 Following cartesian coordinates:
            Coordinates               Weight
  0.000000  0.000000  0.000000      1.000000
  0.030711  0.000000  0.000000      2.000000
  0.061422  0.000000  0.000000      1.000000
  0.000000  0.030711  0.000000      2.000000
  0.030711  0.030711  0.000000      2.000000
  0.061422  0.030711  0.000000      2.000000
 -0.030711  0.030711  0.000000      2.000000
  0.000000  0.061422  0.000000      1.000000
  0.030711  0.061422  0.000000      2.000000
  0.061422  0.061422  0.000000      1.000000
  0.000000  0.000000  0.030711      2.000000
  0.030711  0.000000  0.030711      2.000000
  0.061422  0.000000  0.030711      2.000000
 -0.030711  0.000000  0.030711      2.000000
  0.000000  0.030711  0.030711      2.000000
  0.030711  0.030711  0.030711      2.000000
  0.061422  0.030711  0.030711      2.000000
 -0.030711  0.030711  0.030711      2.000000
  0.000000  0.061422  0.030711      2.000000
  0.030711  0.061422  0.030711      2.000000
  0.061422  0.061422  0.030711      2.000000
 -0.030711  0.061422  0.030711      2.000000
  0.000000 -0.030711  0.030711      2.000000
  0.030711 -0.030711  0.030711      2.000000
  0.061422 -0.030711  0.030711      2.000000
 -0.030711 -0.030711  0.030711      2.000000
  0.000000  0.000000  0.061422      1.000000
  0.030711  0.000000  0.061422      2.000000
  0.061422  0.000000  0.061422      1.000000
  0.000000  0.030711  0.061422      2.000000
  0.030711  0.030711  0.061422      2.000000
  0.061422  0.030711  0.061422      2.000000
 -0.030711  0.030711  0.061422      2.000000
  0.000000  0.061422  0.061422      1.000000
  0.030711  0.061422  0.061422      2.000000
  0.061422  0.061422  0.061422      1.000000
 


--------------------------------------------------------------------------------------------------------




 Dimension of arrays:
   k-points           NKPTS =     36   k-points in BZ     NKDIM =     36   number of bands    NBANDS=    240
   number of dos      NEDOS =    301   number of ions     NIONS =     48
   non local maximal  LDIM  =      6   non local SUM 2l+1 LMDIM =     18
   total plane-waves  NPLWV = 216000
   max r-space proj   IRMAX =   5425   max aug-charges    IRDMAX=  13177
   dimension x,y,z NGX =    60 NGY =   60 NGZ =   60
   dimension x,y,z NGXF=   120 NGYF=  120 NGZF=  120
   support grid    NGXF=   120 NGYF=  120 NGZF=  120
   ions per type =              16  32
   NGX,Y,Z   is equivalent  to a cutoff of  12.25, 12.25, 12.25 a.u.
   NGXF,Y,Z  is equivalent  to a cutoff of  24.51, 24.51, 24.51 a.u.

 SYSTEM =  unknown system                          
 POSCAR =  NiO2_Fd-3m_scale_1_025_disp_0_20_round_2

 Startparameter for this run:
   NWRITE =      1    write-flag & timer
   PREC   = accura    normal or accurate (medium, high low for compatibility)
   ISTART =      0    job   : 0-new  1-cont  2-samecut
   ICHARG =      2    charge: 1-file 2-atom 10-const
   ISPIN  =      2    spin polarized calculation?
   LNONCOLLINEAR =      F non collinear calculations
   LSORBIT =      F    spin-orbit coupling
   INIWAV =      1    electr: 0-lowe 1-rand  2-diag
   LASPH  =      F    aspherical Exc in radial PAW
   METAGGA=      F    non-selfconsistent MetaGGA calc.

 Electronic Relaxation 1
   ENCUT  =  500.0 eV  36.75 Ry    6.06 a.u.  14.84 14.84 14.84*2*pi/ulx,y,z
   ENINI  =  500.0     initial cutoff
   ENAUG  =  605.4 eV  augmentation charge cutoff
   NELM   =     80;   NELMIN=  2; NELMDL= -5     # of ELM steps 
   EDIFF  = 0.1E-04   stopping-criterion for ELM
   LREAL  =      T    real-space projection
   NLSPLINE    = F    spline interpolate recip. space projectors
   LCOMPAT=      F    compatible to vasp.4.4
   GGA_COMPAT  = T    GGA compatible to vasp.4.4-vasp.4.6
   LMAXPAW     = -100 max onsite density
   LMAXMIX     =    2 max onsite mixed and CHGCAR
   VOSKOWN=      1    Vosko Wilk Nusair interpolation
   ROPT   =   -0.00025  -0.00025
 Ionic relaxation
   EDIFFG = 0.1E-03   stopping-criterion for IOM
   NSW    =      0    number of steps for IOM
   NBLOCK =      1;   KBLOCK =      1    inner block; outer block 
   IBRION =     -1    ionic relax: 0-MD 1-quasi-New 2-CG
   NFREE  =      0    steps in history (QN), initial steepest desc. (CG)
   ISIF   =      2    stress and relaxation
   IWAVPR =     10    prediction:  0-non 1-charg 2-wave 3-comb
   ISYM   =      2    0-nonsym 1-usesym 2-fastsym
   LCORR  =      T    Harris-Foulkes like correction to forces

   POTIM  = 0.5000    time-step for ionic-motion
   TEIN   =    0.0    initial temperature
   TEBEG  =    0.0;   TEEND  =   0.0 temperature during run
   SMASS  =  -3.00    Nose mass-parameter (am)
   estimated Nose-frequenzy (Omega)   =  0.10E-29 period in steps =****** mass=  -0.151E-26a.u.
   SCALEE = 1.0000    scale energy and forces
   NPACO  =    256;   APACO  = 16.0  distance and # of slots for P.C.
   PSTRESS=    0.0 pullay stress

  Mass of Ions in am
   POMASS =  58.69 16.00
  Ionic Valenz
   ZVAL   =  10.00  6.00
  Atomic Wigner-Seitz radii
   RWIGS  =   1.15  0.73
  virtual crystal weights 
   VCA    =   1.00  1.00
   NELECT =     352.0000    total number of electrons
   NUPDOWN=      -1.0000    fix difference up-down

 DOS related values:
   EMIN   =  10.00;   EMAX   =-10.00  energy-range for DOS
   EFERMI =   0.00
   ISMEAR =     0;   SIGMA  =   0.05  broadening in eV -4-tet -1-fermi 0-gaus

 Electronic relaxation 2 (details)
   IALGO  =     38    algorithm
   LDIAG  =      T    sub-space diagonalisation (order eigenvalues)
   LSUBROT=      F    optimize rotation matrix (better conditioning)
   TURBO    =      0    0=normal 1=particle mesh
   IRESTART =      0    0=no restart 2=restart with 2 vectors
   NREBOOT  =      0    no. of reboots
   NMIN     =      0    reboot dimension
   EREF     =   0.00    reference energy to select bands
   IMIX   =      4    mixing-type and parameters
     AMIX     =   0.40;   BMIX     =  1.00
     AMIX_MAG =   1.60;   BMIX_MAG =  1.00
     AMIN     =   0.10
     WC   =   100.;   INIMIX=   1;  MIXPRE=   1;  MAXMIX= -45

 Intra band minimization:
   WEIMIN = 0.0000     energy-eigenvalue tresh-hold
   EBREAK =  0.10E-07  absolut break condition
   DEPER  =   0.30     relativ break condition  

   TIME   =   0.40     timestep for ELM

  volume/ion in A,a.u.               =      11.24        75.84
  Fermi-wavevector in a.u.,A,eV,Ry     =   1.419955  2.683326 27.433058  2.016273
  Thomas-Fermi vector in A             =   2.540921
 
 Write flags
   LWAVE        =      F    write WAVECAR
   LDOWNSAMPLE  =      F    k-point downsampling of WAVECAR
   LCHARG       =      T    write CHGCAR
   LVTOT        =      F    write LOCPOT, total local potential
   LVHAR        =      F    write LOCPOT, Hartree potential only
   LELF         =      F    write electronic localiz. function (ELF)
   LORBIT       =      0    0 simple, 1 ext, 2 COOP (PROOUT), +10 PAW based schemes


 Dipole corrections
   LMONO  =      F    monopole corrections only (constant potential shift)
   LDIPOL =      F    correct potential (dipole corrections)
   IDIPOL =      0    1-x, 2-y, 3-z, 4-all directions 
   EPSILON=  1.0000000 bulk dielectric constant

 Exchange correlation treatment:
   GGA     =    PS    GGA type
   LEXCH   =    14    internal setting for exchange type
   VOSKOWN=      1    Vosko Wilk Nusair interpolation
   LHFCALC =     F    Hartree Fock is set to
   LHFONE  =     F    Hartree Fock one center treatment
   AEXX    =    0.0000 exact exchange contribution

 Linear response parameters
   LEPSILON=     F    determine dielectric tensor
   LRPA    =     F    only Hartree local field effects (RPA)
   LNABLA  =     F    use nabla operator in PAW spheres
   LVEL    =     F    velocity operator in full k-point grid
   LINTERFAST=   F  fast interpolation
   KINTER  =     0    interpolate to denser k-point grid
   CSHIFT  =0.1000    complex shift for real part using Kramers Kronig
   OMEGAMAX=  -1.0    maximum frequency
   DEG_THRESHOLD= 0.2000000E-02 threshold for treating states as degnerate
   RTIME   =   -0.100 relaxation time in fs
  (WPLASMAI=    0.000 imaginary part of plasma frequency in eV, 0.658/RTIME)
   DFIELD  = 0.0000000 0.0000000 0.0000000 field for delta impulse in time
 
 Orbital magnetization related:
   ORBITALMAG=     F  switch on orbital magnetization
   LCHIMAG   =     F  perturbation theory with respect to B field
   DQ        =  0.001000  dq finite difference perturbation B field
   LLRAUG    =     F  two centre corrections for induced B field



--------------------------------------------------------------------------------------------------------


 Static calculation
 charge density and potential will be updated during run
 spin polarized calculation
 Variant of blocked Davidson
 Davidson routine will perform the subspace rotation
 perform sub-space diagonalisation
    after iterative eigenvector-optimisation
 modified Broyden-mixing scheme, WC =      100.0
 initial mixing is a Kerker type mixing with AMIX =  0.4000 and BMIX =      1.0000
 Hartree-type preconditioning will be used
 using additional bands           64
 real space projection scheme for non local part
 use partial core corrections
 calculate Harris-corrections to forces 
   (improved forces if not selfconsistent)
 use gradient corrections 
 use of overlap-Matrix (Vanderbilt PP)
 Gauss-broadening in eV      SIGMA  =   0.05


--------------------------------------------------------------------------------------------------------


  energy-cutoff  :      500.00
  volume of cell :      539.44
      direct lattice vectors                 reciprocal lattice vectors
     8.140437250  0.000000000  0.000000000     0.122843524  0.000000000  0.000000000
     0.000000000  8.140437250  0.000000000     0.000000000  0.122843524  0.000000000
     0.000000000  0.000000000  8.140437250     0.000000000  0.000000000  0.122843524

  length of vectors
     8.140437250  8.140437250  8.140437250     0.122843524  0.122843524  0.122843524


 
 k-points in units of 2pi/SCALE and weight: Automatic mesh                          
   0.00000000  0.00000000  0.00000000       0.016
   0.03071088  0.00000000  0.00000000       0.031
   0.06142176  0.00000000  0.00000000       0.016
   0.00000000  0.03071088  0.00000000       0.031
   0.03071088  0.03071088  0.00000000       0.031
   0.06142176  0.03071088  0.00000000       0.031
  -0.03071088  0.03071088  0.00000000       0.031
   0.00000000  0.06142176  0.00000000       0.016
   0.03071088  0.06142176  0.00000000       0.031
   0.06142176  0.06142176  0.00000000       0.016
   0.00000000  0.00000000  0.03071088       0.031
   0.03071088  0.00000000  0.03071088       0.031
   0.06142176  0.00000000  0.03071088       0.031
  -0.03071088  0.00000000  0.03071088       0.031
   0.00000000  0.03071088  0.03071088       0.031
   0.03071088  0.03071088  0.03071088       0.031
   0.06142176  0.03071088  0.03071088       0.031
  -0.03071088  0.03071088  0.03071088       0.031
   0.00000000  0.06142176  0.03071088       0.031
   0.03071088  0.06142176  0.03071088       0.031
   0.06142176  0.06142176  0.03071088       0.031
  -0.03071088  0.06142176  0.03071088       0.031
   0.00000000 -0.03071088  0.03071088       0.031
   0.03071088 -0.03071088  0.03071088       0.031
   0.06142176 -0.03071088  0.03071088       0.031
  -0.03071088 -0.03071088  0.03071088       0.031
   0.00000000  0.00000000  0.06142176       0.016
   0.03071088  0.00000000  0.06142176       0.031
   0.06142176  0.00000000  0.06142176       0.016
   0.00000000  0.03071088  0.06142176       0.031
   0.03071088  0.03071088  0.06142176       0.031
   0.06142176  0.03071088  0.06142176       0.031
  -0.03071088  0.03071088  0.06142176       0.031
   0.00000000  0.06142176  0.06142176       0.016
   0.03071088  0.06142176  0.06142176       0.031
   0.06142176  0.06142176  0.06142176       0.016
 
 k-points in reciprocal lattice and weights: Automatic mesh                          
   0.00000000  0.00000000  0.00000000       0.016
   0.25000000  0.00000000  0.00000000       0.031
   0.50000000  0.00000000  0.00000000       0.016
   0.00000000  0.25000000  0.00000000       0.031
   0.25000000  0.25000000  0.00000000       0.031
   0.50000000  0.25000000  0.00000000       0.031
  -0.25000000  0.25000000  0.00000000       0.031
   0.00000000  0.50000000  0.00000000       0.016
   0.25000000  0.50000000  0.00000000       0.031
   0.50000000  0.50000000  0.00000000       0.016
   0.00000000  0.00000000  0.25000000       0.031
   0.25000000  0.00000000  0.25000000       0.031
   0.50000000  0.00000000  0.25000000       0.031
  -0.25000000  0.00000000  0.25000000       0.031
   0.00000000  0.25000000  0.25000000       0.031
   0.25000000  0.25000000  0.25000000       0.031
   0.50000000  0.25000000  0.25000000       0.031
  -0.25000000  0.25000000  0.25000000       0.031
   0.00000000  0.50000000  0.25000000       0.031
   0.25000000  0.50000000  0.25000000       0.031
   0.50000000  0.50000000  0.25000000       0.031
  -0.25000000  0.50000000  0.25000000       0.031
   0.00000000 -0.25000000  0.25000000       0.031
   0.25000000 -0.25000000  0.25000000       0.031
   0.50000000 -0.25000000  0.25000000       0.031
  -0.25000000 -0.25000000  0.25000000       0.031
   0.00000000  0.00000000  0.50000000       0.016
   0.25000000  0.00000000  0.50000000       0.031
   0.50000000  0.00000000  0.50000000       0.016
   0.00000000  0.25000000  0.50000000       0.031
   0.25000000  0.25000000  0.50000000       0.031
   0.50000000  0.25000000  0.50000000       0.031
  -0.25000000  0.25000000  0.50000000       0.031
   0.00000000  0.50000000  0.50000000       0.016
   0.25000000  0.50000000  0.50000000       0.031
   0.50000000  0.50000000  0.50000000       0.016
 
 position of ions in fractional coordinates (direct lattice) 
   0.11176117  0.60156566  0.12394354
   0.34641915  0.84828783  0.10320046
   0.34676082  0.65519239  0.34851797
   0.11983728  0.86073268  0.36262566
   0.09780647  0.09937771  0.63922465
   0.35746654  0.32264695  0.61101199
   0.35180210  0.10473922  0.83068419
   0.15965155  0.41443665  0.84296805
   0.60645033  0.60460736  0.59091558
   0.85464056  0.86868913  0.60327425
   0.86636743  0.62662758  0.88069531
   0.60749304  0.84342152  0.84825789
   0.60931987  0.09270581  0.09527974
   0.82724876  0.36620710  0.11976018
   0.83706885  0.16100626  0.35485945
   0.59696518  0.34881215  0.39702468
   0.87420172  0.12051008  0.14531249
   0.36597067  0.80474384  0.30700777
   0.34152161  0.16737312  0.11374595
   0.11440723  0.10273960  0.36701447
   0.42426646  0.35773425  0.38620757
   0.16435915  0.37041275  0.10511108
   0.61455705  0.10597000  0.34618612
   0.16681021  0.83171625  0.13652327
   0.80833998  0.56415297  0.64825143
   0.31441895  0.33809478  0.82906301
   0.41567389  0.56222114  0.61470945
   0.05744846  0.61269993  0.89354544
   0.38414699  0.87412068  0.87020294
   0.12981918  0.85070704  0.65897533
   0.60915818  0.61789443  0.83193987
   0.13212255  0.33028522  0.61115874
   0.30346200  0.07833852  0.58416868
   0.84135744  0.87436766  0.79483110
   0.85975992  0.06614718  0.61034535
   0.58314429  0.17935891  0.84515646
   0.89562604  0.37072639  0.85809657
   0.60845630  0.34981925  0.61451127
   0.12051131  0.15032134  0.85543429
   0.57129452  0.82158835  0.62221172
   0.33482752  0.63397255  0.14263081
   0.83116105  0.36838587  0.35067859
   0.85133650  0.61624003  0.10213480
   0.61463177  0.57903129  0.36522611
   0.85449633  0.86733479  0.33061478
   0.60118325  0.85916553  0.09699807
   0.10030754  0.62291981  0.35474991
   0.64023510  0.34594958  0.14558217
 
 position of ions in cartesian coordinates  (Angst):
   0.90978479  4.89700751  1.00895461
   2.82000335  6.90543385  0.84009687
   2.82278470  5.33355254  2.83708867
   0.97552786  7.00674037  2.95193143
   0.79618743  0.80897801  5.20356815
   2.90993394  2.62648725  4.97390476
   2.86382292  0.85262305  6.76213252
   1.29963342  3.37369554  6.86212851
   4.93677086  4.92176827  4.81031120
   6.95714785  7.07150935  4.91091618
   7.05260970  5.10102249  7.16924491
   4.94525897  6.86581996  6.90519013
   4.96013017  0.75466583  0.77561874
   6.73416662  2.98108592  0.97490023
   6.81410645  1.31066136  2.88871109
   4.85955759  2.83948342  3.23195449
   7.11638425  0.98100474  1.18290721
   2.97916127  6.55096673  2.49917749
   2.78013524  1.36249038  0.92594177
   0.93132488  0.83634527  2.98765826
   3.45371449  2.91211321  3.14389849
   1.33795535  3.01532175  0.85565015
   5.00276310  0.86264214  2.81810639
   1.35790805  6.77053394  1.11135911
   6.58024088  4.59245185  5.27705009
   2.55950773  2.75223934  6.74893541
   3.38376722  4.57672591  5.00400370
   0.46765558  4.98764533  7.27385058
   3.12712447  7.11572454  7.08383243
   1.05678489  6.92512728  5.36434732
   4.95881394  5.02993083  6.77235431
   1.07553533  2.68866611  4.97509937
   2.47031337  0.63770981  4.75538848
   6.84901745  7.11773507  6.47027269
   6.99882168  0.53846697  4.96847802
   4.74704950  1.46005995  6.87994313
   7.29078758  3.01787491  6.98528128
   4.95310033  2.84768165  5.00239043
   0.98101476  1.22368144  6.96360916
   4.65058719  6.68808841  5.06507546
   2.72564242  5.16081376  1.16107716
   6.76601437  2.99882206  2.85467706
   6.93025136  5.01646330  0.83142193
   5.00337136  4.71356788  2.97310023
   6.95597375  7.06048443  2.69134887
   4.89389452  6.99398308  0.78960670
   0.81654724  5.07083963  2.88781938
   5.21179366  2.81618085  1.18510252
 


--------------------------------------------------------------------------------------------------------


 k-point  1 :   0.0000 0.0000 0.0000  plane waves:   13613
 k-point  2 :   0.2500 0.0000 0.0000  plane waves:   13666
 k-point  3 :   0.5000 0.0000 0.0000  plane waves:   13758
 k-point  4 :   0.0000 0.2500 0.0000  plane waves:   13666
 k-point  5 :   0.2500 0.2500 0.0000  plane waves:   13707
 k-point  6 :   0.5000 0.2500 0.0000  plane waves:   13692
 k-point  7 :  -0.2500 0.2500 0.0000  plane waves:   13707
 k-point  8 :   0.0000 0.5000 0.0000  plane waves:   13758
 k-point  9 :   0.2500 0.5000 0.0000  plane waves:   13692
 k-point 10 :   0.5000 0.5000 0.0000  plane waves:   13672
 k-point 11 :   0.0000 0.0000 0.2500  plane waves:   13666
 k-point 12 :   0.2500 0.0000 0.2500  plane waves:   13707
 k-point 13 :   0.5000 0.0000 0.2500  plane waves:   13692
 k-point 14 :  -0.2500 0.0000 0.2500  plane waves:   13707
 k-point 15 :   0.0000 0.2500 0.2500  plane waves:   13707
 k-point 16 :   0.2500 0.2500 0.2500  plane waves:   13679
 k-point 17 :   0.5000 0.2500 0.2500  plane waves:   13684
 k-point 18 :  -0.2500 0.2500 0.2500  plane waves:   13679
 k-point 19 :   0.0000 0.5000 0.2500  plane waves:   13692
 k-point 20 :   0.2500 0.5000 0.2500  plane waves:   13684
 k-point 21 :   0.5000 0.5000 0.2500  plane waves:   13696
 k-point 22 :  -0.2500 0.5000 0.2500  plane waves:   13684
 k-point 23 :   0.0000-0.2500 0.2500  plane waves:   13707
 k-point 24 :   0.2500-0.2500 0.2500  plane waves:   13679
 k-point 25 :   0.5000-0.2500 0.2500  plane waves:   13684
 k-point 26 :  -0.2500-0.2500 0.2500  plane waves:   13679
 k-point 27 :   0.0000 0.0000 0.5000  plane waves:   13758
 k-point 28 :   0.2500 0.0000 0.5000  plane waves:   13692
 k-point 29 :   0.5000 0.0000 0.5000  plane waves:   13672
 k-point 30 :   0.0000 0.2500 0.5000  plane waves:   13692
 k-point 31 :   0.2500 0.2500 0.5000  plane waves:   13684
 k-point 32 :   0.5000 0.2500 0.5000  plane waves:   13696
 k-point 33 :  -0.2500 0.2500 0.5000  plane waves:   13684
 k-point 34 :   0.0000 0.5000 0.5000  plane waves:   13672
 k-point 35 :   0.2500 0.5000 0.5000  plane waves:   13696
 k-point 36 :   0.5000 0.5000 0.5000  plane waves:   13704

 maximum and minimum number of plane-waves per node :     13758    13613

 maximum number of plane-waves:     13758
 maximum index in each direction: 
   IXMAX=   15   IYMAX=   15   IZMAX=   14
   IXMIN=  -15   IYMIN=  -15   IZMIN=  -15

 The following grids will avoid any aliasing or wrap around errors in the Hartre
 e energy
  - symmetry arguments have not been applied
  - exchange correlation energies might require even more grid points
  - we recommend to set PREC=Normal or Accurate and rely on VASP defaults
 WARNING: aliasing errors must be expected set NGX to    64 to avoid them
 WARNING: aliasing errors must be expected set NGY to    64 to avoid them
 NGZ is ok and might be reduce to    60

 serial   3D FFT for wavefunctions
 parallel 3D FFT for charge:
    minimum data exchange during FFTs selected (reduces bandwidth)


 total amount of memory used by VASP MPI-rank0   332631. kBytes
=======================================================================

   base      :      30000. kBytes
   nonlr-proj:      22481. kBytes
   fftplans  :       4751. kBytes
   grid      :      26734. kBytes
   one-center:       1492. kBytes
   wavefun   :     247173. kBytes
 
     INWAV:  cpu time    0.0000: real time    0.0000
 Broyden mixing: mesh for mixing (old mesh)
   NGX = 29   NGY = 29   NGZ = 29
  (NGX  =120   NGY  =120   NGZ  =120)
  gives a total of  24389 points

 initial charge density was supplied:
 charge density of overlapping atoms calculated
 number of electron     352.0000000 magnetization      40.0000000
 keeping initial charge density in first step


--------------------------------------------------------------------------------------------------------


 Maximum index for non-local projection operator         5231
 Maximum index for augmentation-charges          907 (set IRDMAX)


--------------------------------------------------------------------------------------------------------


 First call to EWALD:  gamma=   0.218
 Maximum number of real-space cells 3x 3x 3
 Maximum number of reciprocal cells 3x 3x 3

    FEWALD:  cpu time    0.0023: real time    0.0023


--------------------------------------- Iteration      1(   1)  ---------------------------------------


    POTLOK:  cpu time    0.1501: real time    0.1529
    SETDIJ:  cpu time    0.0164: real time    0.0165
     EDDAV:  cpu time   70.6115: real time   70.7787
    --------------------------------------------
      LOOP:  cpu time   70.7820: real time   70.9823

 eigenvalue-minimisations  : 34560
 total energy-change (2. order) : 0.4439550E+04  (-0.1532825E+05)
 number of electron     352.0000000 magnetization      40.0000000
 augmentation part      352.0000000 magnetization      40.0000000

 Free energy of the ion-electron system (eV)
  ---------------------------------------------------
  alpha Z        PSCENC =      1016.03958320
  Ewald energy   TEWEN  =    -19819.52222871
  -Hartree energ DENC   =    -11778.72288754
  -exchange      EXHF   =         0.00000000
  -V(xc)+E(xc)   XCENC  =      1414.93627108
  PAW double counting   =     26463.90193480   -27579.55909067
  entropy T*S    EENTRO =        -0.00668329
  eigenvalues    EBANDS =      3708.81032104
  atomic energy  EATOM  =     31013.67235384
  Solvation  Ediel_sol  =         0.00000000
  ---------------------------------------------------
  free energy    TOTEN  =      4439.54957374 eV

  energy without entropy =     4439.55625703  energy(sigma->0) =     4439.55291539


--------------------------------------------------------------------------------------------------------




--------------------------------------- Iteration      1(   2)  ---------------------------------------


     EDDAV:  cpu time   72.5665: real time   72.7715
    --------------------------------------------
      LOOP:  cpu time   72.5655: real time   72.7403

 eigenvalue-minimisations  : 35888
 total energy-change (2. order) :-0.3890192E+04  (-0.3488525E+04)
 number of electron     352.0000000 magnetization      40.0000000
 augmentation part      352.0000000 magnetization      40.0000000

 Free energy of the ion-electron system (eV)
  ---------------------------------------------------
  alpha Z        PSCENC =      1016.03958320
  Ewald energy   TEWEN  =    -19819.52222871
  -Hartree energ DENC   =    -11778.72288754
  -exchange      EXHF   =         0.00000000
  -V(xc)+E(xc)   XCENC  =      1414.93627108
  PAW double counting   =     26463.90193480   -27579.55909067
  entropy T*S    EENTRO =        -0.02900423
  eigenvalues    EBANDS =      -181.35948472
  atomic energy  EATOM  =     31013.67235384
  Solvation  Ediel_sol  =         0.00000000
  ---------------------------------------------------
  free energy    TOTEN  =       549.35744704 eV

  energy without entropy =      549.38645127  energy(sigma->0) =      549.37194916


--------------------------------------------------------------------------------------------------------




--------------------------------------- Iteration      1(   3)  ---------------------------------------


     EDDAV:  cpu time   74.4812: real time   74.6579
    --------------------------------------------
      LOOP:  cpu time   74.4813: real time   74.6580

 eigenvalue-minimisations  : 36816
 total energy-change (2. order) :-0.8582261E+03  (-0.7678866E+03)
 number of electron     352.0000000 magnetization      40.0000000
 augmentation part      352.0000000 magnetization      40.0000000

 Free energy of the ion-electron system (eV)
  ---------------------------------------------------
  alpha Z        PSCENC =      1016.03958320
  Ewald energy   TEWEN  =    -19819.52222871
  -Hartree energ DENC   =    -11778.72288754
  -exchange      EXHF   =         0.00000000
  -V(xc)+E(xc)   XCENC  =      1414.93627108
  PAW double counting   =     26463.90193480   -27579.55909067
  entropy T*S    EENTRO =        -0.07026894
  eigenvalues    EBANDS =     -1039.54431167
  atomic energy  EATOM  =     31013.67235384
  Solvation  Ediel_sol  =         0.00000000
  ---------------------------------------------------
  free energy    TOTEN  =      -308.86864462 eV

  energy without entropy =     -308.79837568  energy(sigma->0) =     -308.83351015


--------------------------------------------------------------------------------------------------------




--------------------------------------- Iteration      1(   4)  ---------------------------------------


     EDDAV:  cpu time   77.0151: real time   77.1975
    --------------------------------------------
      LOOP:  cpu time   77.0152: real time   77.1976

 eigenvalue-minimisations  : 38800
 total energy-change (2. order) :-0.7725101E+02  (-0.7539089E+02)
 number of electron     352.0000000 magnetization      40.0000000
 augmentation part      352.0000000 magnetization      40.0000000

 Free energy of the ion-electron system (eV)
  ---------------------------------------------------
  alpha Z        PSCENC =      1016.03958320
  Ewald energy   TEWEN  =    -19819.52222871
  -Hartree energ DENC   =    -11778.72288754
  -exchange      EXHF   =         0.00000000
  -V(xc)+E(xc)   XCENC  =      1414.93627108
  PAW double counting   =     26463.90193480   -27579.55909067
  entropy T*S    EENTRO =        -0.07223677
  eigenvalues    EBANDS =     -1116.79335017
  atomic energy  EATOM  =     31013.67235384
  Solvation  Ediel_sol  =         0.00000000
  ---------------------------------------------------
  free energy    TOTEN  =      -386.11965094 eV

  energy without entropy =     -386.04741417  energy(sigma->0) =     -386.08353256


--------------------------------------------------------------------------------------------------------




--------------------------------------- Iteration      1(   5)  ---------------------------------------


     EDDAV:  cpu time   76.2452: real time   76.4260
    CHARGE:  cpu time    2.6649: real time    2.9596
    MIXING:  cpu time    0.0028: real time    0.0029
    --------------------------------------------
      LOOP:  cpu time   78.9097: real time   79.3851

 eigenvalue-minimisations  : 38528
 total energy-change (2. order) :-0.1914173E+01  (-0.1905331E+01)
 number of electron     351.9999988 magnetization      44.8509275
 augmentation part       99.0779828 magnetization      32.2783980

 Broyden mixing:
  rms(total) = 0.14015E+02    rms(broyden)= 0.14014E+02
  rms(prec ) = 0.17716E+02
  weight for this iteration     100.00

 Free energy of the ion-electron system (eV)
  ---------------------------------------------------
  alpha Z        PSCENC =      1016.03958320
  Ewald energy   TEWEN  =    -19819.52222871
  -Hartree energ DENC   =    -11778.72288754
  -exchange      EXHF   =         0.00000000
  -V(xc)+E(xc)   XCENC  =      1414.93627108
  PAW double counting   =     26463.90193480   -27579.55909067
  entropy T*S    EENTRO =        -0.07230051
  eigenvalues    EBANDS =     -1118.70745920
  atomic energy  EATOM  =     31013.67235384
  Solvation  Ediel_sol  =         0.00000000
  ---------------------------------------------------
  free energy    TOTEN  =      -388.03382372 eV

  energy without entropy =     -387.96152321  energy(sigma->0) =     -387.99767346


--------------------------------------------------------------------------------------------------------




--------------------------------------- Iteration      1(   6)  ---------------------------------------


    POTLOK:  cpu time    0.1219: real time    0.1222
    SETDIJ:  cpu time    0.0160: real time    0.0161
     EDDAV:  cpu time  101.9500: real time  102.1915
    CHARGE:  cpu time    2.7369: real time    2.7434
    MIXING:  cpu time    0.0032: real time    0.0032
    --------------------------------------------
      LOOP:  cpu time  104.8281: real time  105.0765

 eigenvalue-minimisations  : 55088
 total energy-change (2. order) :-0.1721352E+03  (-0.1098143E+03)
 number of electron     351.9999982 magnetization      37.8675631
 augmentation part      139.2480744 magnetization      35.7175787

 Broyden mixing:
  rms(total) = 0.26124E+02    rms(broyden)= 0.26122E+02
  rms(prec ) = 0.29917E+02
  weight for this iteration     100.00

 eigenvalues of (default mixing * dielectric matrix)
  average eigenvalue GAMMA=   0.1990
  0.1990

 Free energy of the ion-electron system (eV)
  ---------------------------------------------------
  alpha Z        PSCENC =      1016.03958320
  Ewald energy   TEWEN  =    -19819.52222871
  -Hartree energ DENC   =    -11115.80367919
  -exchange      EXHF   =         0.00000000
  -V(xc)+E(xc)   XCENC  =      1428.11326148
  PAW double counting   =     29192.63973935   -30104.32595975
  entropy T*S    EENTRO =        -0.03905881
  eigenvalues    EBANDS =     -2170.94303317
  atomic energy  EATOM  =     31013.67235384
  Solvation  Ediel_sol  =         0.00000000
  ---------------------------------------------------
  free energy    TOTEN  =      -560.16902178 eV

  energy without entropy =     -560.12996296  energy(sigma->0) =     -560.14949237


--------------------------------------------------------------------------------------------------------




--------------------------------------- Iteration      1(   7)  ---------------------------------------


    POTLOK:  cpu time    0.1241: real time    0.1244
    SETDIJ:  cpu time    0.0167: real time    0.0167
     EDDAV:  cpu time   86.5734: real time   86.7786
    CHARGE:  cpu time    2.5950: real time    2.6137
    MIXING:  cpu time    0.0030: real time    0.0030
    --------------------------------------------
      LOOP:  cpu time   89.3123: real time   89.5365

 eigenvalue-minimisations  : 45040
 total energy-change (2. order) : 0.2350251E+03  (-0.3398574E+02)
 number of electron     351.9999990 magnetization      30.4017175
 augmentation part      128.6961208 magnetization      26.4003988

 Broyden mixing:
  rms(total) = 0.11400E+02    rms(broyden)= 0.11398E+02
  rms(prec ) = 0.14516E+02
  weight for this iteration     100.00

 eigenvalues of (default mixing * dielectric matrix)
  average eigenvalue GAMMA=   0.5229
  0.5229  0.5229

 Free energy of the ion-electron system (eV)
  ---------------------------------------------------
  alpha Z        PSCENC =      1016.03958320
  Ewald energy   TEWEN  =    -19819.52222871
  -Hartree energ DENC   =    -11383.97363208
  -exchange      EXHF   =         0.00000000
  -V(xc)+E(xc)   XCENC  =      1414.50480564
  PAW double counting   =     30638.07655400   -31690.65475974
  entropy T*S    EENTRO =        -0.04219626
  eigenvalues    EBANDS =     -1513.24435476
  atomic energy  EATOM  =     31013.67235384
  Solvation  Ediel_sol  =         0.00000000
  ---------------------------------------------------
  free energy    TOTEN  =      -325.14387489 eV

  energy without entropy =     -325.10167863  energy(sigma->0) =     -325.12277676


--------------------------------------------------------------------------------------------------------




--------------------------------------- Iteration      1(   8)  ---------------------------------------


    POTLOK:  cpu time    0.1228: real time    0.1231
    SETDIJ:  cpu time    0.0165: real time    0.0165
     EDDAV:  cpu time  103.7102: real time  103.9559
    CHARGE:  cpu time    2.5803: real time    2.5864
    MIXING:  cpu time    0.0030: real time    0.0031
    --------------------------------------------
      LOOP:  cpu time  106.4328: real time  106.6849

 eigenvalue-minimisations  : 56560
 total energy-change (2. order) :-0.2303875E+02  (-0.2873126E+02)
 number of electron     351.9999978 magnetization      26.0010637
 augmentation part      123.5886461 magnetization      21.0646504

 Broyden mixing:
  rms(total) = 0.13043E+02    rms(broyden)= 0.13041E+02
  rms(prec ) = 0.18791E+02
  weight for this iteration     100.00

 eigenvalues of (default mixing * dielectric matrix)
  average eigenvalue GAMMA=   0.4515
  0.5948  0.5948  0.1649

 Free energy of the ion-electron system (eV)
  ---------------------------------------------------
  alpha Z        PSCENC =      1016.03958320
  Ewald energy   TEWEN  =    -19819.52222871
  -Hartree energ DENC   =    -11415.08586048
  -exchange      EXHF   =         0.00000000
  -V(xc)+E(xc)   XCENC  =      1405.11178016
  PAW double counting   =     31484.48927489   -32621.23326886
  entropy T*S    EENTRO =        -0.03934848
  eigenvalues    EBANDS =     -1411.61490952
  atomic energy  EATOM  =     31013.67235384
  Solvation  Ediel_sol  =         0.00000000
  ---------------------------------------------------
  free energy    TOTEN  =      -348.18262397 eV

  energy without entropy =     -348.14327549  energy(sigma->0) =     -348.16294973


--------------------------------------------------------------------------------------------------------




--------------------------------------- Iteration      1(   9)  ---------------------------------------


    POTLOK:  cpu time    0.1215: real time    0.1218
    SETDIJ:  cpu time    0.0162: real time    0.0162
     EDDAV:  cpu time   90.9272: real time   91.1425
    CHARGE:  cpu time    2.7257: real time    2.7322
    MIXING:  cpu time    0.0033: real time    0.0033
    --------------------------------------------
      LOOP:  cpu time   93.7938: real time   94.0160

 eigenvalue-minimisations  : 47232
 total energy-change (2. order) : 0.4952086E+02  (-0.3176523E+02)
 number of electron     351.9999983 magnetization      22.2756041
 augmentation part      108.7860728 magnetization      17.8892238

 Broyden mixing:
  rms(total) = 0.85473E+01    rms(broyden)= 0.85441E+01
  rms(prec ) = 0.12659E+02
  weight for this iteration     100.00

 eigenvalues of (default mixing * dielectric matrix)
  average eigenvalue GAMMA=   0.4314
  0.6330  0.6330  0.2299  0.2299

 Free energy of the ion-electron system (eV)
  ---------------------------------------------------
  alpha Z        PSCENC =      1016.03958320
  Ewald energy   TEWEN  =    -19819.52222871
  -Hartree energ DENC   =    -11517.24628851
  -exchange      EXHF   =         0.00000000
  -V(xc)+E(xc)   XCENC  =      1403.90870093
  PAW double counting   =     32477.74410601   -33658.95015911
  entropy T*S    EENTRO =        -0.05368635
  eigenvalues    EBANDS =     -1214.25414193
  atomic energy  EATOM  =     31013.67235384
  Solvation  Ediel_sol  =         0.00000000
  ---------------------------------------------------
  free energy    TOTEN  =      -298.66176064 eV

  energy without entropy =     -298.60807429  energy(sigma->0) =     -298.63491747


--------------------------------------------------------------------------------------------------------




--------------------------------------- Iteration      1(  10)  ---------------------------------------


    POTLOK:  cpu time    0.1233: real time    0.1236
    SETDIJ:  cpu time    0.0168: real time    0.0168
     EDDAV:  cpu time   88.7998: real time   89.0101
    CHARGE:  cpu time    2.6502: real time    2.7174
    MIXING:  cpu time    0.0033: real time    0.0033
    --------------------------------------------
      LOOP:  cpu time   91.5934: real time   91.8712

 eigenvalue-minimisations  : 46160
 total energy-change (2. order) : 0.1203654E+02  (-0.1875901E+02)
 number of electron     351.9999994 magnetization      17.5952020
 augmentation part      108.4329641 magnetization      13.1421333

 Broyden mixing:
  rms(total) = 0.88431E+01    rms(broyden)= 0.88410E+01
  rms(prec ) = 0.13467E+02
  weight for this iteration     100.00

 eigenvalues of (default mixing * dielectric matrix)
  average eigenvalue GAMMA=   0.4392
  1.0038  0.3548  0.3548  0.3672  0.1152

 Free energy of the ion-electron system (eV)
  ---------------------------------------------------
  alpha Z        PSCENC =      1016.03958320
  Ewald energy   TEWEN  =    -19819.52222871
  -Hartree energ DENC   =    -11481.07519929
  -exchange      EXHF   =         0.00000000
  -V(xc)+E(xc)   XCENC  =      1401.39458313
  PAW double counting   =     33119.96671521   -34305.31662823
  entropy T*S    EENTRO =        -0.05529067
  eigenvalues    EBANDS =     -1231.72910809
  atomic energy  EATOM  =     31013.67235384
  Solvation  Ediel_sol  =         0.00000000
  ---------------------------------------------------
  free energy    TOTEN  =      -286.62521963 eV

  energy without entropy =     -286.56992896  energy(sigma->0) =     -286.59757429


--------------------------------------------------------------------------------------------------------




--------------------------------------- Iteration      1(  11)  ---------------------------------------


    POTLOK:  cpu time    0.1219: real time    0.1222
    SETDIJ:  cpu time    0.0165: real time    0.0166
     EDDAV:  cpu time   93.6068: real time   93.8285
    CHARGE:  cpu time    2.7365: real time    2.7430
    MIXING:  cpu time    0.0035: real time    0.0035
    --------------------------------------------
      LOOP:  cpu time   96.4853: real time   96.7138

 eigenvalue-minimisations  : 49232
 total energy-change (2. order) : 0.1888487E+02  (-0.1270479E+02)
 number of electron     351.9999982 magnetization      14.9840099
 augmentation part      113.0059150 magnetization      11.6649337

 Broyden mixing:
  rms(total) = 0.66259E+01    rms(broyden)= 0.66236E+01
  rms(prec ) = 0.97889E+01
  weight for this iteration     100.00

 eigenvalues of (default mixing * dielectric matrix)
  average eigenvalue GAMMA=   0.4342
  1.1475  0.4389  0.3817  0.3817  0.1554  0.1003

 Free energy of the ion-electron system (eV)
  ---------------------------------------------------
  alpha Z        PSCENC =      1016.03958320
  Ewald energy   TEWEN  =    -19819.52222871
  -Hartree energ DENC   =    -11416.36314939
  -exchange      EXHF   =         0.00000000
  -V(xc)+E(xc)   XCENC  =      1399.00115806
  PAW double counting   =     33892.13018560   -35072.90830444
  entropy T*S    EENTRO =        -0.04916565
  eigenvalues    EBANDS =     -1279.74078090
  atomic energy  EATOM  =     31013.67235384
  Solvation  Ediel_sol  =         0.00000000
  ---------------------------------------------------
  free energy    TOTEN  =      -267.74034839 eV

  energy without entropy =     -267.69118274  energy(sigma->0) =     -267.71576557


--------------------------------------------------------------------------------------------------------




--------------------------------------- Iteration      1(  12)  ---------------------------------------


    POTLOK:  cpu time    0.1244: real time    0.1247
    SETDIJ:  cpu time    0.0166: real time    0.0167
     EDDAV:  cpu time   92.2878: real time   92.5064
    CHARGE:  cpu time    2.6538: real time    2.7523
    MIXING:  cpu time    0.0038: real time    0.0038
    --------------------------------------------
      LOOP:  cpu time   95.0864: real time   95.4039

 eigenvalue-minimisations  : 48960
 total energy-change (2. order) : 0.8496805E+01  (-0.6384167E+01)
 number of electron     351.9999981 magnetization      12.6271096
 augmentation part      116.5015307 magnetization       9.5533663

 Broyden mixing:
  rms(total) = 0.41883E+01    rms(broyden)= 0.41868E+01
  rms(prec ) = 0.61688E+01
  weight for this iteration     100.00

 eigenvalues of (default mixing * dielectric matrix)
  average eigenvalue GAMMA=   0.4508
  1.1320  0.7652  0.4192  0.4192  0.1964  0.1117  0.1117

 Free energy of the ion-electron system (eV)
  ---------------------------------------------------
  alpha Z        PSCENC =      1016.03958320
  Ewald energy   TEWEN  =    -19819.52222871
  -Hartree energ DENC   =    -11394.88081230
  -exchange      EXHF   =         0.00000000
  -V(xc)+E(xc)   XCENC  =      1398.28629897
  PAW double counting   =     34271.22805227   -35450.86267576
  entropy T*S    EENTRO =        -0.04006322
  eigenvalues    EBANDS =     -1293.16405141
  atomic energy  EATOM  =     31013.67235384
  Solvation  Ediel_sol  =         0.00000000
  ---------------------------------------------------
  free energy    TOTEN  =      -259.24354313 eV

  energy without entropy =     -259.20347991  energy(sigma->0) =     -259.22351152


--------------------------------------------------------------------------------------------------------




--------------------------------------- Iteration      1(  13)  ---------------------------------------


    POTLOK:  cpu time    0.1252: real time    0.1255
    SETDIJ:  cpu time    0.0166: real time    0.0167
     EDDAV:  cpu time   93.0365: real time   93.2568
    CHARGE:  cpu time    2.9066: real time    2.9135
    MIXING:  cpu time    0.0037: real time    0.0037
    --------------------------------------------
      LOOP:  cpu time   96.0886: real time   96.3162

 eigenvalue-minimisations  : 49072
 total energy-change (2. order) : 0.4182938E+01  (-0.2072317E+01)
 number of electron     351.9999984 magnetization      10.3469608
 augmentation part      116.8121357 magnetization       7.4093757

 Broyden mixing:
  rms(total) = 0.26959E+01    rms(broyden)= 0.26941E+01
  rms(prec ) = 0.42392E+01
  weight for this iteration     100.00

 eigenvalues of (default mixing * dielectric matrix)
  average eigenvalue GAMMA=   0.4768
  1.1491  1.1491  0.4341  0.4341  0.2449  0.1793  0.1198  0.1041

 Free energy of the ion-electron system (eV)
  ---------------------------------------------------
  alpha Z        PSCENC =      1016.03958320
  Ewald energy   TEWEN  =    -19819.52222871
  -Hartree energ DENC   =    -11394.19593662
  -exchange      EXHF   =         0.00000000
  -V(xc)+E(xc)   XCENC  =      1398.21186070
  PAW double counting   =     34507.97264967   -35687.12042977
  entropy T*S    EENTRO =        -0.04898000
  eigenvalues    EBANDS =     -1290.06947716
  atomic energy  EATOM  =     31013.67235384
  Solvation  Ediel_sol  =         0.00000000
  ---------------------------------------------------
  free energy    TOTEN  =      -255.06060486 eV

  energy without entropy =     -255.01162486  energy(sigma->0) =     -255.03611486


--------------------------------------------------------------------------------------------------------




--------------------------------------- Iteration      1(  14)  ---------------------------------------


    POTLOK:  cpu time    0.1260: real time    0.1263
    SETDIJ:  cpu time    0.0164: real time    0.0165
     EDDAV:  cpu time   96.1647: real time   96.3925
    CHARGE:  cpu time    2.6580: real time    2.6643
    MIXING:  cpu time    0.0041: real time    0.0041
    --------------------------------------------
      LOOP:  cpu time   98.9692: real time   99.2037

 eigenvalue-minimisations  : 51344
 total energy-change (2. order) : 0.1250979E+01  (-0.1868911E+01)
 number of electron     351.9999985 magnetization       8.2951911
 augmentation part      115.4588236 magnetization       6.1750792

 Broyden mixing:
  rms(total) = 0.23752E+01    rms(broyden)= 0.23732E+01
  rms(prec ) = 0.33539E+01
  weight for this iteration     100.00

 eigenvalues of (default mixing * dielectric matrix)
  average eigenvalue GAMMA=   0.4834
  1.2336  1.2336  0.4346  0.4346  0.4445  0.2217  0.1210  0.1210  0.1058

 Free energy of the ion-electron system (eV)
  ---------------------------------------------------
  alpha Z        PSCENC =      1016.03958320
  Ewald energy   TEWEN  =    -19819.52222871
  -Hartree energ DENC   =    -11413.25563009
  -exchange      EXHF   =         0.00000000
  -V(xc)+E(xc)   XCENC  =      1398.66503262
  PAW double counting   =     34666.07627153   -35845.10671938
  entropy T*S    EENTRO =        -0.03968227
  eigenvalues    EBANDS =     -1270.33860646
  atomic energy  EATOM  =     31013.67235384
  Solvation  Ediel_sol  =         0.00000000
  ---------------------------------------------------
  free energy    TOTEN  =      -253.80962575 eV

  energy without entropy =     -253.76994348  energy(sigma->0) =     -253.78978461


--------------------------------------------------------------------------------------------------------




--------------------------------------- Iteration      1(  15)  ---------------------------------------


    POTLOK:  cpu time    0.1253: real time    0.1256
    SETDIJ:  cpu time    0.0166: real time    0.0167
     EDDAV:  cpu time   96.6800: real time   96.9089
    CHARGE:  cpu time    2.8148: real time    2.8215
    MIXING:  cpu time    0.0044: real time    0.0044
    --------------------------------------------
      LOOP:  cpu time   99.6412: real time   99.8771

 eigenvalue-minimisations  : 51376
 total energy-change (2. order) : 0.7042634E+00  (-0.5891357E+00)
 number of electron     351.9999987 magnetization       6.1392447
 augmentation part      116.1599607 magnetization       3.9404917

 Broyden mixing:
  rms(total) = 0.17323E+01    rms(broyden)= 0.17315E+01
  rms(prec ) = 0.23527E+01
  weight for this iteration     100.00

 eigenvalues of (default mixing * dielectric matrix)
  average eigenvalue GAMMA=   0.4889
  1.6656  0.9481  0.6076  0.4363  0.4363  0.2458  0.1932  0.1258  0.1258  0.1042

 Free energy of the ion-electron system (eV)
  ---------------------------------------------------
  alpha Z        PSCENC =      1016.03958320
  Ewald energy   TEWEN  =    -19819.52222871
  -Hartree energ DENC   =    -11411.26109274
  -exchange      EXHF   =         0.00000000
  -V(xc)+E(xc)   XCENC  =      1398.73767882
  PAW double counting   =     34875.87273144   -36054.96847511
  entropy T*S    EENTRO =        -0.04020525
  eigenvalues    EBANDS =     -1271.63570786
  atomic energy  EATOM  =     31013.67235384
  Solvation  Ediel_sol  =         0.00000000
  ---------------------------------------------------
  free energy    TOTEN  =      -253.10536238 eV

  energy without entropy =     -253.06515713  energy(sigma->0) =     -253.08525976


--------------------------------------------------------------------------------------------------------




--------------------------------------- Iteration      1(  16)  ---------------------------------------


    POTLOK:  cpu time    0.1241: real time    0.1244
    SETDIJ:  cpu time    0.0171: real time    0.0171
     EDDAV:  cpu time   92.4679: real time   92.6869
    CHARGE:  cpu time    2.8069: real time    2.8136
    MIXING:  cpu time    0.0041: real time    0.0041
    --------------------------------------------
      LOOP:  cpu time   95.4202: real time   95.6461

 eigenvalue-minimisations  : 48400
 total energy-change (2. order) : 0.3071257E+00  (-0.3248959E+00)
 number of electron     351.9999988 magnetization       5.5285796
 augmentation part      116.6029909 magnetization       3.3557348

 Broyden mixing:
  rms(total) = 0.12569E+01    rms(broyden)= 0.12562E+01
  rms(prec ) = 0.17730E+01
  weight for this iteration     100.00

 eigenvalues of (default mixing * dielectric matrix)
  average eigenvalue GAMMA=   0.4948
  1.7226  0.6995  0.6995  0.6904  0.4448  0.4448  0.2292  0.1641  0.1047  0.1217
  0.1217

 Free energy of the ion-electron system (eV)
  ---------------------------------------------------
  alpha Z        PSCENC =      1016.03958320
  Ewald energy   TEWEN  =    -19819.52222871
  -Hartree energ DENC   =    -11409.79620974
  -exchange      EXHF   =         0.00000000
  -V(xc)+E(xc)   XCENC  =      1398.80245879
  PAW double counting   =     35132.93782480   -36312.49029809
  entropy T*S    EENTRO =        -0.03904105
  eigenvalues    EBANDS =     -1272.40267973
  atomic energy  EATOM  =     31013.67235384
  Solvation  Ediel_sol  =         0.00000000
  ---------------------------------------------------
  free energy    TOTEN  =      -252.79823670 eV

  energy without entropy =     -252.75919565  energy(sigma->0) =     -252.77871617


--------------------------------------------------------------------------------------------------------




--------------------------------------- Iteration      1(  17)  ---------------------------------------


    POTLOK:  cpu time    0.1233: real time    0.1236
    SETDIJ:  cpu time    0.0167: real time    0.0168
     EDDAV:  cpu time   85.9293: real time   86.1330
    CHARGE:  cpu time    2.8186: real time    2.8253
    MIXING:  cpu time    0.0043: real time    0.0043
    --------------------------------------------
      LOOP:  cpu time   88.8923: real time   89.1030

 eigenvalue-minimisations  : 44832
 total energy-change (2. order) : 0.9321213E-01  (-0.2522816E+00)
 number of electron     351.9999986 magnetization       4.4712300
 augmentation part      116.1988577 magnetization       2.4481425

 Broyden mixing:
  rms(total) = 0.12542E+01    rms(broyden)= 0.12537E+01
  rms(prec ) = 0.17235E+01
  weight for this iteration     100.00

 eigenvalues of (default mixing * dielectric matrix)
  average eigenvalue GAMMA=   0.5165
  1.9764  0.8464  0.8464  0.6958  0.4454  0.4454  0.2368  0.2133  0.1042  0.1218
  0.1218  0.1441

 Free energy of the ion-electron system (eV)
  ---------------------------------------------------
  alpha Z        PSCENC =      1016.03958320
  Ewald energy   TEWEN  =    -19819.52222871
  -Hartree energ DENC   =    -11414.27198418
  -exchange      EXHF   =         0.00000000
  -V(xc)+E(xc)   XCENC  =      1398.86420223
  PAW double counting   =     35224.16938306   -36404.61575357
  entropy T*S    EENTRO =        -0.04115922
  eigenvalues    EBANDS =     -1266.99942121
  atomic energy  EATOM  =     31013.67235384
  Solvation  Ediel_sol  =         0.00000000
  ---------------------------------------------------
  free energy    TOTEN  =      -252.70502457 eV

  energy without entropy =     -252.66386535  energy(sigma->0) =     -252.68444496


--------------------------------------------------------------------------------------------------------




--------------------------------------- Iteration      1(  18)  ---------------------------------------


    POTLOK:  cpu time    0.1235: real time    0.1237
    SETDIJ:  cpu time    0.0165: real time    0.0165
     EDDAV:  cpu time   89.9694: real time   90.1833
    CHARGE:  cpu time    2.8178: real time    2.8245
    MIXING:  cpu time    0.0047: real time    0.0047
    --------------------------------------------
      LOOP:  cpu time   92.9318: real time   93.1528

 eigenvalue-minimisations  : 45648
 total energy-change (2. order) : 0.1232282E+00  (-0.1674585E+00)
 number of electron     351.9999988 magnetization       4.2878165
 augmentation part      116.0828465 magnetization       2.0330722

 Broyden mixing:
  rms(total) = 0.90716E+00    rms(broyden)= 0.90640E+00
  rms(prec ) = 0.13220E+01
  weight for this iteration     100.00

 eigenvalues of (default mixing * dielectric matrix)
  average eigenvalue GAMMA=   0.5177
  1.9379  0.9509  0.9509  0.7382  0.4406  0.4406  0.3823  0.2282  0.1806  0.1046
  0.1240  0.1240  0.1272

 Free energy of the ion-electron system (eV)
  ---------------------------------------------------
  alpha Z        PSCENC =      1016.03958320
  Ewald energy   TEWEN  =    -19819.52222871
  -Hartree energ DENC   =    -11417.86007019
  -exchange      EXHF   =         0.00000000
  -V(xc)+E(xc)   XCENC  =      1398.89177450
  PAW double counting   =     35373.02615527   -36554.57226527
  entropy T*S    EENTRO =        -0.03736895
  eigenvalues    EBANDS =     -1262.21973002
  atomic energy  EATOM  =     31013.67235384
  Solvation  Ediel_sol  =         0.00000000
  ---------------------------------------------------
  free energy    TOTEN  =      -252.58179635 eV

  energy without entropy =     -252.54442740  energy(sigma->0) =     -252.56311188


--------------------------------------------------------------------------------------------------------




--------------------------------------- Iteration      1(  19)  ---------------------------------------


    POTLOK:  cpu time    0.1252: real time    0.1255
    SETDIJ:  cpu time    0.0167: real time    0.0167
     EDDAV:  cpu time   89.7893: real time   90.0021
    CHARGE:  cpu time    2.8864: real time    2.8932
    MIXING:  cpu time    0.0050: real time    0.0050
    --------------------------------------------
      LOOP:  cpu time   92.8226: real time   93.0426

 eigenvalue-minimisations  : 46976
 total energy-change (2. order) : 0.1636079E+00  (-0.1206749E+00)
 number of electron     351.9999988 magnetization       3.9103933
 augmentation part      115.9692346 magnetization       2.0513456

 Broyden mixing:
  rms(total) = 0.74118E+00    rms(broyden)= 0.74061E+00
  rms(prec ) = 0.10346E+01
  weight for this iteration     100.00

 eigenvalues of (default mixing * dielectric matrix)
  average eigenvalue GAMMA=   0.5351
  2.1240  1.0305  0.9128  0.9128  0.5493  0.4358  0.4358  0.2341  0.2206  0.1612
  0.1044  0.1219  0.1219  0.1260

 Free energy of the ion-electron system (eV)
  ---------------------------------------------------
  alpha Z        PSCENC =      1016.03958320
  Ewald energy   TEWEN  =    -19819.52222871
  -Hartree energ DENC   =    -11419.34889095
  -exchange      EXHF   =         0.00000000
  -V(xc)+E(xc)   XCENC  =      1398.89450505
  PAW double counting   =     35409.26976605   -36590.49667029
  entropy T*S    EENTRO =        -0.04005608
  eigenvalues    EBANDS =     -1260.88655051
  atomic energy  EATOM  =     31013.67235384
  Solvation  Ediel_sol  =         0.00000000
  ---------------------------------------------------
  free energy    TOTEN  =      -252.41818842 eV

  energy without entropy =     -252.37813233  energy(sigma->0) =     -252.39816037


--------------------------------------------------------------------------------------------------------




--------------------------------------- Iteration      1(  20)  ---------------------------------------


    POTLOK:  cpu time    0.1247: real time    0.1250
    SETDIJ:  cpu time    0.0166: real time    0.0167
     EDDAV:  cpu time   93.0132: real time   93.2423
    CHARGE:  cpu time    2.7988: real time    2.8380
    MIXING:  cpu time    0.0053: real time    0.0053
    --------------------------------------------
      LOOP:  cpu time   95.9587: real time   96.2273

 eigenvalue-minimisations  : 48304
 total energy-change (2. order) :-0.4896629E-02  (-0.1175585E+00)
 number of electron     351.9999989 magnetization       3.8228741
 augmentation part      115.8839505 magnetization       1.5940014

 Broyden mixing:
  rms(total) = 0.65283E+00    rms(broyden)= 0.65217E+00
  rms(prec ) = 0.97656E+00
  weight for this iteration     100.00

 eigenvalues of (default mixing * dielectric matrix)
  average eigenvalue GAMMA=   0.5351
  2.0761  1.3744  0.8343  0.8343  0.7262  0.4379  0.4379  0.2857  0.2304  0.1872
  0.1422  0.1223  0.1223  0.1045  0.1111

 Free energy of the ion-electron system (eV)
  ---------------------------------------------------
  alpha Z        PSCENC =      1016.03958320
  Ewald energy   TEWEN  =    -19819.52222871
  -Hartree energ DENC   =    -11421.33421411
  -exchange      EXHF   =         0.00000000
  -V(xc)+E(xc)   XCENC  =      1398.92306248
  PAW double counting   =     35453.25332212   -36633.93497609
  entropy T*S    EENTRO =        -0.03155377
  eigenvalues    EBANDS =     -1259.48843400
  atomic energy  EATOM  =     31013.67235384
  Solvation  Ediel_sol  =         0.00000000
  ---------------------------------------------------
  free energy    TOTEN  =      -252.42308505 eV

  energy without entropy =     -252.39153128  energy(sigma->0) =     -252.40730816


--------------------------------------------------------------------------------------------------------




--------------------------------------- Iteration      1(  21)  ---------------------------------------


    POTLOK:  cpu time    0.1254: real time    0.1257
    SETDIJ:  cpu time    0.0169: real time    0.0170
     EDDAV:  cpu time   96.6557: real time   96.8850
    CHARGE:  cpu time    2.8168: real time    2.8234
    MIXING:  cpu time    0.0050: real time    0.0050
    --------------------------------------------
      LOOP:  cpu time   99.6198: real time   99.8561

 eigenvalue-minimisations  : 51280
 total energy-change (2. order) : 0.1017676E+00  (-0.5950620E-01)
 number of electron     351.9999988 magnetization       3.7565624
 augmentation part      115.8981708 magnetization       1.6303012

 Broyden mixing:
  rms(total) = 0.40433E+00    rms(broyden)= 0.40389E+00
  rms(prec ) = 0.57158E+00
  weight for this iteration     100.00

 eigenvalues of (default mixing * dielectric matrix)
  average eigenvalue GAMMA=   0.5452
  2.1576  1.6110  0.8589  0.8589  0.7533  0.4397  0.4397  0.4023  0.2220  0.2220
  0.1652  0.1317  0.1229  0.1229  0.1042  0.1107

 Free energy of the ion-electron system (eV)
  ---------------------------------------------------
  alpha Z        PSCENC =      1016.03958320
  Ewald energy   TEWEN  =    -19819.52222871
  -Hartree energ DENC   =    -11422.48352906
  -exchange      EXHF   =         0.00000000
  -V(xc)+E(xc)   XCENC  =      1398.96776465
  PAW double counting   =     35469.95796548   -36649.89932227
  entropy T*S    EENTRO =        -0.03847326
  eigenvalues    EBANDS =     -1259.01543129
  atomic energy  EATOM  =     31013.67235384
  Solvation  Ediel_sol  =         0.00000000
  ---------------------------------------------------
  free energy    TOTEN  =      -252.32131745 eV

  energy without entropy =     -252.28284418  energy(sigma->0) =     -252.30208081


--------------------------------------------------------------------------------------------------------




--------------------------------------- Iteration      1(  22)  ---------------------------------------


    POTLOK:  cpu time    0.1212: real time    0.1215
    SETDIJ:  cpu time    0.0161: real time    0.0161
     EDDAV:  cpu time   94.8176: real time   95.0421
    CHARGE:  cpu time    3.0213: real time    3.0284
    MIXING:  cpu time    0.0054: real time    0.0054
    --------------------------------------------
      LOOP:  cpu time   97.9815: real time   98.2135

 eigenvalue-minimisations  : 49936
 total energy-change (2. order) : 0.9631104E-02  (-0.2278654E-01)
 number of electron     351.9999988 magnetization       3.8202723
 augmentation part      115.9220083 magnetization       1.5626635

 Broyden mixing:
  rms(total) = 0.32478E+00    rms(broyden)= 0.32455E+00
  rms(prec ) = 0.45739E+00
  weight for this iteration     100.00

 eigenvalues of (default mixing * dielectric matrix)
  average eigenvalue GAMMA=   0.5364
  2.1143  1.7523  0.8944  0.8944  0.7308  0.4409  0.4409  0.4469  0.2270  0.2270
  0.1781  0.1781  0.1386  0.1222  0.1222  0.1042  0.1071

 Free energy of the ion-electron system (eV)
  ---------------------------------------------------
  alpha Z        PSCENC =      1016.03958320
  Ewald energy   TEWEN  =    -19819.52222871
  -Hartree energ DENC   =    -11423.49972162
  -exchange      EXHF   =         0.00000000
  -V(xc)+E(xc)   XCENC  =      1399.04167478
  PAW double counting   =     35488.96037220   -36668.08507259
  entropy T*S    EENTRO =        -0.03677863
  eigenvalues    EBANDS =     -1258.88186879
  atomic energy  EATOM  =     31013.67235384
  Solvation  Ediel_sol  =         0.00000000
  ---------------------------------------------------
  free energy    TOTEN  =      -252.31168634 eV

  energy without entropy =     -252.27490771  energy(sigma->0) =     -252.29329703


--------------------------------------------------------------------------------------------------------




--------------------------------------- Iteration      1(  23)  ---------------------------------------


    POTLOK:  cpu time    0.1266: real time    0.1269
    SETDIJ:  cpu time    0.0166: real time    0.0166
     EDDAV:  cpu time   95.0833: real time   95.3084
    CHARGE:  cpu time    2.8128: real time    2.8194
    MIXING:  cpu time    0.0055: real time    0.0055
    --------------------------------------------
      LOOP:  cpu time   98.0447: real time   98.2769

 eigenvalue-minimisations  : 48576
 total energy-change (2. order) : 0.1055671E-01  (-0.1022053E-01)
 number of electron     351.9999989 magnetization       3.9409765
 augmentation part      115.9139401 magnetization       1.6158126

 Broyden mixing:
  rms(total) = 0.25334E+00    rms(broyden)= 0.25320E+00
  rms(prec ) = 0.34115E+00
  weight for this iteration     100.00

 eigenvalues of (default mixing * dielectric matrix)
  average eigenvalue GAMMA=   0.5185
  2.0231  1.8518  0.9059  0.9059  0.7174  0.4420  0.4420  0.4504  0.2332  0.2332
  0.2199  0.1883  0.1452  0.1230  0.1230  0.1041  0.1121  0.1121

 Free energy of the ion-electron system (eV)
  ---------------------------------------------------
  alpha Z        PSCENC =      1016.03958320
  Ewald energy   TEWEN  =    -19819.52222871
  -Hartree energ DENC   =    -11424.70680899
  -exchange      EXHF   =         0.00000000
  -V(xc)+E(xc)   XCENC  =      1399.09676476
  PAW double counting   =     35490.09726079   -36668.94128338
  entropy T*S    EENTRO =        -0.03779705
  eigenvalues    EBANDS =     -1257.99897409
  atomic energy  EATOM  =     31013.67235384
  Solvation  Ediel_sol  =         0.00000000
  ---------------------------------------------------
  free energy    TOTEN  =      -252.30112963 eV

  energy without entropy =     -252.26333259  energy(sigma->0) =     -252.28223111


--------------------------------------------------------------------------------------------------------




--------------------------------------- Iteration      1(  24)  ---------------------------------------


    POTLOK:  cpu time    0.1210: real time    0.1213
    SETDIJ:  cpu time    0.0164: real time    0.0165
     EDDAV:  cpu time   95.6782: real time   95.9048
    CHARGE:  cpu time    2.9986: real time    3.0057
    MIXING:  cpu time    0.0059: real time    0.0059
    --------------------------------------------
      LOOP:  cpu time   98.8201: real time   99.0541

 eigenvalue-minimisations  : 49856
 total energy-change (2. order) : 0.2659062E-02  (-0.4528548E-02)
 number of electron     351.9999989 magnetization       4.0656196
 augmentation part      115.8767518 magnetization       1.7363175

 Broyden mixing:
  rms(total) = 0.21385E+00    rms(broyden)= 0.21377E+00
  rms(prec ) = 0.27744E+00
  weight for this iteration     100.00

 eigenvalues of (default mixing * dielectric matrix)
  average eigenvalue GAMMA=   0.5177
  1.9605  1.9605  0.9168  0.9168  0.6584  0.4484  0.4484  0.4097  0.4097  0.3736
  0.2209  0.2209  0.1652  0.1353  0.1353  0.1221  0.1221  0.1041  0.1069

 Free energy of the ion-electron system (eV)
  ---------------------------------------------------
  alpha Z        PSCENC =      1016.03958320
  Ewald energy   TEWEN  =    -19819.52222871
  -Hartree energ DENC   =    -11425.87079264
  -exchange      EXHF   =         0.00000000
  -V(xc)+E(xc)   XCENC  =      1399.15810715
  PAW double counting   =     35487.72836150   -36666.36724930
  entropy T*S    EENTRO =        -0.03558355
  eigenvalues    EBANDS =     -1257.10102205
  atomic energy  EATOM  =     31013.67235384
  Solvation  Ediel_sol  =         0.00000000
  ---------------------------------------------------
  free energy    TOTEN  =      -252.29847057 eV

  energy without entropy =     -252.26288702  energy(sigma->0) =     -252.28067880


--------------------------------------------------------------------------------------------------------




--------------------------------------- Iteration      1(  25)  ---------------------------------------


    POTLOK:  cpu time    0.1297: real time    0.1300
[...]
  0.000   0.000  -0.000  -0.000  -0.000  -0.000  -0.000   0.000   0.000  -0.000  -0.000   0.000   0.000   0.000  -0.000  -0.000


------------------------ aborting loop because EDIFF is reached ----------------------------------------


    CHARGE:  cpu time    2.3781: real time    2.3837
    FORLOC:  cpu time    0.0234: real time    0.0248
    FORNL :  cpu time   16.8881: real time   16.9282
    STRESS:  cpu time   50.9377: real time   51.0593
    FORCOR:  cpu time    0.1269: real time    0.1272
    FORHAR:  cpu time    0.0330: real time    0.0331
    MIXING:  cpu time    0.0119: real time    0.0119
    OFIELD:  cpu time    0.0000: real time    0.0000

  FORCE on cell =-STRESS in cart. coord.  units (eV):
  Direction    XX          YY          ZZ          XY          YZ          ZX
  --------------------------------------------------------------------------------------
  Alpha Z  1016.03958  1016.03958  1016.03958
  Ewald   -6350.82560 -6784.02203 -6684.78750   -44.06966   277.32039  -132.31571
  Hartree  3867.74006  3725.56670  3836.96606     1.86265   245.92823   -20.48785
  E(xc)   -1790.73972 -1789.70109 -1789.14374     0.02225     0.14630     0.14816
  Local   -4286.05181 -3737.01665 -3995.92431    36.41899  -530.15084   129.98023
  n-local  -738.25438  -759.35599  -778.72903    -3.05737    -3.86196    -4.53084
  augment  2976.18729  2994.38639  3009.84948     0.80820     3.62009    11.19999
  Kinetic  5374.87428  5364.73732  5380.60430     5.24553    -7.11673    10.01878
  Fock        0.00000     0.00000     0.00000     0.00000     0.00000     0.00000
  -------------------------------------------------------------------------------------
  Total       68.9697188     30.6342486     -5.1251620     -2.7693989    -14.1145186     -5.9872329
  in kB      204.8452222     90.9860092    -15.2221144     -8.2253219    -41.9211756    -17.7825294
  external PRESSURE =      93.5363723 kB  Pullay stress =       0.0000000 kB


 VOLUME and BASIS-vectors are now :
 -----------------------------------------------------------------------------
  energy-cutoff  :      500.00
  volume of cell :      539.44
      direct lattice vectors                 reciprocal lattice vectors
     8.140437250  0.000000000  0.000000000     0.122843524  0.000000000  0.000000000
     0.000000000  8.140437250  0.000000000     0.000000000  0.122843524  0.000000000
     0.000000000  0.000000000  8.140437250     0.000000000  0.000000000  0.122843524

  length of vectors
     8.140437250  8.140437250  8.140437250     0.122843524  0.122843524  0.122843524


 FORCES acting on ions
    electron-ion (+dipol)            ewald-force                    non-local-force                 convergence-correction
 -----------------------------------------------------------------------------------------------
   0.170E+03 0.117E+03 0.626E+00   -.173E+03 -.119E+03 0.588E+00   0.517E+00 0.250E+01 -.834E+00   -.651E-02 -.298E-01 -.118E-01
   -.166E+03 -.286E+03 0.239E+03   0.181E+03 0.292E+03 -.251E+03   -.211E+01 -.141E+01 0.543E+01   0.200E-01 0.831E-02 -.106E-01
   -.504E+02 0.360E+03 -.377E+03   0.478E+02 -.407E+03 0.394E+03   -.118E+01 0.524E+01 -.158E+01   0.199E-01 -.191E-01 0.148E-01
   0.150E+03 -.124E+03 -.160E+03   -.157E+03 0.127E+03 0.159E+03   0.472E+01 -.265E+01 0.468E+00   0.730E-02 0.883E-02 0.269E-01
   0.236E+03 0.619E+02 0.272E+02   -.239E+03 -.627E+02 -.278E+02   0.118E+01 0.383E-01 -.129E+01   -.827E-02 -.100E-01 -.495E-03
   -.158E+02 0.102E+02 0.137E+03   0.165E+02 -.887E+01 -.141E+03   0.115E+01 -.929E-01 0.217E+01   0.492E-02 0.575E-02 -.367E-02
   -.986E+02 0.158E+03 -.121E+03   0.101E+03 -.161E+03 0.124E+03   -.177E+01 0.306E+01 -.112E+01   0.539E-02 0.237E-02 0.780E-02
   0.164E+03 -.244E+03 -.222E+02   -.186E+03 0.251E+03 0.264E+02   0.499E+01 -.902E+00 -.113E+01   -.775E-02 0.127E-02 0.787E-02
   -.123E+03 -.118E+03 0.568E+02   0.128E+03 0.119E+03 -.562E+02   -.102E+01 -.227E+01 0.182E+01   0.219E-02 -.347E-03 -.655E-02
   -.162E+02 0.187E+03 0.247E+03   0.169E+02 -.189E+03 -.255E+03   -.433E+00 -.297E+01 0.716E+00   0.938E-03 0.248E-03 0.261E-01
   0.108E+03 -.962E+02 0.117E+02   -.117E+03 0.947E+02 -.139E+02   -.743E-01 -.548E-01 -.125E+01   0.209E-02 -.559E-02 -.701E-02
   -.560E+02 -.160E+03 -.107E+03   0.539E+02 0.157E+03 0.107E+03   0.139E+01 0.303E+01 -.249E+00   0.688E-02 0.182E-03 -.105E-01
   -.341E+02 0.273E+02 0.984E+02   0.333E+02 -.276E+02 -.972E+02   0.472E+00 0.242E+01 -.785E-01   -.793E-02 0.152E-01 -.712E-02
   -.223E+03 -.397E+02 0.215E+03   0.230E+03 0.421E+02 -.219E+03   0.168E+01 -.907E+00 0.111E+01   -.172E-02 0.146E-02 -.338E-02
   -.215E+03 0.167E+03 -.173E+03   0.217E+03 -.175E+03 0.174E+03   0.662E-02 0.930E-01 0.128E+01   0.441E-02 0.199E-01 0.416E-02
   -.136E+03 0.117E+03 0.618E+02   0.157E+03 -.118E+03 -.638E+02   -.242E+01 0.338E+00 -.122E+01   0.296E-02 0.132E-01 -.347E-02
   -.203E+03 0.194E+03 0.250E+03   0.217E+03 -.208E+03 -.266E+03   -.161E+02 0.157E+02 0.152E+02   0.407E-02 0.136E-01 -.276E-02
   -.244E+03 -.426E+03 -.193E+03   0.267E+03 0.496E+03 0.196E+03   -.163E+02 -.290E+02 -.775E+01   0.159E-01 -.758E-02 0.179E-01
   0.941E+02 -.537E+02 -.118E+03   -.999E+02 0.591E+02 0.124E+03   0.746E+01 -.740E+01 -.739E+01   -.361E-02 0.135E-01 0.425E-02
   -.723E+02 -.151E+03 0.160E+03   0.801E+02 0.165E+03 -.168E+03   -.910E+01 -.153E+02 0.943E+01   0.247E-02 0.154E-01 -.237E-02
   0.394E+03 0.793E+02 0.224E+03   -.438E+03 -.788E+02 -.241E+03   0.255E+02 0.358E-01 0.165E+02   -.763E-03 0.208E-02 -.109E-01
   -.415E+02 0.193E+03 -.154E+03   0.455E+02 -.208E+03 0.161E+03   -.529E+01 0.158E+02 -.803E+01   0.312E-02 -.129E-01 -.323E-03
   0.177E+03 0.250E+03 -.116E+03   -.191E+03 -.266E+03 0.125E+03   0.148E+02 0.170E+02 -.998E+01   -.141E-02 0.707E-02 0.314E-02
   0.359E+03 -.242E+03 0.185E+03   -.395E+03 0.252E+03 -.194E+03   0.217E+02 -.932E+01 0.106E+02   -.118E-01 0.513E-02 -.112E-01
   -.278E+03 0.114E+03 0.119E+03   0.295E+03 -.128E+03 -.125E+03   -.144E+02 0.160E+02 0.591E+01   0.119E-02 -.162E-03 0.213E-02
   -.297E+03 -.964E+02 -.213E+03   0.337E+03 0.895E+02 0.228E+03   -.231E+02 -.532E+00 -.165E+02   0.110E-03 0.711E-02 0.122E-01
   0.312E+03 -.137E+03 -.132E+03   -.337E+03 0.143E+03 0.142E+03   0.183E+02 -.707E+01 -.114E+02   0.230E-02 0.591E-02 -.103E-02
   -.196E+03 -.180E+03 0.152E+03   0.219E+03 0.194E+03 -.162E+03   -.151E+02 -.141E+02 0.101E+02   -.597E-02 -.370E-02 -.106E-01
   0.163E+03 0.122E+03 0.120E+03   -.177E+03 -.134E+03 -.132E+03   0.133E+02 0.128E+02 0.134E+02   0.133E-02 -.570E-02 -.142E-01
   -.863E+02 0.205E+03 -.848E+02   0.940E+02 -.216E+03 0.927E+02   -.958E+01 0.132E+02 -.102E+02   -.384E-02 -.439E-02 0.582E-02
   0.131E+03 0.194E+03 -.233E+03   -.140E+03 -.212E+03 0.242E+03   0.109E+02 0.188E+02 -.910E+01   0.355E-02 -.344E-02 -.171E-02
   0.259E+03 -.205E+03 0.229E+03   -.276E+03 0.217E+03 -.244E+03   0.173E+02 -.116E+02 0.149E+02   -.924E-02 0.461E-02 -.115E-02
   -.214E+03 0.190E+03 0.208E+03   0.230E+03 -.204E+03 -.224E+03   -.135E+02 0.157E+02 0.186E+02   0.701E-03 -.788E-02 -.636E-02
   -.132E+03 -.155E+03 -.287E+03   0.142E+03 0.168E+03 0.316E+03   -.115E+02 -.154E+02 -.204E+02   0.351E-02 -.877E-03 -.115E-01
   0.141E+03 -.242E+03 -.884E+02   -.154E+03 0.267E+03 0.969E+02   0.140E+02 -.197E+02 -.961E+01   -.315E-02 -.593E-02 0.464E-02
   -.206E+03 -.677E+02 0.398E+02   0.218E+03 0.774E+02 -.466E+02   -.126E+02 -.125E+02 0.848E+01   0.956E-02 0.680E-02 -.984E-03
   0.119E+03 0.200E+03 0.929E+02   -.124E+03 -.210E+03 -.103E+03   0.513E+01 0.113E+02 0.127E+02   -.196E-02 0.749E-03 0.120E-02
   -.199E+03 0.181E+03 -.254E+03   0.212E+03 -.187E+03 0.275E+03   -.142E+02 0.652E+01 -.208E+02   0.808E-02 0.641E-03 0.325E-02
   0.248E+03 0.140E+03 -.279E+03   -.261E+03 -.139E+03 0.299E+03   0.136E+02 -.245E+01 -.204E+02   -.830E-02 0.517E-02 0.739E-02
   0.126E+03 -.239E+03 0.185E+03   -.138E+03 0.256E+03 -.198E+03   0.130E+02 -.164E+02 0.127E+02   0.306E-02 0.199E-03 0.411E-03
   -.220E+03 0.302E+03 0.258E+03   0.236E+03 -.325E+03 -.280E+03   -.155E+02 0.181E+02 0.171E+02   0.113E-01 -.218E-01 0.180E-02
   -.270E+03 -.236E+03 -.166E+03   0.283E+03 0.260E+03 0.179E+03   -.130E+02 -.233E+02 -.132E+02   -.140E-02 -.878E-03 -.225E-02
   0.142E+03 -.157E+03 -.190E+03   -.152E+03 0.170E+03 0.209E+03   0.123E+02 -.141E+02 -.185E+02   -.775E-02 -.105E-01 -.570E-02
   -.154E+03 -.222E+03 0.231E+03   0.163E+03 0.234E+03 -.250E+03   -.903E+01 -.112E+02 0.204E+02   -.260E-02 -.478E-02 -.622E-03
   0.108E+03 0.103E+03 0.113E+03   -.116E+03 -.108E+03 -.124E+03   0.101E+02 0.640E+01 0.140E+02   -.891E-02 0.655E-03 0.633E-02
   -.185E+03 0.122E+03 -.133E+03   0.196E+03 -.136E+03 0.146E+03   -.121E+02 0.160E+02 -.152E+02   0.526E-02 -.407E-02 -.426E-02
   0.219E+03 0.206E+03 -.256E+03   -.234E+03 -.220E+03 0.271E+03   0.155E+02 0.152E+02 -.157E+02   -.369E-03 -.151E-01 0.105E-01
   0.282E+03 -.112E+03 0.199E+03   -.313E+03 0.120E+03 -.204E+03   0.238E+02 -.948E+01 0.534E+01   0.104E-02 0.468E-02 -.180E-02
 -----------------------------------------------------------------------------------------------
   -.335E+02 0.149E+02 0.452E+01   0.796E-12 -.739E-12 -.853E-13   0.335E+02 -.149E+02 -.453E+01   0.503E-01 -.468E-02 0.143E-01
 
 
 POSITION                                       TOTAL-FORCE (eV/Angst)
 -----------------------------------------------------------------------------------
      0.90978      4.89701      1.00895        -1.965564     -0.356211      0.368031
      2.82000      6.90543      0.84010        13.082370      4.467330     -6.194052
      2.82278      5.33355      2.83709        -3.844076    -41.612331     15.411497
      0.97553      7.00674      2.95193        -2.263802      0.746722      0.313871
      0.79619      0.80898      5.20357        -1.658564     -0.763036     -1.918970
      2.90993      2.62649      4.97390         1.890570      1.199098     -2.005170
      2.86382      0.85262      6.76213         0.754044      0.214640      1.839522
      1.29963      3.37370      6.86213       -17.587493      5.818392      3.045309
      4.93677      4.92177      4.81031         4.160770     -0.847726      2.394264
      6.95715      7.07151      4.91092         0.324425     -5.153014     -7.631319
      7.05261      5.10102      7.16924        -8.817912     -1.560248     -3.470206
      4.94526      6.86582      6.90519        -0.690167      0.595423      0.411289
      4.96013      0.75467      0.77562        -0.378674      2.092384      1.101663
      6.73417      2.98109      0.97490         8.996436      1.505089     -2.431482
      6.81411      1.31066      2.88871         2.409645     -7.360620      1.923411
      4.85956      2.83948      3.23195        18.645476     -0.566321     -3.223490
      7.11638      0.98100      1.18291        -1.933647      1.761930     -1.001947
      2.97916      6.55097      2.49918         6.237615     41.313042     -4.879322
      2.78014      1.36249      0.92594         1.656668     -1.939423     -1.486298
      0.93132      0.83635      2.98766        -1.284323     -1.709724      1.555512
      3.45371      2.91211      3.14390       -19.353660      0.549385     -0.380499
      1.33796      3.01532      0.85565        -1.256518      1.516520     -1.315813
      5.00276      0.86264      2.81811         0.897116      1.038185     -0.846890
      1.35791      6.77053      1.11136       -14.033061      1.071618      0.922933
      6.58024      4.59245      5.27705         2.651019      2.028702     -0.051491
      2.55951      2.75224      6.74894        16.688910     -7.411607     -1.274709
      3.38377      4.57673      5.00400        -6.776422     -0.729338     -0.688169
      0.46766      4.98765      7.27385         7.883323      0.009643      0.618368
      3.12712      7.11572      7.08383        -0.425810      0.800266      0.663842
      1.05678      6.92513      5.36435        -1.908511      1.856427     -2.243819
      4.95881      5.02993      6.77235         1.147762      1.022038      0.563516
      1.07554      2.68867      4.97510        -0.343751      0.292374     -0.026117
      2.47031      0.63771      4.75539         2.387144      1.697318      1.897086
      6.84902      7.11774      6.47027        -1.623478     -2.063251      8.171293
      6.99882      0.53847      4.96848         1.216490      6.008206     -1.113774
      4.74705      1.46006      6.87994        -1.131009     -2.798452      1.619225
      7.29079      3.01787      6.98528        -0.032927      1.446879      2.425858
      4.95310      2.84768      5.00239        -1.220088      0.249238      0.384312
      0.98101      1.22368      6.96361         0.339115     -1.715439     -0.429877
      4.65059      6.68809      5.06508         1.343074      0.700031     -0.304645
      2.72564      5.16081      1.16108         0.491266     -4.955705     -4.648690
      6.76601      2.99882      2.85468         0.118767      1.287230     -0.094824
      6.93025      5.01646      0.83142         1.634574     -1.623791      0.351000
      5.00337      4.71357      2.97310        -0.587900      0.032806      1.278687
      6.95597      7.06048      2.69135         1.970940      1.301777      2.818794
      4.89389      6.99398      0.78961        -1.130485      1.712789     -2.161633
      0.81655      5.07084      2.88782         1.188835      0.834041     -0.413286
      5.21179      2.81618      1.18510        -7.868512     -2.003289      0.157212
 -----------------------------------------------------------------------------------
    total drift:                               -0.009155      0.000611      0.005992


--------------------------------------------------------------------------------------------------------



  FREE ENERGIE OF THE ION-ELECTRON SYSTEM (eV)
  ---------------------------------------------------
  free  energy   TOTEN  =      -252.3189270770 eV

  energy  without entropy=     -252.2811167701  energy(sigma->0) =     -252.30002192
 


--------------------------------------------------------------------------------------------------------


    POTLOK:  cpu time    0.1315: real time    0.1318


--------------------------------------------------------------------------------------------------------


     LOOP+:  cpu time 4520.5560: real time 4532.4918
    4ORBIT:  cpu time    0.0000: real time    0.0000

volume of typ            1:    18.9 %

volume of typ            2:     9.7 %
 
total charge     
 
# of ion       s       p       d       tot
------------------------------------------
    1        0.269   0.337   7.832   8.438
    2        0.356   0.506   7.969   8.831
    3        0.429   0.577   8.171   9.177
    4        0.232   0.248   7.848   8.328
    5        0.282   0.365   7.814   8.461
    6        0.267   0.335   7.865   8.467
    7        0.243   0.284   7.835   8.363
    8        0.340   0.467   7.973   8.780
    9        0.348   0.510   7.823   8.681
   10        0.330   0.385   7.931   8.646
   11        0.304   0.388   7.871   8.564
   12        0.266   0.317   7.827   8.410
   13        0.216   0.218   7.814   8.248
   14        0.302   0.346   7.890   8.538
   15        0.291   0.341   7.860   8.492
   16        0.387   0.562   7.957   8.906
   17        1.304   2.640   0.007   3.951
   18        1.321   2.923   0.046   4.290
   19        1.323   2.524   0.002   3.849
   20        1.305   2.598   0.003   3.906
   21        1.304   2.805   0.023   4.132
   22        1.308   2.594   0.004   3.906
   23        1.295   2.656   0.006   3.958
   24        1.288   2.825   0.020   4.133
   25        1.299   2.669   0.007   3.974
   26        1.302   2.840   0.028   4.170
   27        1.292   2.733   0.011   4.036
   28        1.278   2.803   0.015   4.096
   29        1.283   2.707   0.007   3.997
   30        1.310   2.581   0.003   3.893
   31        1.302   2.655   0.006   3.962
   32        1.291   2.690   0.007   3.988
   33        1.302   2.662   0.008   3.973
   34        1.291   2.747   0.014   4.052
   35        1.289   2.728   0.011   4.028
   36        1.306   2.590   0.003   3.899
   37        1.310   2.587   0.003   3.900
   38        1.307   2.659   0.007   3.974
   39        1.305   2.651   0.007   3.964
   40        1.295   2.679   0.007   3.980
   41        1.294   2.769   0.015   4.078
   42        1.290   2.733   0.011   4.034
   43        1.299   2.650   0.006   3.955
   44        1.301   2.665   0.006   3.972
   45        1.309   2.570   0.002   3.882
   46        1.290   2.664   0.005   3.959
   47        1.292   2.672   0.006   3.971
   48        1.299   2.735   0.014   4.048
--------------------------------------------------
tot          46.45   92.19  126.60  265.24
 
magnetization (x)
 
# of ion       s       p       d       tot
------------------------------------------
    1       -0.000   0.001  -0.002  -0.001
    2       -0.004  -0.004  -0.121  -0.129
    3        0.000   0.007   0.516   0.523
    4       -0.002  -0.003  -0.218  -0.224
    5       -0.002   0.000   0.079   0.077
    6       -0.000   0.001   0.039   0.039
    7       -0.001  -0.000   0.190   0.188
    8       -0.001  -0.002   0.396   0.393
    9       -0.001   0.000   0.039   0.038
   10        0.005   0.006   0.487   0.498
   11       -0.001   0.000   0.008   0.007
   12       -0.000  -0.002  -0.053  -0.055
   13       -0.003  -0.001  -0.202  -0.207
   14       -0.001  -0.002  -0.034  -0.037
   15        0.000  -0.002   0.004   0.003
   16       -0.001   0.001   0.202   0.202
   17       -0.002  -0.101   0.000  -0.103
   18       -0.000   0.084   0.001   0.084
   19        0.008   0.404  -0.000   0.412
   20       -0.002  -0.104   0.000  -0.106
   21        0.004   0.207   0.000   0.211
   22        0.005   0.153   0.000   0.158
   23        0.000   0.031  -0.000   0.031
   24       -0.002  -0.067  -0.000  -0.069
   25        0.000  -0.015   0.000  -0.015
   26        0.002   0.036   0.000   0.039
   27        0.002   0.091  -0.000   0.093
   28        0.002   0.057   0.000   0.060
   29        0.000   0.012  -0.000   0.013
   30        0.005   0.249  -0.000   0.253
   31       -0.001  -0.033   0.000  -0.034
   32        0.001   0.050  -0.000   0.052
   33       -0.001  -0.049   0.000  -0.049
   34        0.000   0.007  -0.000   0.007
   35        0.003   0.172   0.000   0.175
   36        0.003   0.155  -0.000   0.157
   37        0.005   0.249  -0.000   0.254
   38        0.000   0.008   0.000   0.008
   39        0.008   0.367  -0.000   0.375
   40        0.002   0.090  -0.000   0.092
   41       -0.000   0.001  -0.000   0.001
   42       -0.000  -0.011   0.000  -0.011
   43       -0.000   0.010  -0.000   0.010
   44        0.003   0.155  -0.000   0.159
   45        0.001   0.067  -0.000   0.068
   46       -0.000   0.004   0.000   0.003
   47        0.004   0.197  -0.000   0.201
   48       -0.000   0.008  -0.000   0.008
--------------------------------------------------
tot           0.04    2.48    1.33    3.85
 

 total amount of memory used by VASP MPI-rank0   332631. kBytes
=======================================================================

   base      :      30000. kBytes
   nonlr-proj:      22481. kBytes
   fftplans  :       4751. kBytes
   grid      :      26734. kBytes
   one-center:       1492. kBytes
   wavefun   :     247173. kBytes
 
  
  
 General timing and accounting informations for this job:
 ========================================================
  
                  Total CPU time used (sec):     4571.670
                            User time (sec):     4565.009
                          System time (sec):        6.661
                         Elapsed time (sec):     4587.549
  
                   Maximum memory used (kb):      409996.
                   Average memory used (kb):           0.
  
                          Minor page faults:        43640
                          Major page faults:           22
                 Voluntary context switches:         1238
