 vasp.5.4.4.18Apr17-6-g9f103f2a35 (build May 12 2020 04:58:55) complex          
  
 MD_VERSION_INFO: Compiled 2020-05-12T11:58:55-UTC in devlin.sd.materialsdesign.
 com:/home/medea2/data/build/wwolf/vasp-gpu5.4.4/13047/x86_64/src/src/build/std 
 from svn 13047
 
 This VASP executable licensed from Materials Design, Inc.
 
 executed on                        Lin64 date 2023.03.24  20:21:22
 running on   16 total cores
 distrk:  each k-point on   16 cores,    1 groups
 distr:  one band on NCORES_PER_BAND=   1 cores,   16 groups


--------------------------------------------------------------------------------------------------------


 INCAR:
 POTCAR:    PAW_PBE Ni 02Aug2007                  
 POTCAR:    PAW_PBE O 08Apr2002                   

 ----------------------------------------------------------------------------- 
|                                                                             |
|           W    W    AA    RRRRR   N    N  II  N    N   GGGG   !!!           |
|           W    W   A  A   R    R  NN   N  II  NN   N  G    G  !!!           |
|           W    W  A    A  R    R  N N  N  II  N N  N  G       !!!           |
|           W WW W  AAAAAA  RRRRR   N  N N  II  N  N N  G  GGG   !            |
|           WW  WW  A    A  R   R   N   NN  II  N   NN  G    G                |
|           W    W  A    A  R    R  N    N  II  N    N   GGGG   !!!           |
|                                                                             |
|      For optimal performance we recommend to set                            |
|        NCORE= 4 - approx SQRT( number of cores)                             |
|      NCORE specifies how many cores store one orbital (NPAR=cpu/NCORE).     |
|      This setting can  greatly improve the performance of VASP for DFT.     |
|      The default,   NCORE=1            might be grossly inefficient         |
|      on modern multi-core architectures or massively parallel machines.     |
|      Do your own testing !!!!                                               |
|      Unfortunately you need to use the default for GW and RPA calculations. |
|      (for HF NCORE is supported but not extensively tested yet)             |
|                                                                             |
 ----------------------------------------------------------------------------- 

 POTCAR:    PAW_PBE Ni 02Aug2007                  
  local pseudopotential read in
  partial core-charges read in
  partial kinetic energy density read in
  atomic valenz-charges read in
  non local Contribution for L=           2  read in
    real space projection operators read in
  non local Contribution for L=           2  read in
    real space projection operators read in
  non local Contribution for L=           0  read in
    real space projection operators read in
  non local Contribution for L=           0  read in
    real space projection operators read in
  non local Contribution for L=           1  read in
    real space projection operators read in
  non local Contribution for L=           1  read in
    real space projection operators read in
    PAW grid and wavefunctions read in
 
   number of l-projection  operators is LMAX  =           6
   number of lm-projection operators is LMMAX =          18
 
 POTCAR:    PAW_PBE O 08Apr2002                   
  local pseudopotential read in
  partial core-charges read in
  partial kinetic energy density read in
  kinetic energy density of atom read in
  atomic valenz-charges read in
  non local Contribution for L=           0  read in
    real space projection operators read in
  non local Contribution for L=           0  read in
    real space projection operators read in
  non local Contribution for L=           1  read in
    real space projection operators read in
  non local Contribution for L=           1  read in
    real space projection operators read in
    PAW grid and wavefunctions read in
 
   number of l-projection  operators is LMAX  =           4
   number of lm-projection operators is LMMAX =           8
 
 Optimization of the real space projectors (new method)

 maximal supplied QI-value         = 16.25
 optimisation between [QCUT,QGAM] = [ 11.38, 22.75] = [ 36.24,144.96] Ry 
 Optimized for a Real-space Cutoff    1.47 Angstroem

   l    n(q)    QCUT    max X(q) W(low)/X(q) W(high)/X(q)  e(spline) 
   2      9    11.376    60.317    0.17E-03    0.16E-04    0.16E-06
   2      9    11.376    55.921    0.17E-03    0.16E-04    0.17E-06
   0     10    11.376    51.690    0.45E-04    0.60E-04    0.21E-06
   0     10    11.376    30.015    0.37E-04    0.55E-04    0.19E-06
   1     10    11.376    18.849    0.83E-04    0.11E-03    0.92E-07
   1     10    11.376    14.624    0.69E-04    0.92E-04    0.82E-07
 Optimization of the real space projectors (new method)

 maximal supplied QI-value         = 24.76
 optimisation between [QCUT,QGAM] = [ 11.39, 22.77] = [ 36.31,145.25] Ry 
 Optimized for a Real-space Cutoff    1.10 Angstroem

   l    n(q)    QCUT    max X(q) W(low)/X(q) W(high)/X(q)  e(spline) 
   0      7    11.387    20.381    0.22E-03    0.48E-03    0.18E-06
   0      7    11.387    15.268    0.22E-03    0.52E-03    0.19E-06
   1      7    11.387     5.964    0.22E-03    0.73E-03    0.24E-06
   1      7    11.387     5.382    0.19E-03    0.60E-03    0.21E-06

 ----------------------------------------------------------------------------- 
|                                                                             |
|  ADVICE TO THIS USER RUNNING 'VASP/VAMP'   (HEAR YOUR MASTER'S VOICE ...):  |
|                                                                             |
|      You enforced a specific xc-type in the INCAR file,                     |
|      a different type was found on the POTCAR file                          |
|          I HOPE YOU KNOW, WHAT YOU ARE  DOING                               |
|                                                                             |
 ----------------------------------------------------------------------------- 

  PAW_PBE Ni 02Aug2007                  :
 energy of atom  1       EATOM=-1077.6739
 kinetic energy error for atom=    0.0030 (will be added to EATOM!!)
  PAW_PBE O 08Apr2002                   :
 energy of atom  2       EATOM= -432.3788
 kinetic energy error for atom=    0.0224 (will be added to EATOM!!)
 
 
 POSCAR: NiO2_Fd-3m_scale_1_000_disp_0_20_round_2
  positions in direct lattice
  No initial velocities read in
 exchange correlation table for  LEXCH =       14
   RHO(1)=    0.500       N(1)  =     2000
   RHO(2)=  100.500       N(2)  =     4000
 


--------------------------------------------------------------------------------------------------------


 ion  position               nearest neighbor table
   1  0.142  0.626  0.105-  28 1.33  43 1.65  47 1.80  41 1.89  22 2.02  24 2.03  11 2.49   8 2.52
                             3 2.60  14 2.93   2 2.94   4 2.98
   2  0.399  0.893  0.099-  29 1.28  19 1.43  46 1.57  41 1.72  18 2.13  24 2.15  13 2.30   7 2.52
                            12 2.92   1 2.94   4 2.96   3 3.06
   3  0.366  0.596  0.342-  41 1.80  21 1.90  47 1.93  44 1.97  27 2.11  18 2.21  16 2.58   1 2.60
                             4 2.68   6 2.99   2 3.06   9 3.06
   4  0.170  0.866  0.392-  18 1.57  30 1.64  24 1.76  20 2.03  47 2.04  45 2.11  10 2.64   5 2.66
                             3 2.68   2 2.96   1 2.98
   5  0.133  0.127  0.599-  33 1.48  20 1.48  32 1.77  30 1.80  35 2.15  39 2.22   4 2.66  15 2.66
                            10 2.66   7 2.66   6 2.72
   6  0.350  0.386  0.653-  32 1.47  26 1.66  38 1.67  27 1.74  33 1.91  21 2.00   8 2.48   5 2.72
                             9 2.82   7 2.85   3 2.99
   7  0.329  0.101  0.870-  39 1.90  29 2.00  26 2.04  33 2.09  19 2.09  36 2.29   2 2.52   5 2.66
                             8 2.69  13 2.84   6 2.85
   8  0.151  0.389  0.895-  26 1.57  39 1.93  28 1.98  22 2.00  32 2.04   6 2.48   1 2.52   7 2.69
                            11 2.74  14 2.98
   9  0.631  0.601  0.622-  38 1.77  25 1.89  27 1.95  31 1.95  40 2.13  44 2.19  16 2.54  12 2.81
                             6 2.82   3 3.06
  10  0.907  0.879  0.594-  45 1.54  35 1.56  25 1.69  30 1.71  40 2.25  34 2.48   4 2.64   5 2.66
                            15 2.69  12 2.79  11 3.06
  11  0.911  0.637  0.893-  34 1.52  43 1.78  28 1.83  25 2.06  31 2.08  37 2.13   1 2.49  12 2.60
                             8 2.74  14 2.91  10 3.06
  12  0.675  0.861  0.858-  31 1.75  36 1.85  34 1.90  40 2.00  46 2.27  29 2.52  11 2.60  10 2.79
                             9 2.81   2 2.92
  13  0.562  0.129  0.140-  19 1.52  46 1.66  23 1.85  48 2.27  17 2.29   2 2.30  36 2.31   7 2.84
                            16 2.89
  14  0.874  0.375  0.149-  48 1.55  22 1.82  43 1.86  17 2.00  37 2.02  42 2.14  15 2.61  16 2.68
                            11 2.91   1 2.93   8 2.98
  15  0.886  0.135  0.373-  42 1.45  20 1.65  17 1.91  23 1.97  35 2.00  45 2.43  14 2.61   5 2.66
                            10 2.69  16 2.96
  16  0.624  0.401  0.373-  23 1.50  21 1.85  42 1.92  44 1.95  48 2.03  38 2.27   9 2.54   3 2.58
                            14 2.68  13 2.89  15 2.96
  17  0.850  0.125  0.136-  15 1.91  14 2.00  13 2.29
  18  0.366  0.874  0.364-   4 1.57   2 2.13   3 2.21
  19  0.381  0.070  0.126-   2 1.43  13 1.52   7 2.09
  20  0.086  0.107  0.419-   5 1.48  15 1.65   4 2.03
  21  0.396  0.369  0.407-  16 1.85   3 1.90   6 2.00
  22  0.104  0.377  0.142-  14 1.82   8 2.00   1 2.02
  23  0.656  0.219  0.334-  16 1.50  42 1.76  13 1.85  15 1.97
  24  0.139  0.872  0.173-   4 1.76   1 2.03   2 2.15
  25  0.854  0.679  0.644-  10 1.69   9 1.89  11 2.06
  26  0.343  0.357  0.860-   8 1.57   6 1.66   7 2.04
  27  0.387  0.597  0.606-   6 1.74   9 1.95   3 2.11
  28  0.136  0.634  0.938-   1 1.33  11 1.83   8 1.98
  29  0.369  0.864  0.943-   2 1.28   7 2.00  12 2.52
  30  0.121  0.900  0.590-   4 1.64  10 1.71   5 1.80
  31  0.650  0.642  0.862-  12 1.75   9 1.95  11 2.08
  32  0.170  0.341  0.644-   6 1.47   5 1.77  33 1.93   8 2.04
  33  0.317  0.151  0.612-   5 1.48   6 1.91  32 1.93   7 2.09
  34  0.907  0.827  0.902-  11 1.52  12 1.90  10 2.48
  35  0.868  0.071  0.616-  10 1.56  15 2.00   5 2.15
  36  0.617  0.087  0.857-  12 1.85   7 2.29  13 2.31
  37  0.829  0.381  0.898-  14 2.02  11 2.13
  38  0.560  0.393  0.651-   6 1.67   9 1.77  16 2.27
  39  0.095  0.153  0.875-   7 1.90   8 1.93   5 2.22
  40  0.624  0.869  0.611-  12 2.00   9 2.13  10 2.25
  41  0.372  0.680  0.131-   2 1.72   3 1.80   1 1.89
  42  0.845  0.310  0.408-  15 1.45  23 1.76  16 1.92  14 2.14
  43  0.936  0.598  0.113-   1 1.65  11 1.78  14 1.86
  44  0.608  0.645  0.350-  16 1.95   3 1.97   9 2.19
  45  0.906  0.832  0.406-  10 1.54   4 2.11  15 2.43
  46  0.592  0.922  0.125-   2 1.57  13 1.66  12 2.27
  47  0.124  0.621  0.331-   1 1.80   3 1.93   4 2.04
  48  0.682  0.388  0.124-  14 1.55  16 2.03  13 2.27
 
  LATTYP: Found a simple cubic cell.
 ALAT       =     7.9418900000
  
  Lattice vectors:
  
 A1 = (   7.9418900000,   0.0000000000,   0.0000000000)
 A2 = (   0.0000000000,   7.9418900000,   0.0000000000)
 A3 = (   0.0000000000,   0.0000000000,   7.9418900000)


Analysis of symmetry for initial positions (statically):
=====================================================================
 Subroutine PRICEL returns:
 Original cell was already a primitive cell.
 

 Routine SETGRP: Setting up the symmetry group for a 
 simple cubic supercell.


 Subroutine GETGRP returns: Found  1 space group operations
 (whereof  1 operations were pure point group operations)
 out of a pool of 48 trial point group operations.


The static configuration has the point symmetry C_1 .


Analysis of symmetry for dynamics (positions and initial velocities):
=====================================================================
 Subroutine PRICEL returns:
 Original cell was already a primitive cell.
 

 Routine SETGRP: Setting up the symmetry group for a 
 simple cubic supercell.


 Subroutine GETGRP returns: Found  1 space group operations
 (whereof  1 operations were pure point group operations)
 out of a pool of 48 trial point group operations.


The dynamic configuration has the point symmetry C_1 .


Analysis of structural, dynamic, and magnetic symmetry:
=====================================================================
 Subroutine PRICEL returns:
 Original cell was already a primitive cell.
 

 Routine SETGRP: Setting up the symmetry group for a 
 simple cubic supercell.


 Subroutine GETGRP returns: Found  1 space group operations
 (whereof  1 operations were pure point group operations)
 out of a pool of 48 trial point group operations.


The magnetic configuration has the point symmetry C_1 .


 Subroutine INISYM returns: Found  1 space group operations
 (whereof  1 operations are pure point group operations),
 and found     1 'primitive' translations

 
 
 KPOINTS: Automatic mesh                          

Automatic generation of k-mesh.
Space group operators:
 irot       det(A)        alpha          n_x          n_y          n_z        tau_x        tau_y        tau_z
    1     1.000000     0.000001     1.000000     0.000000     0.000000     0.000000     0.000000     0.000000
 
 Subroutine IBZKPT returns following result:
 ===========================================
 
 Found     36 irreducible k-points:
 
 Following reciprocal coordinates:
            Coordinates               Weight
  0.000000  0.000000  0.000000      1.000000
  0.250000  0.000000  0.000000      2.000000
  0.500000  0.000000  0.000000      1.000000
  0.000000  0.250000  0.000000      2.000000
  0.250000  0.250000  0.000000      2.000000
  0.500000  0.250000  0.000000      2.000000
 -0.250000  0.250000  0.000000      2.000000
  0.000000  0.500000  0.000000      1.000000
  0.250000  0.500000  0.000000      2.000000
  0.500000  0.500000  0.000000      1.000000
  0.000000  0.000000  0.250000      2.000000
  0.250000  0.000000  0.250000      2.000000
  0.500000  0.000000  0.250000      2.000000
 -0.250000  0.000000  0.250000      2.000000
  0.000000  0.250000  0.250000      2.000000
  0.250000  0.250000  0.250000      2.000000
  0.500000  0.250000  0.250000      2.000000
 -0.250000  0.250000  0.250000      2.000000
  0.000000  0.500000  0.250000      2.000000
  0.250000  0.500000  0.250000      2.000000
  0.500000  0.500000  0.250000      2.000000
 -0.250000  0.500000  0.250000      2.000000
  0.000000 -0.250000  0.250000      2.000000
  0.250000 -0.250000  0.250000      2.000000
  0.500000 -0.250000  0.250000      2.000000
 -0.250000 -0.250000  0.250000      2.000000
  0.000000  0.000000  0.500000      1.000000
  0.250000  0.000000  0.500000      2.000000
  0.500000  0.000000  0.500000      1.000000
  0.000000  0.250000  0.500000      2.000000
  0.250000  0.250000  0.500000      2.000000
  0.500000  0.250000  0.500000      2.000000
 -0.250000  0.250000  0.500000      2.000000
  0.000000  0.500000  0.500000      1.000000
  0.250000  0.500000  0.500000      2.000000
  0.500000  0.500000  0.500000      1.000000
 
 Following cartesian coordinates:
            Coordinates               Weight
  0.000000  0.000000  0.000000      1.000000
  0.031479  0.000000  0.000000      2.000000
  0.062957  0.000000  0.000000      1.000000
  0.000000  0.031479  0.000000      2.000000
  0.031479  0.031479  0.000000      2.000000
  0.062957  0.031479  0.000000      2.000000
 -0.031479  0.031479  0.000000      2.000000
  0.000000  0.062957  0.000000      1.000000
  0.031479  0.062957  0.000000      2.000000
  0.062957  0.062957  0.000000      1.000000
  0.000000  0.000000  0.031479      2.000000
  0.031479  0.000000  0.031479      2.000000
  0.062957  0.000000  0.031479      2.000000
 -0.031479  0.000000  0.031479      2.000000
  0.000000  0.031479  0.031479      2.000000
  0.031479  0.031479  0.031479      2.000000
  0.062957  0.031479  0.031479      2.000000
 -0.031479  0.031479  0.031479      2.000000
  0.000000  0.062957  0.031479      2.000000
  0.031479  0.062957  0.031479      2.000000
  0.062957  0.062957  0.031479      2.000000
 -0.031479  0.062957  0.031479      2.000000
  0.000000 -0.031479  0.031479      2.000000
  0.031479 -0.031479  0.031479      2.000000
  0.062957 -0.031479  0.031479      2.000000
 -0.031479 -0.031479  0.031479      2.000000
  0.000000  0.000000  0.062957      1.000000
  0.031479  0.000000  0.062957      2.000000
  0.062957  0.000000  0.062957      1.000000
  0.000000  0.031479  0.062957      2.000000
  0.031479  0.031479  0.062957      2.000000
  0.062957  0.031479  0.062957      2.000000
 -0.031479  0.031479  0.062957      2.000000
  0.000000  0.062957  0.062957      1.000000
  0.031479  0.062957  0.062957      2.000000
  0.062957  0.062957  0.062957      1.000000
 


--------------------------------------------------------------------------------------------------------




 Dimension of arrays:
   k-points           NKPTS =     36   k-points in BZ     NKDIM =     36   number of bands    NBANDS=    240
   number of dos      NEDOS =    301   number of ions     NIONS =     48
   non local maximal  LDIM  =      6   non local SUM 2l+1 LMDIM =     18
   total plane-waves  NPLWV = 216000
   max r-space proj   IRMAX =   5839   max aug-charges    IRDMAX=  14175
   dimension x,y,z NGX =    60 NGY =   60 NGZ =   60
   dimension x,y,z NGXF=   120 NGYF=  120 NGZF=  120
   support grid    NGXF=   120 NGYF=  120 NGZF=  120
   ions per type =              16  32
   NGX,Y,Z   is equivalent  to a cutoff of  12.56, 12.56, 12.56 a.u.
   NGXF,Y,Z  is equivalent  to a cutoff of  25.12, 25.12, 25.12 a.u.

 SYSTEM =  unknown system                          
 POSCAR =  NiO2_Fd-3m_scale_1_000_disp_0_20_round_2

 Startparameter for this run:
   NWRITE =      1    write-flag & timer
   PREC   = accura    normal or accurate (medium, high low for compatibility)
   ISTART =      0    job   : 0-new  1-cont  2-samecut
   ICHARG =      2    charge: 1-file 2-atom 10-const
   ISPIN  =      2    spin polarized calculation?
   LNONCOLLINEAR =      F non collinear calculations
   LSORBIT =      F    spin-orbit coupling
   INIWAV =      1    electr: 0-lowe 1-rand  2-diag
   LASPH  =      F    aspherical Exc in radial PAW
   METAGGA=      F    non-selfconsistent MetaGGA calc.

 Electronic Relaxation 1
   ENCUT  =  500.0 eV  36.75 Ry    6.06 a.u.  14.48 14.48 14.48*2*pi/ulx,y,z
   ENINI  =  500.0     initial cutoff
   ENAUG  =  605.4 eV  augmentation charge cutoff
   NELM   =     80;   NELMIN=  2; NELMDL= -5     # of ELM steps 
   EDIFF  = 0.1E-04   stopping-criterion for ELM
   LREAL  =      T    real-space projection
   NLSPLINE    = F    spline interpolate recip. space projectors
   LCOMPAT=      F    compatible to vasp.4.4
   GGA_COMPAT  = T    GGA compatible to vasp.4.4-vasp.4.6
   LMAXPAW     = -100 max onsite density
   LMAXMIX     =    2 max onsite mixed and CHGCAR
   VOSKOWN=      1    Vosko Wilk Nusair interpolation
   ROPT   =   -0.00025  -0.00025
 Ionic relaxation
   EDIFFG = 0.1E-03   stopping-criterion for IOM
   NSW    =      0    number of steps for IOM
   NBLOCK =      1;   KBLOCK =      1    inner block; outer block 
   IBRION =     -1    ionic relax: 0-MD 1-quasi-New 2-CG
   NFREE  =      0    steps in history (QN), initial steepest desc. (CG)
   ISIF   =      2    stress and relaxation
   IWAVPR =     10    prediction:  0-non 1-charg 2-wave 3-comb
   ISYM   =      2    0-nonsym 1-usesym 2-fastsym
   LCORR  =      T    Harris-Foulkes like correction to forces

   POTIM  = 0.5000    time-step for ionic-motion
   TEIN   =    0.0    initial temperature
   TEBEG  =    0.0;   TEEND  =   0.0 temperature during run
   SMASS  =  -3.00    Nose mass-parameter (am)
   estimated Nose-frequenzy (Omega)   =  0.10E-29 period in steps =****** mass=  -0.144E-26a.u.
   SCALEE = 1.0000    scale energy and forces
   NPACO  =    256;   APACO  = 16.0  distance and # of slots for P.C.
   PSTRESS=    0.0 pullay stress

  Mass of Ions in am
   POMASS =  58.69 16.00
  Ionic Valenz
   ZVAL   =  10.00  6.00
  Atomic Wigner-Seitz radii
   RWIGS  =   1.15  0.73
  virtual crystal weights 
   VCA    =   1.00  1.00
   NELECT =     352.0000    total number of electrons
   NUPDOWN=      -1.0000    fix difference up-down

 DOS related values:
   EMIN   =  10.00;   EMAX   =-10.00  energy-range for DOS
   EFERMI =   0.00
   ISMEAR =     0;   SIGMA  =   0.05  broadening in eV -4-tet -1-fermi 0-gaus

 Electronic relaxation 2 (details)
   IALGO  =     38    algorithm
   LDIAG  =      T    sub-space diagonalisation (order eigenvalues)
   LSUBROT=      F    optimize rotation matrix (better conditioning)
   TURBO    =      0    0=normal 1=particle mesh
   IRESTART =      0    0=no restart 2=restart with 2 vectors
   NREBOOT  =      0    no. of reboots
   NMIN     =      0    reboot dimension
   EREF     =   0.00    reference energy to select bands
   IMIX   =      4    mixing-type and parameters
     AMIX     =   0.40;   BMIX     =  1.00
     AMIX_MAG =   1.60;   BMIX_MAG =  1.00
     AMIN     =   0.10
     WC   =   100.;   INIMIX=   1;  MIXPRE=   1;  MAXMIX= -45

 Intra band minimization:
   WEIMIN = 0.0000     energy-eigenvalue tresh-hold
   EBREAK =  0.10E-07  absolut break condition
   DEPER  =   0.30     relativ break condition  

   TIME   =   0.40     timestep for ELM

  volume/ion in A,a.u.               =      10.44        70.43
  Fermi-wavevector in a.u.,A,eV,Ry     =   1.455454  2.750409 28.821856  2.118347
  Thomas-Fermi vector in A             =   2.572487
 
 Write flags
   LWAVE        =      F    write WAVECAR
   LDOWNSAMPLE  =      F    k-point downsampling of WAVECAR
   LCHARG       =      T    write CHGCAR
   LVTOT        =      F    write LOCPOT, total local potential
   LVHAR        =      F    write LOCPOT, Hartree potential only
   LELF         =      F    write electronic localiz. function (ELF)
   LORBIT       =      0    0 simple, 1 ext, 2 COOP (PROOUT), +10 PAW based schemes


 Dipole corrections
   LMONO  =      F    monopole corrections only (constant potential shift)
   LDIPOL =      F    correct potential (dipole corrections)
   IDIPOL =      0    1-x, 2-y, 3-z, 4-all directions 
   EPSILON=  1.0000000 bulk dielectric constant

 Exchange correlation treatment:
   GGA     =    PS    GGA type
   LEXCH   =    14    internal setting for exchange type
   VOSKOWN=      1    Vosko Wilk Nusair interpolation
   LHFCALC =     F    Hartree Fock is set to
   LHFONE  =     F    Hartree Fock one center treatment
   AEXX    =    0.0000 exact exchange contribution

 Linear response parameters
   LEPSILON=     F    determine dielectric tensor
   LRPA    =     F    only Hartree local field effects (RPA)
   LNABLA  =     F    use nabla operator in PAW spheres
   LVEL    =     F    velocity operator in full k-point grid
   LINTERFAST=   F  fast interpolation
   KINTER  =     0    interpolate to denser k-point grid
   CSHIFT  =0.1000    complex shift for real part using Kramers Kronig
   OMEGAMAX=  -1.0    maximum frequency
   DEG_THRESHOLD= 0.2000000E-02 threshold for treating states as degnerate
   RTIME   =   -0.100 relaxation time in fs
  (WPLASMAI=    0.000 imaginary part of plasma frequency in eV, 0.658/RTIME)
   DFIELD  = 0.0000000 0.0000000 0.0000000 field for delta impulse in time
 
 Orbital magnetization related:
   ORBITALMAG=     F  switch on orbital magnetization
   LCHIMAG   =     F  perturbation theory with respect to B field
   DQ        =  0.001000  dq finite difference perturbation B field
   LLRAUG    =     F  two centre corrections for induced B field



--------------------------------------------------------------------------------------------------------


 Static calculation
 charge density and potential will be updated during run
 spin polarized calculation
 Variant of blocked Davidson
 Davidson routine will perform the subspace rotation
 perform sub-space diagonalisation
    after iterative eigenvector-optimisation
 modified Broyden-mixing scheme, WC =      100.0
 initial mixing is a Kerker type mixing with AMIX =  0.4000 and BMIX =      1.0000
 Hartree-type preconditioning will be used
 using additional bands           64
 real space projection scheme for non local part
 use partial core corrections
 calculate Harris-corrections to forces 
   (improved forces if not selfconsistent)
 use gradient corrections 
 use of overlap-Matrix (Vanderbilt PP)
 Gauss-broadening in eV      SIGMA  =   0.05


--------------------------------------------------------------------------------------------------------


  energy-cutoff  :      500.00
  volume of cell :      500.92
      direct lattice vectors                 reciprocal lattice vectors
     7.941890000  0.000000000  0.000000000     0.125914612  0.000000000  0.000000000
     0.000000000  7.941890000  0.000000000     0.000000000  0.125914612  0.000000000
     0.000000000  0.000000000  7.941890000     0.000000000  0.000000000  0.125914612

  length of vectors
     7.941890000  7.941890000  7.941890000     0.125914612  0.125914612  0.125914612


 
 k-points in units of 2pi/SCALE and weight: Automatic mesh                          
   0.00000000  0.00000000  0.00000000       0.016
   0.03147865  0.00000000  0.00000000       0.031
   0.06295731  0.00000000  0.00000000       0.016
   0.00000000  0.03147865  0.00000000       0.031
   0.03147865  0.03147865  0.00000000       0.031
   0.06295731  0.03147865  0.00000000       0.031
  -0.03147865  0.03147865  0.00000000       0.031
   0.00000000  0.06295731  0.00000000       0.016
   0.03147865  0.06295731  0.00000000       0.031
   0.06295731  0.06295731  0.00000000       0.016
   0.00000000  0.00000000  0.03147865       0.031
   0.03147865  0.00000000  0.03147865       0.031
   0.06295731  0.00000000  0.03147865       0.031
  -0.03147865  0.00000000  0.03147865       0.031
   0.00000000  0.03147865  0.03147865       0.031
   0.03147865  0.03147865  0.03147865       0.031
   0.06295731  0.03147865  0.03147865       0.031
  -0.03147865  0.03147865  0.03147865       0.031
   0.00000000  0.06295731  0.03147865       0.031
   0.03147865  0.06295731  0.03147865       0.031
   0.06295731  0.06295731  0.03147865       0.031
  -0.03147865  0.06295731  0.03147865       0.031
   0.00000000 -0.03147865  0.03147865       0.031
   0.03147865 -0.03147865  0.03147865       0.031
   0.06295731 -0.03147865  0.03147865       0.031
  -0.03147865 -0.03147865  0.03147865       0.031
   0.00000000  0.00000000  0.06295731       0.016
   0.03147865  0.00000000  0.06295731       0.031
   0.06295731  0.00000000  0.06295731       0.016
   0.00000000  0.03147865  0.06295731       0.031
   0.03147865  0.03147865  0.06295731       0.031
   0.06295731  0.03147865  0.06295731       0.031
  -0.03147865  0.03147865  0.06295731       0.031
   0.00000000  0.06295731  0.06295731       0.016
   0.03147865  0.06295731  0.06295731       0.031
   0.06295731  0.06295731  0.06295731       0.016
 
 k-points in reciprocal lattice and weights: Automatic mesh                          
   0.00000000  0.00000000  0.00000000       0.016
   0.25000000  0.00000000  0.00000000       0.031
   0.50000000  0.00000000  0.00000000       0.016
   0.00000000  0.25000000  0.00000000       0.031
   0.25000000  0.25000000  0.00000000       0.031
   0.50000000  0.25000000  0.00000000       0.031
  -0.25000000  0.25000000  0.00000000       0.031
   0.00000000  0.50000000  0.00000000       0.016
   0.25000000  0.50000000  0.00000000       0.031
   0.50000000  0.50000000  0.00000000       0.016
   0.00000000  0.00000000  0.25000000       0.031
   0.25000000  0.00000000  0.25000000       0.031
   0.50000000  0.00000000  0.25000000       0.031
  -0.25000000  0.00000000  0.25000000       0.031
   0.00000000  0.25000000  0.25000000       0.031
   0.25000000  0.25000000  0.25000000       0.031
   0.50000000  0.25000000  0.25000000       0.031
  -0.25000000  0.25000000  0.25000000       0.031
   0.00000000  0.50000000  0.25000000       0.031
   0.25000000  0.50000000  0.25000000       0.031
   0.50000000  0.50000000  0.25000000       0.031
  -0.25000000  0.50000000  0.25000000       0.031
   0.00000000 -0.25000000  0.25000000       0.031
   0.25000000 -0.25000000  0.25000000       0.031
   0.50000000 -0.25000000  0.25000000       0.031
  -0.25000000 -0.25000000  0.25000000       0.031
   0.00000000  0.00000000  0.50000000       0.016
   0.25000000  0.00000000  0.50000000       0.031
   0.50000000  0.00000000  0.50000000       0.016
   0.00000000  0.25000000  0.50000000       0.031
   0.25000000  0.25000000  0.50000000       0.031
   0.50000000  0.25000000  0.50000000       0.031
  -0.25000000  0.25000000  0.50000000       0.031
   0.00000000  0.50000000  0.50000000       0.016
   0.25000000  0.50000000  0.50000000       0.031
   0.50000000  0.50000000  0.50000000       0.016
 
 position of ions in fractional coordinates (direct lattice) 
   0.14179671  0.62565005  0.10541727
   0.39888937  0.89267015  0.09853069
   0.36574406  0.59635544  0.34170446
   0.16963064  0.86624997  0.39187609
   0.13311574  0.12651961  0.59872288
   0.34956671  0.38612421  0.65342842
   0.32871208  0.10135906  0.86991707
   0.15132550  0.38855249  0.89545152
   0.63107176  0.60101303  0.62156840
   0.90691301  0.87937260  0.59419487
   0.91064189  0.63652650  0.89335522
   0.67457094  0.86120510  0.85789026
   0.56188580  0.12870089  0.14026577
   0.87443240  0.37533801  0.14856983
   0.88559251  0.13536579  0.37320386
   0.62385575  0.40121255  0.37263193
   0.85019192  0.12530931  0.13616041
   0.36557832  0.87368712  0.36410252
   0.38085891  0.06968174  0.12638110
   0.08579409  0.10672683  0.41923823
   0.39552428  0.36872077  0.40692930
   0.10403740  0.37705774  0.14213293
   0.65625532  0.21948063  0.33357822
   0.13946760  0.87181583  0.17264757
   0.85446543  0.67932918  0.64351169
   0.34292891  0.35744005  0.86035290
   0.38666419  0.59658583  0.60628136
   0.13625142  0.63398337  0.93789085
   0.36918043  0.86373659  0.94337292
   0.12149627  0.90031948  0.59020449
   0.65023741  0.64172132  0.86243712
   0.17004474  0.34140925  0.64404813
   0.31739345  0.15082585  0.61187729
   0.90670799  0.82722460  0.90202430
   0.86848600  0.07054494  0.61649423
   0.61668023  0.08693617  0.85743982
   0.82902620  0.38081719  0.89786076
   0.55972254  0.39251945  0.65116412
   0.09477943  0.15347622  0.87461009
   0.62371910  0.86893782  0.61142836
   0.37213732  0.67994217  0.13058825
   0.84508879  0.31005124  0.40790458
   0.93638260  0.59816187  0.11305883
   0.60842420  0.64505098  0.34967678
   0.90624381  0.83240018  0.40566996
   0.59200825  0.92211862  0.12462323
   0.12379350  0.62065416  0.33068735
   0.68156882  0.38762046  0.12396014
 
 position of ions in cartesian coordinates  (Angst):
   1.12613387  4.96884388  0.83721236
   3.16793550  7.08948814  0.78251990
   2.90469909  4.73618931  2.71377923
   1.34718788  6.87966197  3.11223680
   1.05719056  1.00480483  4.75499125
   2.77622036  3.06655600  5.18945663
   2.61059518  0.80498251  6.90878568
   1.20181048  3.08584113  7.11157747
   5.01190250  4.77317937  4.93642786
   7.20260336  6.98388046  4.71903030
   7.23221772  5.05522345  7.09492889
   5.35736820  6.83959617  6.81327008
   4.46243522  1.02212831  1.11397532
   6.94464593  2.98089319  1.17992525
   7.03327830  1.07506021  2.96394400
   4.95459374  3.18638594  2.95940180
   6.75213071  0.99519276  1.08137100
   2.90338280  6.93872700  2.89166216
   3.02473957  0.55340471  1.00370479
   0.68136723  0.84761274  3.32954391
   3.14121032  2.92833980  3.23178774
   0.82625359  2.99455109  1.12880410
   5.21190756  1.74309102  2.64924153
   1.10763634  6.92386542  1.37114801
   6.78607045  5.39515762  5.11069906
   2.72350368  2.83874956  6.83282809
   3.07084446  4.73801904  4.81501987
   1.08209379  5.03502619  7.44862596
   2.93199037  6.85970099  7.49216396
   0.96491001  7.15023828  4.68733914
   5.16411398  5.09648013  6.84938074
   1.35047662  2.71143471  5.11495940
   2.52070387  1.19784231  4.85946213
   7.20097512  6.56972678  7.16377777
   6.89742028  0.56026015  4.89612936
   4.89760655  0.69043750  6.80969273
   6.58403489  3.02440823  7.13071139
   4.44525484  3.11734629  5.17147381
   0.75272781  1.21889126  6.94605713
   4.95350848  6.90100858  4.85589678
   2.95547366  5.40002592  1.03711752
   6.71160221  2.46239284  3.23953330
   7.43664761  4.75053577  0.89790079
   4.83203807  5.12292393  2.77709452
   7.19728865  6.61083067  3.22178620
   4.70166440  7.32336465  0.98974398
   0.98315436  4.92916707  2.62628256
   5.41294460  3.07843906  0.98447780
 


--------------------------------------------------------------------------------------------------------


 k-point  1 :   0.0000 0.0000 0.0000  plane waves:   12797
 k-point  2 :   0.2500 0.0000 0.0000  plane waves:   12757
 k-point  3 :   0.5000 0.0000 0.0000  plane waves:   12732
 k-point  4 :   0.0000 0.2500 0.0000  plane waves:   12757
 k-point  5 :   0.2500 0.2500 0.0000  plane waves:   12754
 k-point  6 :   0.5000 0.2500 0.0000  plane waves:   12690
 k-point  7 :  -0.2500 0.2500 0.0000  plane waves:   12754
 k-point  8 :   0.0000 0.5000 0.0000  plane waves:   12732
 k-point  9 :   0.2500 0.5000 0.0000  plane waves:   12690
 k-point 10 :   0.5000 0.5000 0.0000  plane waves:   12656
 k-point 11 :   0.0000 0.0000 0.2500  plane waves:   12757
 k-point 12 :   0.2500 0.0000 0.2500  plane waves:   12754
 k-point 13 :   0.5000 0.0000 0.2500  plane waves:   12690
 k-point 14 :  -0.2500 0.0000 0.2500  plane waves:   12754
 k-point 15 :   0.0000 0.2500 0.2500  plane waves:   12754
 k-point 16 :   0.2500 0.2500 0.2500  plane waves:   12704
 k-point 17 :   0.5000 0.2500 0.2500  plane waves:   12702
 k-point 18 :  -0.2500 0.2500 0.2500  plane waves:   12704
 k-point 19 :   0.0000 0.5000 0.2500  plane waves:   12690
 k-point 20 :   0.2500 0.5000 0.2500  plane waves:   12702
 k-point 21 :   0.5000 0.5000 0.2500  plane waves:   12728
 k-point 22 :  -0.2500 0.5000 0.2500  plane waves:   12702
 k-point 23 :   0.0000-0.2500 0.2500  plane waves:   12754
 k-point 24 :   0.2500-0.2500 0.2500  plane waves:   12704
 k-point 25 :   0.5000-0.2500 0.2500  plane waves:   12702
 k-point 26 :  -0.2500-0.2500 0.2500  plane waves:   12704
 k-point 27 :   0.0000 0.0000 0.5000  plane waves:   12732
 k-point 28 :   0.2500 0.0000 0.5000  plane waves:   12690
 k-point 29 :   0.5000 0.0000 0.5000  plane waves:   12656
 k-point 30 :   0.0000 0.2500 0.5000  plane waves:   12690
 k-point 31 :   0.2500 0.2500 0.5000  plane waves:   12702
 k-point 32 :   0.5000 0.2500 0.5000  plane waves:   12728
 k-point 33 :  -0.2500 0.2500 0.5000  plane waves:   12702
 k-point 34 :   0.0000 0.5000 0.5000  plane waves:   12656
 k-point 35 :   0.2500 0.5000 0.5000  plane waves:   12728
 k-point 36 :   0.5000 0.5000 0.5000  plane waves:   12712

 maximum and minimum number of plane-waves per node :     12797    12656

 maximum number of plane-waves:     12797
 maximum index in each direction: 
   IXMAX=   14   IYMAX=   14   IZMAX=   14
   IXMIN=  -14   IYMIN=  -14   IZMIN=  -14

 The following grids will avoid any aliasing or wrap around errors in the Hartre
 e energy
  - symmetry arguments have not been applied
  - exchange correlation energies might require even more grid points
  - we recommend to set PREC=Normal or Accurate and rely on VASP defaults
 NGX is ok and might be reduce to    60
 NGY is ok and might be reduce to    60
 NGZ is ok and might be reduce to    60

 serial   3D FFT for wavefunctions
 parallel 3D FFT for charge:
    minimum data exchange during FFTs selected (reduces bandwidth)


 total amount of memory used by VASP MPI-rank0   317787. kBytes
=======================================================================

   base      :      30000. kBytes
   nonlr-proj:      24226. kBytes
   fftplans  :       4751. kBytes
   grid      :      26734. kBytes
   one-center:       1492. kBytes
   wavefun   :     230584. kBytes
 
     INWAV:  cpu time    0.0000: real time    0.0000
 Broyden mixing: mesh for mixing (old mesh)
   NGX = 29   NGY = 29   NGZ = 29
  (NGX  =120   NGY  =120   NGZ  =120)
  gives a total of  24389 points

 initial charge density was supplied:
 charge density of overlapping atoms calculated
 number of electron     352.0000000 magnetization      40.0000000
 keeping initial charge density in first step


--------------------------------------------------------------------------------------------------------


 Maximum index for non-local projection operator         5648
 Maximum index for augmentation-charges         1120 (set IRDMAX)


--------------------------------------------------------------------------------------------------------


 First call to EWALD:  gamma=   0.223
 Maximum number of real-space cells 3x 3x 3
 Maximum number of reciprocal cells 3x 3x 3

    FEWALD:  cpu time    0.0021: real time    0.0021


--------------------------------------- Iteration      1(   1)  ---------------------------------------


    POTLOK:  cpu time    0.1423: real time    0.1523
    SETDIJ:  cpu time    0.0167: real time    0.0167
     EDDAV:  cpu time   69.2691: real time   69.4332
    --------------------------------------------
      LOOP:  cpu time   69.4314: real time   69.6055

 eigenvalue-minimisations  : 34560
 total energy-change (2. order) : 0.4634442E+04  (-0.1538724E+05)
 number of electron     352.0000000 magnetization      40.0000000
 augmentation part      352.0000000 magnetization      40.0000000

 Free energy of the ion-electron system (eV)
  ---------------------------------------------------
  alpha Z        PSCENC =      1094.16350177
  Ewald energy   TEWEN  =    -19257.57899597
  -Hartree energ DENC   =    -12479.69165402
  -exchange      EXHF   =         0.00000000
  -V(xc)+E(xc)   XCENC  =      1429.18606477
  PAW double counting   =     26463.90193480   -27579.55909067
  entropy T*S    EENTRO =        -0.00932096
  eigenvalues    EBANDS =      3950.35703641
  atomic energy  EATOM  =     31013.67235384
  Solvation  Ediel_sol  =         0.00000000
  ---------------------------------------------------
  free energy    TOTEN  =      4634.44182996 eV

  energy without entropy =     4634.45115092  energy(sigma->0) =     4634.44649044


--------------------------------------------------------------------------------------------------------




--------------------------------------- Iteration      1(   2)  ---------------------------------------


     EDDAV:  cpu time   71.8287: real time   71.9987
    --------------------------------------------
      LOOP:  cpu time   71.8287: real time   71.9986

 eigenvalue-minimisations  : 35648
 total energy-change (2. order) :-0.4020374E+04  (-0.3591884E+04)
 number of electron     352.0000000 magnetization      40.0000000
 augmentation part      352.0000000 magnetization      40.0000000

 Free energy of the ion-electron system (eV)
  ---------------------------------------------------
  alpha Z        PSCENC =      1094.16350177
  Ewald energy   TEWEN  =    -19257.57899597
  -Hartree energ DENC   =    -12479.69165402
  -exchange      EXHF   =         0.00000000
  -V(xc)+E(xc)   XCENC  =      1429.18606477
  PAW double counting   =     26463.90193480   -27579.55909067
  entropy T*S    EENTRO =        -0.02466563
  eigenvalues    EBANDS =       -70.00121172
  atomic energy  EATOM  =     31013.67235384
  Solvation  Ediel_sol  =         0.00000000
  ---------------------------------------------------
  free energy    TOTEN  =       614.06823716 eV

  energy without entropy =      614.09290279  energy(sigma->0) =      614.08056997


--------------------------------------------------------------------------------------------------------




--------------------------------------- Iteration      1(   3)  ---------------------------------------


     EDDAV:  cpu time   73.7991: real time   73.9737
    --------------------------------------------
      LOOP:  cpu time   73.7992: real time   73.9737

 eigenvalue-minimisations  : 36544
 total energy-change (2. order) :-0.8984027E+03  (-0.8068512E+03)
 number of electron     352.0000000 magnetization      40.0000000
 augmentation part      352.0000000 magnetization      40.0000000

 Free energy of the ion-electron system (eV)
  ---------------------------------------------------
  alpha Z        PSCENC =      1094.16350177
  Ewald energy   TEWEN  =    -19257.57899597
  -Hartree energ DENC   =    -12479.69165402
  -exchange      EXHF   =         0.00000000
  -V(xc)+E(xc)   XCENC  =      1429.18606477
  PAW double counting   =     26463.90193480   -27579.55909067
  entropy T*S    EENTRO =        -0.05485246
  eigenvalues    EBANDS =      -968.37375626
  atomic energy  EATOM  =     31013.67235384
  Solvation  Ediel_sol  =         0.00000000
  ---------------------------------------------------
  free energy    TOTEN  =      -284.33449421 eV

  energy without entropy =     -284.27964175  energy(sigma->0) =     -284.30706798


--------------------------------------------------------------------------------------------------------




--------------------------------------- Iteration      1(   4)  ---------------------------------------


     EDDAV:  cpu time   77.6942: real time   77.8779
    --------------------------------------------
      LOOP:  cpu time   77.6942: real time   77.8779

 eigenvalue-minimisations  : 38592
 total energy-change (2. order) :-0.8081314E+02  (-0.7870025E+02)
 number of electron     352.0000000 magnetization      40.0000000
 augmentation part      352.0000000 magnetization      40.0000000

 Free energy of the ion-electron system (eV)
  ---------------------------------------------------
  alpha Z        PSCENC =      1094.16350177
  Ewald energy   TEWEN  =    -19257.57899597
  -Hartree energ DENC   =    -12479.69165402
  -exchange      EXHF   =         0.00000000
  -V(xc)+E(xc)   XCENC  =      1429.18606477
  PAW double counting   =     26463.90193480   -27579.55909067
  entropy T*S    EENTRO =        -0.05887688
  eigenvalues    EBANDS =     -1049.18287506
  atomic energy  EATOM  =     31013.67235384
  Solvation  Ediel_sol  =         0.00000000
  ---------------------------------------------------
  free energy    TOTEN  =      -365.14763743 eV

  energy without entropy =     -365.08876055  energy(sigma->0) =     -365.11819899


--------------------------------------------------------------------------------------------------------




--------------------------------------- Iteration      1(   5)  ---------------------------------------


     EDDAV:  cpu time   77.1491: real time   77.3316
    CHARGE:  cpu time    2.7065: real time    2.7129
    MIXING:  cpu time    0.0033: real time    0.0033
    --------------------------------------------
      LOOP:  cpu time   79.8556: real time   80.0445

 eigenvalue-minimisations  : 38288
 total energy-change (2. order) :-0.1868982E+01  (-0.1861485E+01)
 number of electron     351.9999986 magnetization      39.4045793
 augmentation part      100.6639984 magnetization      29.3647096

 Broyden mixing:
  rms(total) = 0.16797E+02    rms(broyden)= 0.16795E+02
  rms(prec ) = 0.19706E+02
  weight for this iteration     100.00

 Free energy of the ion-electron system (eV)
  ---------------------------------------------------
  alpha Z        PSCENC =      1094.16350177
  Ewald energy   TEWEN  =    -19257.57899597
  -Hartree energ DENC   =    -12479.69165402
  -exchange      EXHF   =         0.00000000
  -V(xc)+E(xc)   XCENC  =      1429.18606477
  PAW double counting   =     26463.90193480   -27579.55909067
  entropy T*S    EENTRO =        -0.05911872
  eigenvalues    EBANDS =     -1051.05161495
  atomic energy  EATOM  =     31013.67235384
  Solvation  Ediel_sol  =         0.00000000
  ---------------------------------------------------
  free energy    TOTEN  =      -367.01661915 eV

  energy without entropy =     -366.95750044  energy(sigma->0) =     -366.98705979


--------------------------------------------------------------------------------------------------------




--------------------------------------- Iteration      1(   6)  ---------------------------------------


    POTLOK:  cpu time    0.1248: real time    0.1251
    SETDIJ:  cpu time    0.0170: real time    0.0171
     EDDAV:  cpu time  100.5467: real time  100.7845
    CHARGE:  cpu time    2.6208: real time    2.6271
    MIXING:  cpu time    0.0031: real time    0.0031
    --------------------------------------------
      LOOP:  cpu time  103.3126: real time  103.5569

 eigenvalue-minimisations  : 53088
 total energy-change (2. order) :-0.1048987E+03  (-0.9015595E+02)
 number of electron     351.9999950 magnetization      32.3793210
 augmentation part      137.9763919 magnetization      30.3554828

 Broyden mixing:
  rms(total) = 0.24752E+02    rms(broyden)= 0.24751E+02
  rms(prec ) = 0.28034E+02
  weight for this iteration     100.00

 eigenvalues of (default mixing * dielectric matrix)
  average eigenvalue GAMMA=   0.2233
  0.2233

 Free energy of the ion-electron system (eV)
  ---------------------------------------------------
  alpha Z        PSCENC =      1094.16350177
  Ewald energy   TEWEN  =    -19257.57899597
  -Hartree energ DENC   =    -11886.54500343
  -exchange      EXHF   =         0.00000000
  -V(xc)+E(xc)   XCENC  =      1435.35659637
  PAW double counting   =     30860.32571782   -31799.25599776
  entropy T*S    EENTRO =        -0.03175260
  eigenvalues    EBANDS =     -1932.02176654
  atomic energy  EATOM  =     31013.67235384
  Solvation  Ediel_sol  =         0.00000000
  ---------------------------------------------------
  free energy    TOTEN  =      -471.91534650 eV

  energy without entropy =     -471.88359390  energy(sigma->0) =     -471.89947020


--------------------------------------------------------------------------------------------------------




--------------------------------------- Iteration      1(   7)  ---------------------------------------


    POTLOK:  cpu time    0.1237: real time    0.1240
    SETDIJ:  cpu time    0.0175: real time    0.0175
     EDDAV:  cpu time   88.9297: real time   89.1400
    CHARGE:  cpu time    2.6610: real time    2.6673
    MIXING:  cpu time    0.0028: real time    0.0028
    --------------------------------------------
      LOOP:  cpu time   91.7346: real time   91.9516

 eigenvalue-minimisations  : 45872
 total energy-change (2. order) : 0.1941230E+03  (-0.3111655E+02)
 number of electron     351.9999959 magnetization      24.4961543
 augmentation part      124.5417139 magnetization      19.9520862

 Broyden mixing:
  rms(total) = 0.90212E+01    rms(broyden)= 0.90196E+01
  rms(prec ) = 0.11662E+02
  weight for this iteration     100.00

 eigenvalues of (default mixing * dielectric matrix)
  average eigenvalue GAMMA=   0.5826
  0.5826  0.5826

 Free energy of the ion-electron system (eV)
  ---------------------------------------------------
  alpha Z        PSCENC =      1094.16350177
  Ewald energy   TEWEN  =    -19257.57899597
  -Hartree energ DENC   =    -12169.22682843
  -exchange      EXHF   =         0.00000000
  -V(xc)+E(xc)   XCENC  =      1427.70990609
  PAW double counting   =     32687.92628064   -33776.50036456
  entropy T*S    EENTRO =        -0.04419454
  eigenvalues    EBANDS =     -1297.91398227
  atomic energy  EATOM  =     31013.67235384
  Solvation  Ediel_sol  =         0.00000000
  ---------------------------------------------------
  free energy    TOTEN  =      -277.79232343 eV

  energy without entropy =     -277.74812889  energy(sigma->0) =     -277.77022616


--------------------------------------------------------------------------------------------------------




--------------------------------------- Iteration      1(   8)  ---------------------------------------


    POTLOK:  cpu time    0.1208: real time    0.1211
    SETDIJ:  cpu time    0.0170: real time    0.0171
     EDDAV:  cpu time  100.5401: real time  100.7780
    CHARGE:  cpu time    2.6173: real time    2.6235
    MIXING:  cpu time    0.0029: real time    0.0029
    --------------------------------------------
      LOOP:  cpu time  103.2982: real time  103.5426

 eigenvalue-minimisations  : 53056
 total energy-change (2. order) :-0.7903737E+02  (-0.2803598E+02)
 number of electron     351.9999967 magnetization      19.6005025
 augmentation part      115.1553359 magnetization      16.8500765

 Broyden mixing:
  rms(total) = 0.20146E+02    rms(broyden)= 0.20145E+02
  rms(prec ) = 0.26779E+02
  weight for this iteration     100.00

 eigenvalues of (default mixing * dielectric matrix)
  average eigenvalue GAMMA=   0.4687
  0.6453  0.6453  0.1156

 Free energy of the ion-electron system (eV)
  ---------------------------------------------------
  alpha Z        PSCENC =      1094.16350177
  Ewald energy   TEWEN  =    -19257.57899597
  -Hartree energ DENC   =    -12163.64606424
  -exchange      EXHF   =         0.00000000
  -V(xc)+E(xc)   XCENC  =      1420.51948776
  PAW double counting   =     34234.92209159   -35405.05855358
  entropy T*S    EENTRO =        -0.03180487
  eigenvalues    EBANDS =     -1293.79170604
  atomic energy  EATOM  =     31013.67235384
  Solvation  Ediel_sol  =         0.00000000
  ---------------------------------------------------
  free energy    TOTEN  =      -356.82968974 eV

  energy without entropy =     -356.79788487  energy(sigma->0) =     -356.81378730


--------------------------------------------------------------------------------------------------------




--------------------------------------- Iteration      1(   9)  ---------------------------------------


    POTLOK:  cpu time    0.1228: real time    0.1231
    SETDIJ:  cpu time    0.0169: real time    0.0169
     EDDAV:  cpu time   86.9174: real time   87.1230
    CHARGE:  cpu time    2.5372: real time    2.5432
    MIXING:  cpu time    0.0031: real time    0.0031
    --------------------------------------------
      LOOP:  cpu time   89.5973: real time   89.8092

 eigenvalue-minimisations  : 45744
 total energy-change (2. order) : 0.4073105E+02  (-0.3843382E+02)
 number of electron     351.9999948 magnetization      15.2363307
 augmentation part      114.2195177 magnetization      12.6677982

 Broyden mixing:
  rms(total) = 0.11173E+02    rms(broyden)= 0.11171E+02
  rms(prec ) = 0.17015E+02
  weight for this iteration     100.00

 eigenvalues of (default mixing * dielectric matrix)
  average eigenvalue GAMMA=   0.4653
  0.8843  0.5812  0.1978  0.1978

 Free energy of the ion-electron system (eV)
  ---------------------------------------------------
  alpha Z        PSCENC =      1094.16350177
  Ewald energy   TEWEN  =    -19257.57899597
  -Hartree energ DENC   =    -12194.57921105
  -exchange      EXHF   =         0.00000000
  -V(xc)+E(xc)   XCENC  =      1418.33697879
  PAW double counting   =     35545.94274168   -36751.61973319
  entropy T*S    EENTRO =        -0.03076280
  eigenvalues    EBANDS =     -1184.40551639
  atomic energy  EATOM  =     31013.67235384
  Solvation  Ediel_sol  =         0.00000000
  ---------------------------------------------------
  free energy    TOTEN  =      -316.09864333 eV

  energy without entropy =     -316.06788054  energy(sigma->0) =     -316.08326194


--------------------------------------------------------------------------------------------------------




--------------------------------------- Iteration      1(  10)  ---------------------------------------


    POTLOK:  cpu time    0.1120: real time    0.1123
    SETDIJ:  cpu time    0.0159: real time    0.0160
     EDDAV:  cpu time   87.1612: real time   87.3674
    CHARGE:  cpu time    2.5654: real time    2.5714
    MIXING:  cpu time    0.0032: real time    0.0032
    --------------------------------------------
      LOOP:  cpu time   89.8578: real time   90.0703

 eigenvalue-minimisations  : 45776
 total energy-change (2. order) : 0.2230659E+02  (-0.2058546E+02)
 number of electron     351.9999981 magnetization      10.8177430
 augmentation part      111.6302065 magnetization       7.9759568

 Broyden mixing:
  rms(total) = 0.84759E+01    rms(broyden)= 0.84746E+01
  rms(prec ) = 0.11896E+02
  weight for this iteration     100.00

 eigenvalues of (default mixing * dielectric matrix)
  average eigenvalue GAMMA=   0.4761
  1.1937  0.4962  0.2873  0.2873  0.1161

 Free energy of the ion-electron system (eV)
  ---------------------------------------------------
  alpha Z        PSCENC =      1094.16350177
  Ewald energy   TEWEN  =    -19257.57899597
  -Hartree energ DENC   =    -12197.10323699
  -exchange      EXHF   =         0.00000000
  -V(xc)+E(xc)   XCENC  =      1417.03067354
  PAW double counting   =     36624.19809953   -37844.17434018
  entropy T*S    EENTRO =        -0.04001611
  eigenvalues    EBANDS =     -1143.96009639
  atomic energy  EATOM  =     31013.67235384
  Solvation  Ediel_sol  =         0.00000000
  ---------------------------------------------------
  free energy    TOTEN  =      -293.79205696 eV

  energy without entropy =     -293.75204085  energy(sigma->0) =     -293.77204891


--------------------------------------------------------------------------------------------------------




--------------------------------------- Iteration      1(  11)  ---------------------------------------


    POTLOK:  cpu time    0.1239: real time    0.1242
    SETDIJ:  cpu time    0.0170: real time    0.0171
     EDDAV:  cpu time   85.9458: real time   86.1491
    CHARGE:  cpu time    2.6456: real time    2.6519
    MIXING:  cpu time    0.0035: real time    0.0036
    --------------------------------------------
      LOOP:  cpu time   88.7359: real time   88.9458

 eigenvalue-minimisations  : 45040
 total energy-change (2. order) : 0.1362568E+02  (-0.1286736E+02)
 number of electron     351.9999974 magnetization       8.9369520
 augmentation part      111.1268745 magnetization       7.1862687

 Broyden mixing:
  rms(total) = 0.93171E+01    rms(broyden)= 0.93163E+01
  rms(prec ) = 0.14546E+02
  weight for this iteration     100.00

 eigenvalues of (default mixing * dielectric matrix)
  average eigenvalue GAMMA=   0.4549
  1.2873  0.4950  0.3429  0.3429  0.1306  0.1306

 Free energy of the ion-electron system (eV)
  ---------------------------------------------------
  alpha Z        PSCENC =      1094.16350177
  Ewald energy   TEWEN  =    -19257.57899597
  -Hartree energ DENC   =    -12165.58467494
  -exchange      EXHF   =         0.00000000
  -V(xc)+E(xc)   XCENC  =      1415.84893315
  PAW double counting   =     37723.53522835   -38946.71824980
  entropy T*S    EENTRO =        -0.03619148
  eigenvalues    EBANDS =     -1157.46827962
  atomic energy  EATOM  =     31013.67235384
  Solvation  Ediel_sol  =         0.00000000
  ---------------------------------------------------
  free energy    TOTEN  =      -280.16637471 eV

  energy without entropy =     -280.13018323  energy(sigma->0) =     -280.14827897


--------------------------------------------------------------------------------------------------------




--------------------------------------- Iteration      1(  12)  ---------------------------------------


    POTLOK:  cpu time    0.1231: real time    0.1234
    SETDIJ:  cpu time    0.0170: real time    0.0170
     EDDAV:  cpu time   93.8290: real time   94.0509
    CHARGE:  cpu time    2.4918: real time    2.4977
    MIXING:  cpu time    0.0036: real time    0.0036
    --------------------------------------------
      LOOP:  cpu time   96.4644: real time   96.6926

 eigenvalue-minimisations  : 49280
 total energy-change (2. order) : 0.1808114E+02  (-0.6232145E+01)
 number of electron     351.9999987 magnetization       8.1131051
 augmentation part      113.4177849 magnetization       6.2394941

 Broyden mixing:
  rms(total) = 0.71302E+01    rms(broyden)= 0.71293E+01
  rms(prec ) = 0.11508E+02
  weight for this iteration     100.00

 eigenvalues of (default mixing * dielectric matrix)
  average eigenvalue GAMMA=   0.4285
  1.3260  0.5049  0.3889  0.3889  0.1470  0.1470  0.0968

 Free energy of the ion-electron system (eV)
  ---------------------------------------------------
  alpha Z        PSCENC =      1094.16350177
  Ewald energy   TEWEN  =    -19257.57899597
  -Hartree energ DENC   =    -12145.42850615
  -exchange      EXHF   =         0.00000000
  -V(xc)+E(xc)   XCENC  =      1415.76270789
  PAW double counting   =     38093.45059874   -39312.05735835
  entropy T*S    EENTRO =        -0.04414498
  eigenvalues    EBANDS =     -1164.02539116
  atomic energy  EATOM  =     31013.67235384
  Solvation  Ediel_sol  =         0.00000000
  ---------------------------------------------------
  free energy    TOTEN  =      -262.08523437 eV

  energy without entropy =     -262.04108938  energy(sigma->0) =     -262.06316188


--------------------------------------------------------------------------------------------------------




--------------------------------------- Iteration      1(  13)  ---------------------------------------


    POTLOK:  cpu time    0.1127: real time    0.1130
    SETDIJ:  cpu time    0.0158: real time    0.0159
     EDDAV:  cpu time   94.6580: real time   94.8818
    CHARGE:  cpu time    2.6231: real time    2.6293
    MIXING:  cpu time    0.0036: real time    0.0036
    --------------------------------------------
      LOOP:  cpu time   97.4132: real time   97.6436

 eigenvalue-minimisations  : 50416
 total energy-change (2. order) : 0.1582463E+02  (-0.2496529E+01)
 number of electron     351.9999968 magnetization       7.1473162
 augmentation part      115.2979875 magnetization       4.9998085

 Broyden mixing:
  rms(total) = 0.38525E+01    rms(broyden)= 0.38513E+01
  rms(prec ) = 0.58967E+01
  weight for this iteration     100.00

 eigenvalues of (default mixing * dielectric matrix)
  average eigenvalue GAMMA=   0.4400
  1.3690  0.6645  0.4589  0.4589  0.2057  0.1344  0.1344  0.0946

 Free energy of the ion-electron system (eV)
  ---------------------------------------------------
  alpha Z        PSCENC =      1094.16350177
  Ewald energy   TEWEN  =    -19257.57899597
  -Hartree energ DENC   =    -12142.00891871
  -exchange      EXHF   =         0.00000000
  -V(xc)+E(xc)   XCENC  =      1415.84359417
  PAW double counting   =     38242.21612322   -39459.69563428
  entropy T*S    EENTRO =        -0.03552075
  eigenvalues    EBANDS =     -1152.83711182
  atomic energy  EATOM  =     31013.67235384
  Solvation  Ediel_sol  =         0.00000000
  ---------------------------------------------------
  free energy    TOTEN  =      -246.26060854 eV

  energy without entropy =     -246.22508779  energy(sigma->0) =     -246.24284816


--------------------------------------------------------------------------------------------------------




--------------------------------------- Iteration      1(  14)  ---------------------------------------


    POTLOK:  cpu time    0.1259: real time    0.1262
    SETDIJ:  cpu time    0.0168: real time    0.0169
     EDDAV:  cpu time   96.3027: real time   96.5305
    CHARGE:  cpu time    2.6396: real time    2.6459
    MIXING:  cpu time    0.0040: real time    0.0040
    --------------------------------------------
      LOOP:  cpu time   99.0890: real time   99.3235

 eigenvalue-minimisations  : 50800
 total energy-change (2. order) : 0.5036571E+00  (-0.2354423E+01)
 number of electron     351.9999965 magnetization       5.4580073
 augmentation part      114.4584747 magnetization       3.6981469

 Broyden mixing:
  rms(total) = 0.42860E+01    rms(broyden)= 0.42852E+01
  rms(prec ) = 0.64494E+01
  weight for this iteration     100.00

 eigenvalues of (default mixing * dielectric matrix)
  average eigenvalue GAMMA=   0.4238
  1.5005  0.6688  0.4711  0.4711  0.2177  0.1373  0.1373  0.1139  0.0967

 Free energy of the ion-electron system (eV)
  ---------------------------------------------------
  alpha Z        PSCENC =      1094.16350177
  Ewald energy   TEWEN  =    -19257.57899597
  -Hartree energ DENC   =    -12146.45050213
  -exchange      EXHF   =         0.00000000
  -V(xc)+E(xc)   XCENC  =      1416.01642054
  PAW double counting   =     38405.89854574   -39622.47299836
  entropy T*S    EENTRO =        -0.04244744
  eigenvalues    EBANDS =     -1148.96282945
  atomic energy  EATOM  =     31013.67235384
  Solvation  Ediel_sol  =         0.00000000
  ---------------------------------------------------
  free energy    TOTEN  =      -245.75695148 eV

  energy without entropy =     -245.71450403  energy(sigma->0) =     -245.73572776


--------------------------------------------------------------------------------------------------------




--------------------------------------- Iteration      1(  15)  ---------------------------------------


    POTLOK:  cpu time    0.1233: real time    0.1236
    SETDIJ:  cpu time    0.0171: real time    0.0172
     EDDAV:  cpu time   92.3947: real time   92.6133
    CHARGE:  cpu time    2.6395: real time    2.6457
    MIXING:  cpu time    0.0045: real time    0.0045
    --------------------------------------------
      LOOP:  cpu time   95.1790: real time   95.4042

 eigenvalue-minimisations  : 48240
 total energy-change (2. order) : 0.5798146E+01  (-0.1553159E+01)
 number of electron     351.9999969 magnetization       4.4493470
 augmentation part      115.4795011 magnetization       2.8748224

 Broyden mixing:
  rms(total) = 0.17773E+01    rms(broyden)= 0.17764E+01
  rms(prec ) = 0.23402E+01
  weight for this iteration     100.00

 eigenvalues of (default mixing * dielectric matrix)
  average eigenvalue GAMMA=   0.4375
  1.5556  0.6570  0.6570  0.3880  0.3880  0.2526  0.1312  0.1312  0.1243  0.0898

 Free energy of the ion-electron system (eV)
  ---------------------------------------------------
  alpha Z        PSCENC =      1094.16350177
  Ewald energy   TEWEN  =    -19257.57899597
  -Hartree energ DENC   =    -12148.35129740
  -exchange      EXHF   =         0.00000000
  -V(xc)+E(xc)   XCENC  =      1416.11330113
  PAW double counting   =     38739.72260218   -39955.13214747
  entropy T*S    EENTRO =        -0.04644861
  eigenvalues    EBANDS =     -1142.52167499
  atomic energy  EATOM  =     31013.67235384
  Solvation  Ediel_sol  =         0.00000000
  ---------------------------------------------------
  free energy    TOTEN  =      -239.95880552 eV

  energy without entropy =     -239.91235691  energy(sigma->0) =     -239.93558121


--------------------------------------------------------------------------------------------------------




--------------------------------------- Iteration      1(  16)  ---------------------------------------


    POTLOK:  cpu time    0.1209: real time    0.1211
    SETDIJ:  cpu time    0.0164: real time    0.0164
     EDDAV:  cpu time   98.2123: real time   98.4446
    CHARGE:  cpu time    2.6672: real time    2.6735
    MIXING:  cpu time    0.0045: real time    0.0045
    --------------------------------------------
      LOOP:  cpu time  101.0212: real time  101.2602

 eigenvalue-minimisations  : 52096
 total energy-change (2. order) : 0.5720146E-01  (-0.3952477E+00)
 number of electron     351.9999970 magnetization       3.3743096
 augmentation part      115.3108108 magnetization       2.0461780

 Broyden mixing:
  rms(total) = 0.19794E+01    rms(broyden)= 0.19790E+01
  rms(prec ) = 0.24466E+01
  weight for this iteration     100.00

 eigenvalues of (default mixing * dielectric matrix)
  average eigenvalue GAMMA=   0.4380
  1.6237  0.7146  0.7146  0.4146  0.4146  0.2969  0.1462  0.1462  0.1289  0.1289
  0.0892

 Free energy of the ion-electron system (eV)
  ---------------------------------------------------
  alpha Z        PSCENC =      1094.16350177
  Ewald energy   TEWEN  =    -19257.57899597
  -Hartree energ DENC   =    -12148.58553046
  -exchange      EXHF   =         0.00000000
  -V(xc)+E(xc)   XCENC  =      1416.11100566
  PAW double counting   =     38962.91173219   -40178.33420006
  entropy T*S    EENTRO =        -0.05107448
  eigenvalues    EBANDS =     -1142.21039654
  atomic energy  EATOM  =     31013.67235384
  Solvation  Ediel_sol  =         0.00000000
  ---------------------------------------------------
  free energy    TOTEN  =      -239.90160406 eV

  energy without entropy =     -239.85052957  energy(sigma->0) =     -239.87606682


--------------------------------------------------------------------------------------------------------




--------------------------------------- Iteration      1(  17)  ---------------------------------------


    POTLOK:  cpu time    0.1229: real time    0.1232
    SETDIJ:  cpu time    0.0169: real time    0.0170
     EDDAV:  cpu time   91.3180: real time   91.5341
    CHARGE:  cpu time    2.6391: real time    2.6454
    MIXING:  cpu time    0.0045: real time    0.0046
    --------------------------------------------
      LOOP:  cpu time   94.1015: real time   94.3242

 eigenvalue-minimisations  : 47552
 total energy-change (2. order) :-0.3404153E+00  (-0.3228294E+00)
 number of electron     351.9999968 magnetization       2.4010783
 augmentation part      115.6743013 magnetization       1.1736457

 Broyden mixing:
  rms(total) = 0.19365E+01    rms(broyden)= 0.19361E+01
  rms(prec ) = 0.26135E+01
  weight for this iteration     100.00

 eigenvalues of (default mixing * dielectric matrix)
  average eigenvalue GAMMA=   0.4537
  1.7750  0.7419  0.7419  0.4904  0.4904  0.3765  0.2092  0.1284  0.1284  0.1365
  0.1365  0.0892

 Free energy of the ion-electron system (eV)
  ---------------------------------------------------
  alpha Z        PSCENC =      1094.16350177
  Ewald energy   TEWEN  =    -19257.57899597
  -Hartree energ DENC   =    -12146.40072510
  -exchange      EXHF   =         0.00000000
  -V(xc)+E(xc)   XCENC  =      1416.07451697
  PAW double counting   =     39203.60842013   -40418.43627662
  entropy T*S    EENTRO =        -0.04331385
  eigenvalues    EBANDS =     -1145.30150052
  atomic energy  EATOM  =     31013.67235384
  Solvation  Ediel_sol  =         0.00000000
  ---------------------------------------------------
  free energy    TOTEN  =      -240.24201934 eV

  energy without entropy =     -240.19870549  energy(sigma->0) =     -240.22036242


--------------------------------------------------------------------------------------------------------




--------------------------------------- Iteration      1(  18)  ---------------------------------------


    POTLOK:  cpu time    0.1229: real time    0.1232
    SETDIJ:  cpu time    0.0172: real time    0.0172
     EDDAV:  cpu time   85.1843: real time   85.3858
    CHARGE:  cpu time    2.6880: real time    2.6944
    MIXING:  cpu time    0.0048: real time    0.0048
    --------------------------------------------
      LOOP:  cpu time   88.0173: real time   88.2255

 eigenvalue-minimisations  : 43600
 total energy-change (2. order) : 0.4474822E+00  (-0.1727326E+00)
 number of electron     351.9999973 magnetization       1.9402567
 augmentation part      116.0123530 magnetization       0.8419884

 Broyden mixing:
  rms(total) = 0.14299E+01    rms(broyden)= 0.14295E+01
  rms(prec ) = 0.19254E+01
  weight for this iteration     100.00

 eigenvalues of (default mixing * dielectric matrix)
  average eigenvalue GAMMA=   0.4632
  1.7844  0.7897  0.7897  0.6036  0.4957  0.4957  0.2405  0.2233  0.1309  0.1309
  0.0891  0.1238  0.1238

 Free energy of the ion-electron system (eV)
  ---------------------------------------------------
  alpha Z        PSCENC =      1094.16350177
  Ewald energy   TEWEN  =    -19257.57899597
  -Hartree energ DENC   =    -12145.48350020
  -exchange      EXHF   =         0.00000000
  -V(xc)+E(xc)   XCENC  =      1416.04665026
  PAW double counting   =     39444.11715996   -40658.81166900
  entropy T*S    EENTRO =        -0.05110315
  eigenvalues    EBANDS =     -1145.86893469
  atomic energy  EATOM  =     31013.67235384
  Solvation  Ediel_sol  =         0.00000000
  ---------------------------------------------------
  free energy    TOTEN  =      -239.79453718 eV

  energy without entropy =     -239.74343404  energy(sigma->0) =     -239.76898561


--------------------------------------------------------------------------------------------------------




--------------------------------------- Iteration      1(  19)  ---------------------------------------


    POTLOK:  cpu time    0.1240: real time    0.1243
    SETDIJ:  cpu time    0.0171: real time    0.0171
     EDDAV:  cpu time   83.7104: real time   83.9084
    CHARGE:  cpu time    2.6755: real time    2.6819
    MIXING:  cpu time    0.0048: real time    0.0048
    --------------------------------------------
      LOOP:  cpu time   86.5318: real time   86.7365

 eigenvalue-minimisations  : 42672
 total energy-change (2. order) :-0.1630451E+00  (-0.1305046E+00)
 number of electron     351.9999969 magnetization       1.2672766
 augmentation part      115.6763449 magnetization       0.4076259

 Broyden mixing:
  rms(total) = 0.14140E+01    rms(broyden)= 0.14137E+01
  rms(prec ) = 0.20127E+01
  weight for this iteration     100.00

 eigenvalues of (default mixing * dielectric matrix)
  average eigenvalue GAMMA=   0.4871
  1.8389  0.9235  0.9235  0.8948  0.4601  0.4601  0.3428  0.2284  0.1294  0.1294
  0.0891  0.1380  0.1307  0.1307

 Free energy of the ion-electron system (eV)
  ---------------------------------------------------
  alpha Z        PSCENC =      1094.16350177
  Ewald energy   TEWEN  =    -19257.57899597
  -Hartree energ DENC   =    -12149.23180919
  -exchange      EXHF   =         0.00000000
  -V(xc)+E(xc)   XCENC  =      1416.11887726
  PAW double counting   =     39569.32610929   -40783.62519197
  entropy T*S    EENTRO =        -0.04252512
  eigenvalues    EBANDS =     -1142.75990220
  atomic energy  EATOM  =     31013.67235384
  Solvation  Ediel_sol  =         0.00000000
  ---------------------------------------------------
  free energy    TOTEN  =      -239.95758229 eV

  energy without entropy =     -239.91505717  energy(sigma->0) =     -239.93631973


--------------------------------------------------------------------------------------------------------




--------------------------------------- Iteration      1(  20)  ---------------------------------------


    POTLOK:  cpu time    0.1226: real time    0.1229
    SETDIJ:  cpu time    0.0172: real time    0.0173
     EDDAV:  cpu time   89.4987: real time   89.7104
    CHARGE:  cpu time    2.6726: real time    2.6790
    MIXING:  cpu time    0.0050: real time    0.0050
    --------------------------------------------
      LOOP:  cpu time   92.3161: real time   92.5345

 eigenvalue-minimisations  : 46384
 total energy-change (2. order) : 0.1713786E+00  (-0.1276057E+00)
 number of electron     351.9999972 magnetization       0.8856345
 augmentation part      115.8490449 magnetization       0.1629247

 Broyden mixing:
  rms(total) = 0.11250E+01    rms(broyden)= 0.11247E+01
  rms(prec ) = 0.16908E+01
  weight for this iteration     100.00

 eigenvalues of (default mixing * dielectric matrix)
  average eigenvalue GAMMA=   0.4914
  1.9840  1.3000  0.7937  0.7937  0.4422  0.4422  0.4441  0.2408  0.1885  0.1296
  0.1296  0.1492  0.0891  0.1219  0.1219

 Free energy of the ion-electron system (eV)
  ---------------------------------------------------
  alpha Z        PSCENC =      1094.16350177
  Ewald energy   TEWEN  =    -19257.57899597
  -Hartree energ DENC   =    -12153.78281918
  -exchange      EXHF   =         0.00000000
  -V(xc)+E(xc)   XCENC  =      1416.18416147
  PAW double counting   =     39754.12571793   -40968.03929101
  entropy T*S    EENTRO =        -0.04767706
  eigenvalues    EBANDS =     -1138.48315544
  atomic energy  EATOM  =     31013.67235384
  Solvation  Ediel_sol  =         0.00000000
  ---------------------------------------------------
  free energy    TOTEN  =      -239.78620366 eV

  energy without entropy =     -239.73852660  energy(sigma->0) =     -239.76236513


--------------------------------------------------------------------------------------------------------




--------------------------------------- Iteration      1(  21)  ---------------------------------------


    POTLOK:  cpu time    0.1231: real time    0.1234
    SETDIJ:  cpu time    0.0171: real time    0.0171
     EDDAV:  cpu time   93.8979: real time   94.1199
    CHARGE:  cpu time    2.6830: real time    2.6893
    MIXING:  cpu time    0.0054: real time    0.0054
    --------------------------------------------
      LOOP:  cpu time   96.7264: real time   96.9552

 eigenvalue-minimisations  : 49264
 total energy-change (2. order) : 0.2346607E+00  (-0.7558689E-01)
 number of electron     351.9999971 magnetization       0.6419684
 augmentation part      115.5649502 magnetization      -0.0803031

 Broyden mixing:
  rms(total) = 0.79671E+00    rms(broyden)= 0.79641E+00
  rms(prec ) = 0.11209E+01
  weight for this iteration     100.00

 eigenvalues of (default mixing * dielectric matrix)
  average eigenvalue GAMMA=   0.5004
  2.1390  1.3712  0.7487  0.7260  0.7260  0.4329  0.4329  0.3157  0.2116  0.1833
  0.1298  0.1298  0.0891  0.1274  0.1274  0.1149

 Free energy of the ion-electron system (eV)
  ---------------------------------------------------
  alpha Z        PSCENC =      1094.16350177
  Ewald energy   TEWEN  =    -19257.57899597
  -Hartree energ DENC   =    -12156.86576541
  -exchange      EXHF   =         0.00000000
  -V(xc)+E(xc)   XCENC  =      1416.25254731
  PAW double counting   =     39859.97936476   -41073.75169848
  entropy T*S    EENTRO =        -0.04208823
  eigenvalues    EBANDS =     -1135.38076256
  atomic energy  EATOM  =     31013.67235384
  Solvation  Ediel_sol  =         0.00000000
  ---------------------------------------------------
  free energy    TOTEN  =      -239.55154298 eV

  energy without entropy =     -239.50945475  energy(sigma->0) =     -239.53049886


--------------------------------------------------------------------------------------------------------




--------------------------------------- Iteration      1(  22)  ---------------------------------------


    POTLOK:  cpu time    0.1231: real time    0.1234
    SETDIJ:  cpu time    0.0171: real time    0.0172
     EDDAV:  cpu time   87.4475: real time   87.6543
    CHARGE:  cpu time    2.6823: real time    2.6887
    MIXING:  cpu time    0.0052: real time    0.0052
    --------------------------------------------
      LOOP:  cpu time   90.2753: real time   90.4887

 eigenvalue-minimisations  : 45168
 total energy-change (2. order) : 0.9054276E-01  (-0.3317999E-01)
 number of electron     351.9999972 magnetization       0.5319805
 augmentation part      115.7868593 magnetization      -0.0225705

 Broyden mixing:
  rms(total) = 0.62291E+00    rms(broyden)= 0.62272E+00
  rms(prec ) = 0.88220E+00
  weight for this iteration     100.00

 eigenvalues of (default mixing * dielectric matrix)
  average eigenvalue GAMMA=   0.4987
  2.2441  1.4514  0.7480  0.7480  0.6806  0.4533  0.4533  0.3589  0.2401  0.2401
  0.1297  0.1297  0.0891  0.1422  0.1295  0.1295  0.1110

 Free energy of the ion-electron system (eV)
  ---------------------------------------------------
  alpha Z        PSCENC =      1094.16350177
  Ewald energy   TEWEN  =    -19257.57899597
  -Hartree energ DENC   =    -12156.39164099
  -exchange      EXHF   =         0.00000000
  -V(xc)+E(xc)   XCENC  =      1416.26051977
  PAW double counting   =     39942.46148721   -41155.51539831
  entropy T*S    EENTRO =        -0.04466138
  eigenvalues    EBANDS =     -1136.48816615
  atomic energy  EATOM  =     31013.67235384
  Solvation  Ediel_sol  =         0.00000000
  ---------------------------------------------------
  free energy    TOTEN  =      -239.46100022 eV

  energy without entropy =     -239.41633884  energy(sigma->0) =     -239.43866953


--------------------------------------------------------------------------------------------------------




--------------------------------------- Iteration      1(  23)  ---------------------------------------


    POTLOK:  cpu time    0.1233: real time    0.1236
    SETDIJ:  cpu time    0.0168: real time    0.0168
     EDDAV:  cpu time   95.0464: real time   95.2712
    CHARGE:  cpu time    2.5844: real time    2.5905
    MIXING:  cpu time    0.0056: real time    0.0056
    --------------------------------------------
      LOOP:  cpu time   97.7764: real time   98.0077

 eigenvalue-minimisations  : 50736
 total energy-change (2. order) : 0.5158098E-01  (-0.1535229E-01)
 number of electron     351.9999971 magnetization       0.5511970
 augmentation part      115.7674711 magnetization      -0.0187865

 Broyden mixing:
  rms(total) = 0.45950E+00    rms(broyden)= 0.45936E+00
  rms(prec ) = 0.65743E+00
  weight for this iteration     100.00

 eigenvalues of (default mixing * dielectric matrix)
  average eigenvalue GAMMA=   0.5125
  2.2836  1.6167  0.8481  0.8481  0.5634  0.5634  0.4688  0.4688  0.2988  0.2327
  0.1714  0.1297  0.1297  0.0891  0.1496  0.1262  0.1262  0.1106

 Free energy of the ion-electron system (eV)
  ---------------------------------------------------
  alpha Z        PSCENC =      1094.16350177
  Ewald energy   TEWEN  =    -19257.57899597
  -Hartree energ DENC   =    -12156.17820260
  -exchange      EXHF   =         0.00000000
  -V(xc)+E(xc)   XCENC  =      1416.26210503
  PAW double counting   =     39978.63596252   -41191.20600466
  entropy T*S    EENTRO =        -0.04519679
  eigenvalues    EBANDS =     -1137.13494238
  atomic energy  EATOM  =     31013.67235384
  Solvation  Ediel_sol  =         0.00000000
  ---------------------------------------------------
  free energy    TOTEN  =      -239.40941924 eV

  energy without entropy =     -239.36422245  energy(sigma->0) =     -239.38682084


--------------------------------------------------------------------------------------------------------




--------------------------------------- Iteration      1(  24)  ---------------------------------------


    POTLOK:  cpu time    0.1209: real time    0.1211
    SETDIJ:  cpu time    0.0169: real time    0.0169
     EDDAV:  cpu time   76.7124: real time   76.8939
    CHARGE:  cpu time    1.9786: real time    1.9833
    MIXING:  cpu time    0.0047: real time    0.0047
    --------------------------------------------
      LOOP:  cpu time   78.8334: real time   79.0199

 eigenvalue-minimisations  : 44320
 total energy-change (2. order) : 0.8503476E-02  (-0.1040838E-01)
 number of electron     351.9999971 magnetization       0.5706692
 augmentation part      115.8287337 magnetization       0.0643870

 Broyden mixing:
  rms(total) = 0.43681E+00    rms(broyden)= 0.43672E+00
  rms(prec ) = 0.60907E+00
  weight for this iteration     100.00

 eigenvalues of (default mixing * dielectric matrix)
  average eigenvalue GAMMA=   0.5207
  2.3492  1.7270  0.9065  0.9065  0.6467  0.6467  0.4441  0.4441  0.3339  0.2662
  0.2116  0.1726  0.1297  0.1297  0.0891  0.1286  0.1286  0.1239  0.1090

 Free energy of the ion-electron system (eV)
  ---------------------------------------------------
  alpha Z        PSCENC =      1094.16350177
  Ewald energy   TEWEN  =    -19257.57899597
  -Hartree energ DENC   =    -12155.92861901
  -exchange      EXHF   =         0.00000000
  -V(xc)+E(xc)   XCENC  =      1416.26143239
  PAW double counting   =     39980.80076135   -41192.80068850
  entropy T*S    EENTRO =        -0.04337534
  eigenvalues    EBANDS =     -1137.94728629
  atomic energy  EATOM  =     31013.67235384
  Solvation  Ediel_sol  =         0.00000000
  ---------------------------------------------------
  free energy    TOTEN  =      -239.40091576 eV

  energy without entropy =     -239.35754042  energy(sigma->0) =     -239.37922809


--------------------------------------------------------------------------------------------------------




--------------------------------------- Iteration      1(  25)  ---------------------------------------


    POTLOK:  cpu time    0.1054: real time    0.1057
[...]
  0.000   0.000  -0.000  -0.002  -0.000  -0.000  -0.000   0.000   0.002   0.000  -0.000   0.000   0.000  -0.000   0.000  -0.000


------------------------ aborting loop because EDIFF is reached ----------------------------------------


    CHARGE:  cpu time    2.9494: real time    2.9564
    FORLOC:  cpu time    0.0246: real time    0.0247
    FORNL :  cpu time   20.1431: real time   20.1908
    STRESS:  cpu time   60.4315: real time   60.5745
    FORCOR:  cpu time    0.1402: real time    0.1406
    FORHAR:  cpu time    0.0374: real time    0.0375
    MIXING:  cpu time    0.0114: real time    0.0115
    OFIELD:  cpu time    0.0001: real time    0.0001

  FORCE on cell =-STRESS in cart. coord.  units (eV):
  Direction    XX          YY          ZZ          XY          YZ          ZX
  --------------------------------------------------------------------------------------
  Alpha Z  1094.16350  1094.16350  1094.16350
  Ewald   -6216.52480 -6083.80596 -6957.36360  1247.90223    47.66592   104.55520
  Hartree  4111.21717  4254.46947  3792.87916   888.53893   -68.38682   -64.04872
  E(xc)   -1809.90940 -1809.73781 -1810.02747     0.29645    -0.52393    -0.21943
  Local   -4763.68917 -5053.42953 -3749.30919 -2102.51854    55.36542     4.02540
  n-local  -690.13226  -694.59136  -692.30412     4.65567    10.42200     8.99340
  augment  2968.86215  2974.62224  2992.67942   -12.65702   -13.57925   -16.10080
  Kinetic  5438.17924  5450.01519  5478.88612   -31.30325    -9.57910   -19.03648
  Fock        0.00000     0.00000     0.00000     0.00000     0.00000     0.00000
  -------------------------------------------------------------------------------------
  Total      132.1664289    131.7057462    149.6038255     -5.0855472     21.3842425     18.1685875
  in kB      422.7271441    421.2536753    478.4997098    -16.2658465     68.3963381     58.1112404
  external PRESSURE =     440.8268430 kB  Pullay stress =       0.0000000 kB


 VOLUME and BASIS-vectors are now :
 -----------------------------------------------------------------------------
  energy-cutoff  :      500.00
  volume of cell :      500.92
      direct lattice vectors                 reciprocal lattice vectors
     7.941890000  0.000000000  0.000000000     0.125914612  0.000000000  0.000000000
     0.000000000  7.941890000  0.000000000     0.000000000  0.125914612  0.000000000
     0.000000000  0.000000000  7.941890000     0.000000000  0.000000000  0.125914612

  length of vectors
     7.941890000  7.941890000  7.941890000     0.125914612  0.125914612  0.125914612


 FORCES acting on ions
    electron-ion (+dipol)            ewald-force                    non-local-force                 convergence-correction
 -----------------------------------------------------------------------------------------------
   -.122E+03 0.226E+02 -.151E+03   0.129E+03 -.210E+02 0.190E+03   -.163E+01 -.103E+01 -.436E+01   -.262E-02 -.285E-02 -.754E-02
   -.108E+02 0.147E+03 -.154E+03   0.960E+01 -.165E+03 0.197E+03   0.150E+01 0.567E+01 -.338E+01   0.108E-01 0.513E-02 -.211E-01
   -.317E+02 0.109E+03 -.566E+02   0.333E+02 -.109E+03 0.582E+02   -.416E+00 0.235E+01 0.987E+00   0.441E-02 -.536E-02 0.218E-02
   -.555E+01 0.516E+02 -.698E+02   0.283E+00 -.546E+02 0.647E+02   -.183E+01 0.103E+01 -.769E+00   -.346E-02 0.578E-02 0.578E-02
   0.136E+03 -.669E+02 -.189E+03   -.147E+03 0.672E+02 0.202E+03   0.118E+01 0.579E+00 -.557E+00   -.584E-02 0.269E-02 0.742E-02
   -.122E+03 -.128E+03 0.352E+02   0.137E+03 0.133E+03 -.417E+02   -.125E+01 -.433E+01 0.847E+00   0.249E-03 -.669E-02 0.301E-02
   -.808E+02 0.963E+02 0.537E+02   0.790E+02 -.954E+02 -.555E+02   0.315E+01 -.191E+00 0.971E+00   0.136E-01 -.301E-02 -.460E-02
   0.188E+03 -.181E+02 -.129E+02   -.197E+03 0.137E+02 0.165E+02   -.115E+01 0.331E+01 -.223E+01   -.477E-02 -.612E-02 -.519E-02
   -.108E+03 -.235E+02 0.100E+02   0.108E+03 0.277E+02 -.849E+01   -.101E+01 0.591E+00 -.135E+01   0.162E-02 0.383E-02 0.114E-01
   0.153E+03 0.112E+03 -.191E+03   -.158E+03 -.118E+03 0.198E+03   0.837E+00 0.237E+01 -.211E+00   -.714E-02 0.106E-01 0.150E-01
   0.102E+03 0.163E+03 0.217E+03   -.107E+03 -.175E+03 -.220E+03   0.160E+01 0.822E+00 -.279E+00   -.144E-01 0.559E-02 -.334E-02
   0.561E+02 -.152E+03 -.447E+02   -.566E+02 0.156E+03 0.419E+02   -.888E+00 -.151E+01 0.174E+01   -.330E-02 0.151E-01 0.172E-02
   -.141E+03 -.303E+03 0.554E+01   0.157E+03 0.312E+03 -.492E+01   -.302E+01 -.380E+00 -.117E+01   0.923E-02 -.385E-03 -.156E-01
   -.860E+02 0.291E+02 -.141E+02   0.957E+02 -.314E+02 0.100E+02   -.205E+01 -.509E-01 0.168E+01   -.760E-02 -.598E-02 -.533E-02
   0.933E+02 0.219E+03 0.875E+02   -.928E+02 -.235E+03 -.939E+02   -.192E+01 0.196E+01 0.249E+01   -.399E-02 0.833E-02 0.417E-02
   -.264E+02 -.190E+03 -.746E+02   0.209E+02 0.204E+03 0.769E+02   0.346E+01 -.396E+01 -.384E+00   0.505E-02 -.500E-02 -.952E-03
   -.100E+03 0.218E+03 0.231E+03   0.103E+03 -.230E+03 -.247E+03   -.331E+01 0.139E+02 0.171E+02   -.421E-02 -.655E-03 -.750E-02
   -.329E+03 -.133E+03 -.215E+03   0.360E+03 0.139E+03 0.220E+03   -.253E+02 -.693E+01 -.551E+01   0.393E-02 0.289E-02 0.292E-02
   0.293E+03 -.380E+03 -.151E+03   -.333E+03 0.417E+03 0.167E+03   0.280E+02 -.189E+02 -.134E+02   0.274E-02 0.101E-02 -.492E-02
   -.141E+03 -.158E+03 0.325E+03   0.153E+03 0.161E+03 -.360E+03   -.107E+02 -.304E+01 0.218E+02   -.106E-02 0.306E-02 0.506E-02
   0.151E+03 0.202E+03 0.162E+03   -.162E+03 -.220E+03 -.167E+03   0.106E+02 0.185E+02 0.329E+01   -.241E-03 -.230E-02 0.138E-02
   -.184E+03 0.242E+03 -.168E+03   0.199E+03 -.254E+03 0.182E+03   -.131E+02 0.116E+02 -.149E+02   -.731E-03 -.616E-02 -.324E-02
   0.153E+03 0.283E+03 -.136E+03   -.155E+03 -.315E+03 0.138E+03   -.408E+00 0.182E+02 -.292E+01   0.623E-02 0.671E-03 -.113E-03
   0.240E+03 -.220E+03 0.180E+03   -.252E+03 0.232E+03 -.195E+03   0.113E+02 -.116E+02 0.136E+02   -.302E-02 0.610E-02 -.393E-02
   -.125E+03 0.268E+03 0.110E+03   0.131E+03 -.284E+03 -.113E+03   -.564E+01 0.106E+02 0.430E+01   -.308E-02 0.168E-03 0.754E-02
   -.336E+03 -.858E+02 -.269E+03   0.368E+03 0.877E+02 0.290E+03   -.254E+02 -.373E+01 -.167E+02   -.997E-03 -.149E-02 -.875E-03
   0.148E+03 -.298E+03 -.125E+03   -.157E+03 0.322E+03 0.129E+03   0.923E+01 -.205E+02 -.405E+01   0.114E-02 -.224E-03 0.319E-02
   -.178E+03 -.140E+03 0.464E+03   0.194E+03 0.157E+03 -.522E+03   -.150E+02 -.165E+02 0.252E+02   -.245E-02 -.119E-02 -.100E-01
   0.103E+03 0.192E+03 0.543E+03   -.119E+03 -.218E+03 -.617E+03   0.749E+01 0.197E+02 0.310E+02   0.114E-01 0.285E-02 -.628E-02
   -.221E+03 0.235E+03 -.314E+03   0.237E+03 -.247E+03 0.339E+03   -.144E+02 0.101E+02 -.195E+02   0.245E-03 0.575E-02 0.514E-02
   0.179E+03 0.194E+03 -.159E+03   -.189E+03 -.212E+03 0.173E+03   0.112E+02 0.180E+02 -.140E+02   0.236E-02 0.148E-01 0.235E-02
   0.400E+03 -.225E+03 0.143E+03   -.439E+03 0.236E+03 -.152E+03   0.217E+02 -.944E+01 0.774E+01   -.235E-02 -.386E-02 0.317E-02
   -.411E+03 0.197E+03 0.119E+03   0.454E+03 -.205E+03 -.129E+03   -.279E+02 0.719E+01 0.113E+02   0.943E-03 -.358E-03 0.322E-02
   -.107E+03 -.354E+03 -.114E+03   0.120E+03 0.389E+03 0.123E+03   -.141E+02 -.251E+02 -.800E+01   -.159E-01 0.545E-02 -.331E-02
   0.266E+03 -.290E+03 -.242E+03   -.282E+03 0.316E+03 0.256E+03   0.160E+02 -.194E+02 -.140E+02   -.487E-02 0.327E-02 0.861E-02
   -.114E+03 -.208E+03 0.156E+03   0.120E+03 0.224E+03 -.163E+03   -.727E+01 -.176E+02 0.775E+01   0.653E-02 -.116E-01 -.140E-02
   0.124E+03 0.169E+03 0.243E+03   -.134E+03 -.180E+03 -.254E+03   0.119E+02 0.120E+02 0.119E+02   -.341E-02 -.430E-02 -.205E-02
   -.289E+03 0.226E+03 -.168E+03   0.308E+03 -.247E+03 0.176E+03   -.132E+02 0.190E+02 -.871E+01   0.254E-02 -.546E-02 0.474E-02
   0.265E+03 0.157E+03 -.139E+03   -.286E+03 -.166E+03 0.145E+03   0.223E+02 0.927E+01 -.699E+01   -.479E-02 0.231E-02 -.284E-02
   0.195E+03 -.170E+03 0.146E+03   -.203E+03 0.179E+03 -.159E+03   0.927E+01 -.105E+02 0.136E+02   0.126E-02 0.653E-02 0.166E-01
   -.242E+03 0.241E+03 0.153E+03   0.256E+03 -.256E+03 -.166E+03   -.135E+02 0.813E+01 0.124E+02   0.815E-02 -.113E-03 -.450E-02
   -.130E+03 -.327E+03 -.284E+03   0.136E+03 0.365E+03 0.306E+03   -.522E+01 -.208E+02 -.188E+02   -.993E-03 -.169E-02 0.260E-02
   0.310E+03 -.140E+03 -.217E+03   -.332E+03 0.152E+03 0.237E+03   0.156E+02 -.109E+02 -.181E+02   -.916E-02 -.273E-03 -.460E-02
   -.199E+03 -.195E+03 0.108E+03   0.210E+03 0.214E+03 -.117E+03   -.117E+02 -.212E+02 0.107E+02   0.111E-02 -.579E-03 -.132E-02
   0.220E+03 0.180E+03 0.322E+03   -.229E+03 -.194E+03 -.355E+03   0.976E+01 0.143E+02 0.249E+02   -.310E-02 0.258E-02 -.129E-03
   -.418E+03 0.205E+03 -.137E+03   0.455E+03 -.225E+03 0.147E+03   -.289E+02 0.171E+02 -.893E+01   0.601E-02 0.380E-03 -.153E-01
   0.200E+03 0.184E+03 -.285E+03   -.218E+03 -.193E+03 0.299E+03   0.200E+02 0.839E+01 -.126E+02   -.911E-03 -.319E-02 0.543E-02
   0.298E+03 -.137E+03 0.228E+03   -.326E+03 0.145E+03 -.243E+03   0.202E+02 -.717E+01 0.145E+02   -.309E-03 -.231E-02 -.539E-02
 -----------------------------------------------------------------------------------------------
   0.139E+02 0.149E+00 -.379E+02   -.739E-12 0.114E-12 0.227E-12   -.138E+02 -.155E+00 0.379E+02   -.153E-01 0.337E-01 -.188E-01
 
 
 POSITION                                       TOTAL-FORCE (eV/Angst)
 -----------------------------------------------------------------------------------
      1.12613      4.96884      0.83721         4.982898      0.597428     33.913127
      3.16794      7.08949      0.78252         0.314465    -11.998527     39.385668
      2.90470      4.73619      2.71378         1.236683      2.329854      2.563828
      1.34719      6.87966      3.11224        -7.095933     -1.884303     -5.820700
      1.05719      1.00480      4.75499        -9.664903      0.889784     13.158039
      2.77622      3.06656      5.18946        13.406008      0.609036     -5.589266
      2.61060      0.80498      6.90879         1.413395      0.721395     -0.828751
      1.20181      3.08584      7.11158        -9.783644     -1.048624      1.356644
      5.01190      4.77318      4.93643        -1.391595      4.878006      0.201686
      7.20260      6.98388      4.71903        -3.864685     -3.737952      7.363171
      7.23222      5.05522      7.09493        -3.763152    -10.286334     -3.768791
      5.35737      6.83960      6.81327        -1.389943      2.624468     -1.007931
      4.46244      1.02213      1.11398        12.887473      8.068585     -0.565414
      6.94465      2.98089      1.17993         7.617554     -2.312931     -2.406680
      7.03328      1.07506      2.96394        -1.373848    -13.940060     -3.903020
      4.95459      3.18639      2.95940        -2.026448      9.489015      1.929759
      6.75213      0.99519      1.08137        -0.024178      1.299839      0.941567
      2.90338      6.93873      2.89166         5.800355     -0.702439     -0.176864
      3.02474      0.55340      1.00370       -11.875679     17.784725      1.692146
      0.68137      0.84761      3.32954         1.481100     -0.586996    -13.213981
      3.14121      2.92834      3.23179        -1.097334      1.043643     -1.297119
      0.82625      2.99455      1.12880         1.032292     -0.215646     -0.984392
      5.21191      1.74309      2.64924        -2.719665    -13.173718     -0.774209
      1.10764      6.92387      1.37115         0.063798     -0.239355     -1.288154
      6.78607      5.39516      5.11070         0.654152     -5.434880      1.702306
      2.72350      2.83875      6.83283         6.966147     -1.813805      3.715441
      3.07084      4.73802      4.81502         0.176348      3.131768     -0.636476
      1.08209      5.03503      7.44863         0.809115      0.277783    -33.256513
      2.93199      6.85970      7.49216        -7.965723     -6.112922    -42.875893
      0.96491      7.15024      4.68734         1.880522     -1.549547      5.854277
      5.16411      5.09648      6.84938         0.640553     -0.416864     -0.515905
      1.35048      2.71143      5.11496       -17.285997      1.687797     -0.851830
      2.52070      1.19784      4.85946        14.459442     -1.388927      1.923112
      7.20098      6.56973      7.16378        -0.988028     10.320631      0.507617
      6.89742      0.56026      4.89613         0.139590      6.626061      0.131349
      4.89761      0.69044      6.80969        -1.196517     -0.835886      0.798802
      6.58403      3.02441      7.13071         2.542285      1.359080      1.086740
      4.44525      3.11735      5.17147         4.913456     -1.338634     -0.268192
      0.75273      1.21889      6.94606         1.749516      0.087760     -0.292929
      4.95351      6.90101      4.85590         1.273163     -1.634973      1.555872
      2.95547      5.40003      1.03712        -0.108632     -5.966875      0.016450
      6.71160      2.46239      3.23953         0.897438     16.914672      3.154732
      7.43665      4.75054      0.89790        -6.328702      0.535137      1.621144
      4.83204      5.12292      2.77709        -0.969892     -2.538988      1.774633
      7.19729      6.61083      3.22179         0.739422     -0.170428     -8.045184
      4.70166      7.32336      0.98974         8.542220     -3.065488      0.733493
      0.98315      4.92917      2.62628         2.372148     -0.317236      1.850762
      5.41294      3.07844      0.98448        -8.077041      1.435871     -0.564172
 -----------------------------------------------------------------------------------
    total drift:                                0.015183      0.027079     -0.026737


--------------------------------------------------------------------------------------------------------



  FREE ENERGIE OF THE ION-ELECTRON SYSTEM (eV)
  ---------------------------------------------------
  free  energy   TOTEN  =      -239.3976941062 eV

  energy  without entropy=     -239.3574703155  energy(sigma->0) =     -239.37758221
 


--------------------------------------------------------------------------------------------------------


    POTLOK:  cpu time    0.1525: real time    0.1528


--------------------------------------------------------------------------------------------------------


     LOOP+:  cpu time 6358.3359: real time 6373.6458
    4ORBIT:  cpu time    0.0000: real time    0.0000

volume of typ            1:    20.3 %

volume of typ            2:    10.4 %
 
total charge     
 
# of ion       s       p       d       tot
------------------------------------------
    1        0.442   0.732   8.064   9.238
    2        0.600   0.990   8.243   9.833
    3        0.266   0.317   7.836   8.420
    4        0.366   0.516   7.910   8.792
    5        0.441   0.653   8.050   9.144
    6        0.424   0.702   7.978   9.104
    7        0.226   0.226   7.913   8.365
    8        0.305   0.369   7.941   8.615
    9        0.267   0.324   7.821   8.412
   10        0.425   0.625   7.959   9.008
   11        0.344   0.462   7.921   8.727
   12        0.274   0.320   7.841   8.435
   13        0.348   0.432   8.005   8.785
   14        0.322   0.463   7.884   8.670
   15        0.380   0.507   8.020   8.907
   16        0.329   0.457   7.960   8.746
   17        1.300   2.646   0.005   3.951
   18        1.299   2.731   0.012   4.042
   19        1.297   2.936   0.035   4.268
   20        1.291   2.880   0.025   4.196
   21        1.289   2.712   0.007   4.008
   22        1.291   2.695   0.007   3.993
   23        1.307   2.809   0.023   4.140
   24        1.300   2.690   0.007   3.997
   25        1.276   2.771   0.009   4.056
   26        1.286   2.823   0.020   4.129
   27        1.290   2.710   0.008   4.008
   28        1.304   2.905   0.036   4.244
   29        1.322   2.892   0.038   4.251
   30        1.278   2.844   0.016   4.138
   31        1.295   2.687   0.008   3.991
   32        1.288   2.867   0.023   4.177
   33        1.302   2.800   0.020   4.122
   34        1.295   2.769   0.016   4.081
   35        1.301   2.751   0.013   4.065
   36        1.297   2.631   0.004   3.932
   37        1.315   2.582   0.003   3.900
   38        1.290   2.752   0.011   4.053
   39        1.297   2.658   0.006   3.961
   40        1.308   2.605   0.003   3.916
   41        1.278   2.802   0.011   4.091
   42        1.306   2.803   0.025   4.133
   43        1.289   2.798   0.014   4.101
   44        1.298   2.644   0.005   3.947
   45        1.307   2.724   0.014   4.044
   46        1.297   2.801   0.019   4.116
   47        1.295   2.701   0.007   4.004
   48        1.308   2.724   0.014   4.046
--------------------------------------------------
tot          47.25   96.24  127.81  271.30
 
magnetization (x)
 
# of ion       s       p       d       tot
------------------------------------------
    1        0.000   0.001   0.025   0.026
    2       -0.002  -0.001  -0.090  -0.093
    3       -0.001  -0.001  -0.030  -0.031
    4       -0.000  -0.000  -0.029  -0.029
    5        0.001   0.000   0.025   0.026
    6        0.000  -0.000  -0.003  -0.003
    7       -0.002  -0.000  -0.578  -0.581
    8        0.000   0.001   0.063   0.064
    9        0.000   0.001   0.084   0.085
   10        0.001  -0.000  -0.087  -0.087
   11       -0.000  -0.001  -0.141  -0.142
   12        0.003  -0.010  -0.681  -0.688
   13       -0.002  -0.005  -0.076  -0.082
   14       -0.000  -0.000   0.065   0.064
   15       -0.002  -0.000   0.045   0.043
   16        0.000   0.001   0.352   0.354
   17        0.002   0.123  -0.000   0.125
   18       -0.000  -0.000  -0.000  -0.000
   19       -0.002  -0.032  -0.000  -0.034
   20        0.000   0.020   0.000   0.020
   21        0.000   0.011  -0.000   0.012
   22        0.001   0.013   0.000   0.013
   23        0.007   0.218   0.000   0.225
   24       -0.001  -0.064   0.000  -0.065
   25       -0.002  -0.075   0.000  -0.077
   26       -0.001  -0.018  -0.000  -0.020
   27        0.001   0.029   0.000   0.030
   28       -0.000   0.022   0.000   0.022
   29       -0.003  -0.089  -0.000  -0.092
   30        0.000   0.008  -0.000   0.008
   31       -0.001  -0.069   0.000  -0.070
   32        0.000  -0.005   0.000  -0.005
   33       -0.002  -0.036   0.000  -0.038
   34       -0.005  -0.242   0.000  -0.246
   35        0.000  -0.010  -0.000  -0.010
   36       -0.005  -0.248  -0.000  -0.253
   37        0.000   0.002   0.000   0.003
   38        0.001   0.021  -0.000   0.022
   39       -0.000  -0.001   0.000  -0.001
   40       -0.004  -0.225   0.000  -0.229
   41       -0.000   0.013  -0.000   0.013
   42        0.002   0.047   0.000   0.049
   43       -0.000   0.000   0.000   0.000
   44        0.003   0.156  -0.000   0.159
   45       -0.001  -0.029  -0.000  -0.030
   46       -0.002  -0.059  -0.000  -0.061
   47       -0.000  -0.026   0.000  -0.026
   48        0.001   0.076  -0.000   0.077
--------------------------------------------------
tot          -0.02   -0.48   -1.06   -1.56
 

 total amount of memory used by VASP MPI-rank0   317787. kBytes
=======================================================================

   base      :      30000. kBytes
   nonlr-proj:      24226. kBytes
   fftplans  :       4751. kBytes
   grid      :      26734. kBytes
   one-center:       1492. kBytes
   wavefun   :     230584. kBytes
 
  
  
 General timing and accounting informations for this job:
 ========================================================
  
                  Total CPU time used (sec):     6409.235
                            User time (sec):     6402.157
                          System time (sec):        7.078
                         Elapsed time (sec):     6428.384
  
                   Maximum memory used (kb):      393016.
                   Average memory used (kb):           0.
  
                          Minor page faults:        43277
                          Major page faults:           11
                 Voluntary context switches:         1167
