 vasp.5.4.4.18Apr17-6-g9f103f2a35 (build May 12 2020 04:58:55) complex          
  
 MD_VERSION_INFO: Compiled 2020-05-12T11:58:55-UTC in devlin.sd.materialsdesign.
 com:/home/medea2/data/build/wwolf/vasp-gpu5.4.4/13047/x86_64/src/src/build/std 
 from svn 13047
 
 This VASP executable licensed from Materials Design, Inc.
 
 executed on                        Lin64 date 2023.03.24  20:58:48
 running on   16 total cores
 distrk:  each k-point on   16 cores,    1 groups
 distr:  one band on NCORES_PER_BAND=   1 cores,   16 groups


--------------------------------------------------------------------------------------------------------


 INCAR:
 POTCAR:    PAW_PBE Ni 02Aug2007                  
 POTCAR:    PAW_PBE O 08Apr2002                   

 ----------------------------------------------------------------------------- 
|                                                                             |
|           W    W    AA    RRRRR   N    N  II  N    N   GGGG   !!!           |
|           W    W   A  A   R    R  NN   N  II  NN   N  G    G  !!!           |
|           W    W  A    A  R    R  N N  N  II  N N  N  G       !!!           |
|           W WW W  AAAAAA  RRRRR   N  N N  II  N  N N  G  GGG   !            |
|           WW  WW  A    A  R   R   N   NN  II  N   NN  G    G                |
|           W    W  A    A  R    R  N    N  II  N    N   GGGG   !!!           |
|                                                                             |
|      For optimal performance we recommend to set                            |
|        NCORE= 4 - approx SQRT( number of cores)                             |
|      NCORE specifies how many cores store one orbital (NPAR=cpu/NCORE).     |
|      This setting can  greatly improve the performance of VASP for DFT.     |
|      The default,   NCORE=1            might be grossly inefficient         |
|      on modern multi-core architectures or massively parallel machines.     |
|      Do your own testing !!!!                                               |
|      Unfortunately you need to use the default for GW and RPA calculations. |
|      (for HF NCORE is supported but not extensively tested yet)             |
|                                                                             |
 ----------------------------------------------------------------------------- 

 POTCAR:    PAW_PBE Ni 02Aug2007                  
  local pseudopotential read in
  partial core-charges read in
  partial kinetic energy density read in
  atomic valenz-charges read in
  non local Contribution for L=           2  read in
    real space projection operators read in
  non local Contribution for L=           2  read in
    real space projection operators read in
  non local Contribution for L=           0  read in
    real space projection operators read in
  non local Contribution for L=           0  read in
    real space projection operators read in
  non local Contribution for L=           1  read in
    real space projection operators read in
  non local Contribution for L=           1  read in
    real space projection operators read in
    PAW grid and wavefunctions read in
 
   number of l-projection  operators is LMAX  =           6
   number of lm-projection operators is LMMAX =          18
 
 POTCAR:    PAW_PBE O 08Apr2002                   
  local pseudopotential read in
  partial core-charges read in
  partial kinetic energy density read in
  kinetic energy density of atom read in
  atomic valenz-charges read in
  non local Contribution for L=           0  read in
    real space projection operators read in
  non local Contribution for L=           0  read in
    real space projection operators read in
  non local Contribution for L=           1  read in
    real space projection operators read in
  non local Contribution for L=           1  read in
    real space projection operators read in
    PAW grid and wavefunctions read in
 
   number of l-projection  operators is LMAX  =           4
   number of lm-projection operators is LMMAX =           8
 
 Optimization of the real space projectors (new method)

 maximal supplied QI-value         = 16.25
 optimisation between [QCUT,QGAM] = [ 11.38, 22.75] = [ 36.24,144.96] Ry 
 Optimized for a Real-space Cutoff    1.47 Angstroem

   l    n(q)    QCUT    max X(q) W(low)/X(q) W(high)/X(q)  e(spline) 
   2      9    11.376    60.317    0.17E-03    0.16E-04    0.16E-06
   2      9    11.376    55.921    0.17E-03    0.16E-04    0.17E-06
   0     10    11.376    51.690    0.45E-04    0.60E-04    0.21E-06
   0     10    11.376    30.015    0.37E-04    0.55E-04    0.19E-06
   1     10    11.376    18.849    0.83E-04    0.11E-03    0.92E-07
   1     10    11.376    14.624    0.69E-04    0.92E-04    0.82E-07
 Optimization of the real space projectors (new method)

 maximal supplied QI-value         = 24.76
 optimisation between [QCUT,QGAM] = [ 11.39, 22.77] = [ 36.31,145.25] Ry 
 Optimized for a Real-space Cutoff    1.10 Angstroem

   l    n(q)    QCUT    max X(q) W(low)/X(q) W(high)/X(q)  e(spline) 
   0      7    11.387    20.381    0.22E-03    0.48E-03    0.18E-06
   0      7    11.387    15.268    0.22E-03    0.52E-03    0.19E-06
   1      7    11.387     5.964    0.22E-03    0.73E-03    0.24E-06
   1      7    11.387     5.382    0.19E-03    0.60E-03    0.21E-06

 ----------------------------------------------------------------------------- 
|                                                                             |
|  ADVICE TO THIS USER RUNNING 'VASP/VAMP'   (HEAR YOUR MASTER'S VOICE ...):  |
|                                                                             |
|      You enforced a specific xc-type in the INCAR file,                     |
|      a different type was found on the POTCAR file                          |
|          I HOPE YOU KNOW, WHAT YOU ARE  DOING                               |
|                                                                             |
 ----------------------------------------------------------------------------- 

  PAW_PBE Ni 02Aug2007                  :
 energy of atom  1       EATOM=-1077.6739
 kinetic energy error for atom=    0.0030 (will be added to EATOM!!)
  PAW_PBE O 08Apr2002                   :
 energy of atom  2       EATOM= -432.3788
 kinetic energy error for atom=    0.0224 (will be added to EATOM!!)
 
 
 POSCAR: NiO2_Fd-3m_scale_0_975_disp_0_15_round_1
  positions in direct lattice
  No initial velocities read in
 exchange correlation table for  LEXCH =       14
   RHO(1)=    0.500       N(1)  =     2000
   RHO(2)=  100.500       N(2)  =     4000
 


--------------------------------------------------------------------------------------------------------


 ion  position               nearest neighbor table
   1  0.154  0.655  0.098-  28 1.56  41 1.68  43 1.77  24 1.86  22 2.04  47 2.08   8 2.42  11 2.55
                             2 2.66   3 2.87  14 2.90
   2  0.384  0.909  0.114-  29 1.61  19 1.67  46 1.85  24 1.92  18 2.11  41 2.21   7 2.51  12 2.53
                            13 2.64   1 2.66   3 2.94   4 3.04
   3  0.390  0.643  0.385-  47 1.65  41 1.71  18 1.78  44 1.94  21 1.98  27 2.19  16 2.81   1 2.87
                             4 2.89   9 2.92   2 2.94   6 2.96
   4  0.125  0.906  0.408-  30 1.40  20 1.60  45 1.76  47 1.81  18 1.97  24 1.99  10 2.45  15 2.53
                             5 2.63   3 2.89   2 3.04
   5  0.110  0.148  0.645-  35 1.69  39 1.79  32 1.84  30 1.85  33 1.96  20 1.99  10 2.45   4 2.63
                             6 2.75  15 2.80   7 2.89   8 2.97
   6  0.393  0.363  0.644-  33 1.72  21 1.74  38 1.87  27 1.93  26 1.96  32 2.07   7 2.59  16 2.72
                             5 2.75   3 2.96
   7  0.413  0.107  0.859-  33 1.54  36 1.68  26 1.83  29 1.88  39 2.16  12 2.24  19 2.33   2 2.51
                             6 2.59   5 2.89  13 2.92
   8  0.094  0.390  0.944-  22 1.24  37 1.32  28 1.63  39 2.06  32 2.11  14 2.14   1 2.42  11 2.46
                             5 2.97
   9  0.663  0.673  0.643-  40 1.67  25 1.68  38 1.81  31 1.85  44 2.10  27 2.26  10 2.64  11 2.69
                            12 2.79   3 2.92  16 3.01
  10  0.925  0.892  0.653-  30 1.62  34 1.62  25 1.72  35 1.81  40 2.07  45 2.17   5 2.45   4 2.45
                             9 2.64  11 2.80  15 2.83  12 2.98
  11  0.892  0.630  0.900-  31 1.69  25 1.88  43 1.93  37 1.93  28 2.00  34 2.05   8 2.46  14 2.49
                             1 2.55   9 2.69  10 2.80  12 3.03
  12  0.632  0.923  0.901-  36 1.45  46 1.66  34 1.73  29 1.86  31 2.07  40 2.17   7 2.24  13 2.49
                             2 2.53   9 2.79  10 2.98  11 3.03
  13  0.649  0.122  0.153-  46 1.47  23 1.64  36 1.75  19 1.81  17 1.90  48 1.93  15 2.45  12 2.49
                             2 2.64  16 2.71  14 2.81   7 2.92
  14  0.883  0.397  0.121-  37 1.61  22 1.68  43 1.85  48 1.98  17 2.00  42 2.01   8 2.14  11 2.49
                            13 2.81  16 2.83  15 2.89   1 2.90
  15  0.879  0.119  0.369-  45 1.56  23 1.58  17 1.77  20 1.96  35 1.98  42 2.19  13 2.45   4 2.53
                            16 2.75   5 2.80  10 2.83  14 2.89
  16  0.637  0.378  0.391-  38 1.80  44 1.89  21 1.89  48 1.99  23 2.07  42 2.28  13 2.71   6 2.72
                            15 2.75   3 2.81  14 2.83   9 3.01
  17  0.894  0.140  0.142-  15 1.77  13 1.90  14 2.00
  18  0.376  0.872  0.384-   3 1.78   4 1.97   2 2.11
  19  0.416  0.118  0.160-   2 1.67  13 1.81   7 2.33
  20  0.131  0.111  0.392-   4 1.60  15 1.96   5 1.99
  21  0.395  0.389  0.421-   6 1.74  16 1.89   3 1.98
  22  0.100  0.398  0.103-   8 1.24  14 1.68   1 2.04
  23  0.676  0.115  0.363-  15 1.58  13 1.64  16 2.07
  24  0.140  0.889  0.152-   1 1.86   2 1.92   4 1.99
  25  0.879  0.675  0.662-   9 1.68  10 1.72  11 1.88
  26  0.418  0.341  0.895-   7 1.83   6 1.96
  27  0.379  0.611  0.665-   6 1.93   3 2.19   9 2.26
  28  0.147  0.590  0.908-   1 1.56   8 1.63  11 2.00
  29  0.398  0.871  0.911-   2 1.61  12 1.86   7 1.88
  30  0.121  0.916  0.588-   4 1.40  10 1.62   5 1.85
  31  0.677  0.660  0.882-  11 1.69   9 1.85  12 2.07
  32  0.128  0.384  0.673-   5 1.84   6 2.07   8 2.11
  33  0.361  0.145  0.672-   7 1.54   6 1.72   5 1.96
  34  0.845  0.885  0.846-  10 1.62  12 1.73  11 2.05
  35  0.894  0.123  0.624-   5 1.69  10 1.81  15 1.98
  36  0.619  0.108  0.928-  12 1.45   7 1.68  13 1.75  46 1.95
  37  0.926  0.384  0.918-   8 1.32  14 1.61  11 1.93
  38  0.617  0.446  0.612-  16 1.80   9 1.81   6 1.87
  39  0.137  0.136  0.874-   5 1.79   8 2.06   7 2.16
  40  0.658  0.888  0.624-   9 1.67  10 2.07  12 2.17
  41  0.359  0.630  0.167-   1 1.68   3 1.71   2 2.21
  42  0.931  0.397  0.377-  14 2.01  15 2.19  16 2.28
  43  0.932  0.630  0.146-   1 1.77  14 1.85  11 1.93
  44  0.639  0.622  0.377-  16 1.89   3 1.94   9 2.10
  45  0.900  0.918  0.375-  15 1.56   4 1.76  10 2.17
  46  0.622  0.938  0.114-  13 1.47  12 1.66   2 1.85  36 1.95
  47  0.181  0.684  0.364-   3 1.65   4 1.81   1 2.08
  48  0.629  0.369  0.133-  13 1.93  14 1.98  16 1.99
 
  LATTYP: Found a simple cubic cell.
 ALAT       =     7.7433427500
  
  Lattice vectors:
  
 A1 = (   7.7433427500,   0.0000000000,   0.0000000000)
 A2 = (   0.0000000000,   7.7433427500,   0.0000000000)
 A3 = (   0.0000000000,   0.0000000000,   7.7433427500)


Analysis of symmetry for initial positions (statically):
=====================================================================
 Subroutine PRICEL returns:
 Original cell was already a primitive cell.
 

 Routine SETGRP: Setting up the symmetry group for a 
 simple cubic supercell.


 Subroutine GETGRP returns: Found  1 space group operations
 (whereof  1 operations were pure point group operations)
 out of a pool of 48 trial point group operations.


The static configuration has the point symmetry C_1 .


Analysis of symmetry for dynamics (positions and initial velocities):
=====================================================================
 Subroutine PRICEL returns:
 Original cell was already a primitive cell.
 

 Routine SETGRP: Setting up the symmetry group for a 
 simple cubic supercell.


 Subroutine GETGRP returns: Found  1 space group operations
 (whereof  1 operations were pure point group operations)
 out of a pool of 48 trial point group operations.


The dynamic configuration has the point symmetry C_1 .


Analysis of structural, dynamic, and magnetic symmetry:
=====================================================================
 Subroutine PRICEL returns:
 Original cell was already a primitive cell.
 

 Routine SETGRP: Setting up the symmetry group for a 
 simple cubic supercell.


 Subroutine GETGRP returns: Found  1 space group operations
 (whereof  1 operations were pure point group operations)
 out of a pool of 48 trial point group operations.


The magnetic configuration has the point symmetry C_1 .


 Subroutine INISYM returns: Found  1 space group operations
 (whereof  1 operations are pure point group operations),
 and found     1 'primitive' translations

 
 
 KPOINTS: Automatic mesh                          

Automatic generation of k-mesh.
Space group operators:
 irot       det(A)        alpha          n_x          n_y          n_z        tau_x        tau_y        tau_z
    1     1.000000     0.000000     1.000000     0.000000     0.000000     0.000000     0.000000     0.000000
 
 Subroutine IBZKPT returns following result:
 ===========================================
 
 Found     36 irreducible k-points:
 
 Following reciprocal coordinates:
            Coordinates               Weight
  0.000000  0.000000  0.000000      1.000000
  0.250000  0.000000  0.000000      2.000000
  0.500000  0.000000  0.000000      1.000000
  0.000000  0.250000  0.000000      2.000000
  0.250000  0.250000  0.000000      2.000000
  0.500000  0.250000  0.000000      2.000000
 -0.250000  0.250000  0.000000      2.000000
  0.000000  0.500000  0.000000      1.000000
  0.250000  0.500000  0.000000      2.000000
  0.500000  0.500000  0.000000      1.000000
  0.000000  0.000000  0.250000      2.000000
  0.250000  0.000000  0.250000      2.000000
  0.500000  0.000000  0.250000      2.000000
 -0.250000  0.000000  0.250000      2.000000
  0.000000  0.250000  0.250000      2.000000
  0.250000  0.250000  0.250000      2.000000
  0.500000  0.250000  0.250000      2.000000
 -0.250000  0.250000  0.250000      2.000000
  0.000000  0.500000  0.250000      2.000000
  0.250000  0.500000  0.250000      2.000000
  0.500000  0.500000  0.250000      2.000000
 -0.250000  0.500000  0.250000      2.000000
  0.000000 -0.250000  0.250000      2.000000
  0.250000 -0.250000  0.250000      2.000000
  0.500000 -0.250000  0.250000      2.000000
 -0.250000 -0.250000  0.250000      2.000000
  0.000000  0.000000  0.500000      1.000000
  0.250000  0.000000  0.500000      2.000000
  0.500000  0.000000  0.500000      1.000000
  0.000000  0.250000  0.500000      2.000000
  0.250000  0.250000  0.500000      2.000000
  0.500000  0.250000  0.500000      2.000000
 -0.250000  0.250000  0.500000      2.000000
  0.000000  0.500000  0.500000      1.000000
  0.250000  0.500000  0.500000      2.000000
  0.500000  0.500000  0.500000      1.000000
 
 Following cartesian coordinates:
            Coordinates               Weight
  0.000000  0.000000  0.000000      1.000000
  0.032286  0.000000  0.000000      2.000000
  0.064572  0.000000  0.000000      1.000000
  0.000000  0.032286  0.000000      2.000000
  0.032286  0.032286  0.000000      2.000000
  0.064572  0.032286  0.000000      2.000000
 -0.032286  0.032286  0.000000      2.000000
  0.000000  0.064572  0.000000      1.000000
  0.032286  0.064572  0.000000      2.000000
  0.064572  0.064572  0.000000      1.000000
  0.000000  0.000000  0.032286      2.000000
  0.032286  0.000000  0.032286      2.000000
  0.064572  0.000000  0.032286      2.000000
 -0.032286  0.000000  0.032286      2.000000
  0.000000  0.032286  0.032286      2.000000
  0.032286  0.032286  0.032286      2.000000
  0.064572  0.032286  0.032286      2.000000
 -0.032286  0.032286  0.032286      2.000000
  0.000000  0.064572  0.032286      2.000000
  0.032286  0.064572  0.032286      2.000000
  0.064572  0.064572  0.032286      2.000000
 -0.032286  0.064572  0.032286      2.000000
  0.000000 -0.032286  0.032286      2.000000
  0.032286 -0.032286  0.032286      2.000000
  0.064572 -0.032286  0.032286      2.000000
 -0.032286 -0.032286  0.032286      2.000000
  0.000000  0.000000  0.064572      1.000000
  0.032286  0.000000  0.064572      2.000000
  0.064572  0.000000  0.064572      1.000000
  0.000000  0.032286  0.064572      2.000000
  0.032286  0.032286  0.064572      2.000000
  0.064572  0.032286  0.064572      2.000000
 -0.032286  0.032286  0.064572      2.000000
  0.000000  0.064572  0.064572      1.000000
  0.032286  0.064572  0.064572      2.000000
  0.064572  0.064572  0.064572      1.000000
 


--------------------------------------------------------------------------------------------------------




 Dimension of arrays:
   k-points           NKPTS =     36   k-points in BZ     NKDIM =     36   number of bands    NBANDS=    240
   number of dos      NEDOS =    301   number of ions     NIONS =     48
   non local maximal  LDIM  =      6   non local SUM 2l+1 LMDIM =     18
   total plane-waves  NPLWV = 175616
   max r-space proj   IRMAX =   5128   max aug-charges    IRDMAX=  12459
   dimension x,y,z NGX =    56 NGY =   56 NGZ =   56
   dimension x,y,z NGXF=   112 NGYF=  112 NGZF=  112
   support grid    NGXF=   112 NGYF=  112 NGZF=  112
   ions per type =              16  32
   NGX,Y,Z   is equivalent  to a cutoff of  12.02, 12.02, 12.02 a.u.
   NGXF,Y,Z  is equivalent  to a cutoff of  24.05, 24.05, 24.05 a.u.

 SYSTEM =  unknown system                          
 POSCAR =  NiO2_Fd-3m_scale_0_975_disp_0_15_round_1

 Startparameter for this run:
   NWRITE =      1    write-flag & timer
   PREC   = accura    normal or accurate (medium, high low for compatibility)
   ISTART =      0    job   : 0-new  1-cont  2-samecut
   ICHARG =      2    charge: 1-file 2-atom 10-const
   ISPIN  =      2    spin polarized calculation?
   LNONCOLLINEAR =      F non collinear calculations
   LSORBIT =      F    spin-orbit coupling
   INIWAV =      1    electr: 0-lowe 1-rand  2-diag
   LASPH  =      F    aspherical Exc in radial PAW
   METAGGA=      F    non-selfconsistent MetaGGA calc.

 Electronic Relaxation 1
   ENCUT  =  500.0 eV  36.75 Ry    6.06 a.u.  14.12 14.12 14.12*2*pi/ulx,y,z
   ENINI  =  500.0     initial cutoff
   ENAUG  =  605.4 eV  augmentation charge cutoff
   NELM   =     80;   NELMIN=  2; NELMDL= -5     # of ELM steps 
   EDIFF  = 0.1E-04   stopping-criterion for ELM
   LREAL  =      T    real-space projection
   NLSPLINE    = F    spline interpolate recip. space projectors
   LCOMPAT=      F    compatible to vasp.4.4
   GGA_COMPAT  = T    GGA compatible to vasp.4.4-vasp.4.6
   LMAXPAW     = -100 max onsite density
   LMAXMIX     =    2 max onsite mixed and CHGCAR
   VOSKOWN=      1    Vosko Wilk Nusair interpolation
   ROPT   =   -0.00025  -0.00025
 Ionic relaxation
   EDIFFG = 0.1E-03   stopping-criterion for IOM
   NSW    =      0    number of steps for IOM
   NBLOCK =      1;   KBLOCK =      1    inner block; outer block 
   IBRION =     -1    ionic relax: 0-MD 1-quasi-New 2-CG
   NFREE  =      0    steps in history (QN), initial steepest desc. (CG)
   ISIF   =      2    stress and relaxation
   IWAVPR =     10    prediction:  0-non 1-charg 2-wave 3-comb
   ISYM   =      2    0-nonsym 1-usesym 2-fastsym
   LCORR  =      T    Harris-Foulkes like correction to forces

   POTIM  = 0.5000    time-step for ionic-motion
   TEIN   =    0.0    initial temperature
   TEBEG  =    0.0;   TEEND  =   0.0 temperature during run
   SMASS  =  -3.00    Nose mass-parameter (am)
   estimated Nose-frequenzy (Omega)   =  0.10E-29 period in steps =****** mass=  -0.137E-26a.u.
   SCALEE = 1.0000    scale energy and forces
   NPACO  =    256;   APACO  = 16.0  distance and # of slots for P.C.
   PSTRESS=    0.0 pullay stress

  Mass of Ions in am
   POMASS =  58.69 16.00
  Ionic Valenz
   ZVAL   =  10.00  6.00
  Atomic Wigner-Seitz radii
   RWIGS  =   1.15  0.73
  virtual crystal weights 
   VCA    =   1.00  1.00
   NELECT =     352.0000    total number of electrons
   NUPDOWN=      -1.0000    fix difference up-down

 DOS related values:
   EMIN   =  10.00;   EMAX   =-10.00  energy-range for DOS
   EFERMI =   0.00
   ISMEAR =     0;   SIGMA  =   0.05  broadening in eV -4-tet -1-fermi 0-gaus

 Electronic relaxation 2 (details)
   IALGO  =     38    algorithm
   LDIAG  =      T    sub-space diagonalisation (order eigenvalues)
   LSUBROT=      F    optimize rotation matrix (better conditioning)
   TURBO    =      0    0=normal 1=particle mesh
   IRESTART =      0    0=no restart 2=restart with 2 vectors
   NREBOOT  =      0    no. of reboots
   NMIN     =      0    reboot dimension
   EREF     =   0.00    reference energy to select bands
   IMIX   =      4    mixing-type and parameters
     AMIX     =   0.40;   BMIX     =  1.00
     AMIX_MAG =   1.60;   BMIX_MAG =  1.00
     AMIN     =   0.10
     WC   =   100.;   INIMIX=   1;  MIXPRE=   1;  MAXMIX= -45

 Intra band minimization:
   WEIMIN = 0.0000     energy-eigenvalue tresh-hold
   EBREAK =  0.10E-07  absolut break condition
   DEPER  =   0.30     relativ break condition  

   TIME   =   0.40     timestep for ELM

  volume/ion in A,a.u.               =       9.67        65.27
  Fermi-wavevector in a.u.,A,eV,Ry     =   1.492773  2.820933 30.318849  2.228373
  Thomas-Fermi vector in A             =   2.605259
 
 Write flags
   LWAVE        =      F    write WAVECAR
   LDOWNSAMPLE  =      F    k-point downsampling of WAVECAR
   LCHARG       =      T    write CHGCAR
   LVTOT        =      F    write LOCPOT, total local potential
   LVHAR        =      F    write LOCPOT, Hartree potential only
   LELF         =      F    write electronic localiz. function (ELF)
   LORBIT       =      0    0 simple, 1 ext, 2 COOP (PROOUT), +10 PAW based schemes


 Dipole corrections
   LMONO  =      F    monopole corrections only (constant potential shift)
   LDIPOL =      F    correct potential (dipole corrections)
   IDIPOL =      0    1-x, 2-y, 3-z, 4-all directions 
   EPSILON=  1.0000000 bulk dielectric constant

 Exchange correlation treatment:
   GGA     =    PS    GGA type
   LEXCH   =    14    internal setting for exchange type
   VOSKOWN=      1    Vosko Wilk Nusair interpolation
   LHFCALC =     F    Hartree Fock is set to
   LHFONE  =     F    Hartree Fock one center treatment
   AEXX    =    0.0000 exact exchange contribution

 Linear response parameters
   LEPSILON=     F    determine dielectric tensor
   LRPA    =     F    only Hartree local field effects (RPA)
   LNABLA  =     F    use nabla operator in PAW spheres
   LVEL    =     F    velocity operator in full k-point grid
   LINTERFAST=   F  fast interpolation
   KINTER  =     0    interpolate to denser k-point grid
   CSHIFT  =0.1000    complex shift for real part using Kramers Kronig
   OMEGAMAX=  -1.0    maximum frequency
   DEG_THRESHOLD= 0.2000000E-02 threshold for treating states as degnerate
   RTIME   =   -0.100 relaxation time in fs
  (WPLASMAI=    0.000 imaginary part of plasma frequency in eV, 0.658/RTIME)
   DFIELD  = 0.0000000 0.0000000 0.0000000 field for delta impulse in time
 
 Orbital magnetization related:
   ORBITALMAG=     F  switch on orbital magnetization
   LCHIMAG   =     F  perturbation theory with respect to B field
   DQ        =  0.001000  dq finite difference perturbation B field
   LLRAUG    =     F  two centre corrections for induced B field



--------------------------------------------------------------------------------------------------------


 Static calculation
 charge density and potential will be updated during run
 spin polarized calculation
 Variant of blocked Davidson
 Davidson routine will perform the subspace rotation
 perform sub-space diagonalisation
    after iterative eigenvector-optimisation
 modified Broyden-mixing scheme, WC =      100.0
 initial mixing is a Kerker type mixing with AMIX =  0.4000 and BMIX =      1.0000
 Hartree-type preconditioning will be used
 using additional bands           64
 real space projection scheme for non local part
 use partial core corrections
 calculate Harris-corrections to forces 
   (improved forces if not selfconsistent)
 use gradient corrections 
 use of overlap-Matrix (Vanderbilt PP)
 Gauss-broadening in eV      SIGMA  =   0.05


--------------------------------------------------------------------------------------------------------


  energy-cutoff  :      500.00
  volume of cell :      464.29
      direct lattice vectors                 reciprocal lattice vectors
     7.743342750  0.000000000  0.000000000     0.129143192  0.000000000  0.000000000
     0.000000000  7.743342750  0.000000000     0.000000000  0.129143192  0.000000000
     0.000000000  0.000000000  7.743342750     0.000000000  0.000000000  0.129143192

  length of vectors
     7.743342750  7.743342750  7.743342750     0.129143192  0.129143192  0.129143192


 
 k-points in units of 2pi/SCALE and weight: Automatic mesh                          
   0.00000000  0.00000000  0.00000000       0.016
   0.03228580  0.00000000  0.00000000       0.031
   0.06457160  0.00000000  0.00000000       0.016
   0.00000000  0.03228580  0.00000000       0.031
   0.03228580  0.03228580  0.00000000       0.031
   0.06457160  0.03228580  0.00000000       0.031
  -0.03228580  0.03228580  0.00000000       0.031
   0.00000000  0.06457160  0.00000000       0.016
   0.03228580  0.06457160  0.00000000       0.031
   0.06457160  0.06457160  0.00000000       0.016
   0.00000000  0.00000000  0.03228580       0.031
   0.03228580  0.00000000  0.03228580       0.031
   0.06457160  0.00000000  0.03228580       0.031
  -0.03228580  0.00000000  0.03228580       0.031
   0.00000000  0.03228580  0.03228580       0.031
   0.03228580  0.03228580  0.03228580       0.031
   0.06457160  0.03228580  0.03228580       0.031
  -0.03228580  0.03228580  0.03228580       0.031
   0.00000000  0.06457160  0.03228580       0.031
   0.03228580  0.06457160  0.03228580       0.031
   0.06457160  0.06457160  0.03228580       0.031
  -0.03228580  0.06457160  0.03228580       0.031
   0.00000000 -0.03228580  0.03228580       0.031
   0.03228580 -0.03228580  0.03228580       0.031
   0.06457160 -0.03228580  0.03228580       0.031
  -0.03228580 -0.03228580  0.03228580       0.031
   0.00000000  0.00000000  0.06457160       0.016
   0.03228580  0.00000000  0.06457160       0.031
   0.06457160  0.00000000  0.06457160       0.016
   0.00000000  0.03228580  0.06457160       0.031
   0.03228580  0.03228580  0.06457160       0.031
   0.06457160  0.03228580  0.06457160       0.031
  -0.03228580  0.03228580  0.06457160       0.031
   0.00000000  0.06457160  0.06457160       0.016
   0.03228580  0.06457160  0.06457160       0.031
   0.06457160  0.06457160  0.06457160       0.016
 
 k-points in reciprocal lattice and weights: Automatic mesh                          
   0.00000000  0.00000000  0.00000000       0.016
   0.25000000  0.00000000  0.00000000       0.031
   0.50000000  0.00000000  0.00000000       0.016
   0.00000000  0.25000000  0.00000000       0.031
   0.25000000  0.25000000  0.00000000       0.031
   0.50000000  0.25000000  0.00000000       0.031
  -0.25000000  0.25000000  0.00000000       0.031
   0.00000000  0.50000000  0.00000000       0.016
   0.25000000  0.50000000  0.00000000       0.031
   0.50000000  0.50000000  0.00000000       0.016
   0.00000000  0.00000000  0.25000000       0.031
   0.25000000  0.00000000  0.25000000       0.031
   0.50000000  0.00000000  0.25000000       0.031
  -0.25000000  0.00000000  0.25000000       0.031
   0.00000000  0.25000000  0.25000000       0.031
   0.25000000  0.25000000  0.25000000       0.031
   0.50000000  0.25000000  0.25000000       0.031
  -0.25000000  0.25000000  0.25000000       0.031
   0.00000000  0.50000000  0.25000000       0.031
   0.25000000  0.50000000  0.25000000       0.031
   0.50000000  0.50000000  0.25000000       0.031
  -0.25000000  0.50000000  0.25000000       0.031
   0.00000000 -0.25000000  0.25000000       0.031
   0.25000000 -0.25000000  0.25000000       0.031
   0.50000000 -0.25000000  0.25000000       0.031
  -0.25000000 -0.25000000  0.25000000       0.031
   0.00000000  0.00000000  0.50000000       0.016
   0.25000000  0.00000000  0.50000000       0.031
   0.50000000  0.00000000  0.50000000       0.016
   0.00000000  0.25000000  0.50000000       0.031
   0.25000000  0.25000000  0.50000000       0.031
   0.50000000  0.25000000  0.50000000       0.031
  -0.25000000  0.25000000  0.50000000       0.031
   0.00000000  0.50000000  0.50000000       0.016
   0.25000000  0.50000000  0.50000000       0.031
   0.50000000  0.50000000  0.50000000       0.016
 
 position of ions in fractional coordinates (direct lattice) 
   0.15399993  0.65488165  0.09826844
   0.38445298  0.90947209  0.11425601
   0.38975874  0.64312839  0.38469852
   0.12482286  0.90582426  0.40792000
   0.10951038  0.14812432  0.64545454
   0.39323836  0.36259772  0.64364344
   0.41337306  0.10728771  0.85912438
   0.09443343  0.38976956  0.94363624
   0.66279320  0.67342681  0.64294631
   0.92451715  0.89218142  0.65290431
   0.89225757  0.63038471  0.90000665
   0.63180207  0.92278296  0.90121359
   0.64877830  0.12166469  0.15254485
   0.88325657  0.39740505  0.12140822
   0.87923768  0.11872594  0.36902926
   0.63690537  0.37804574  0.39066258
   0.89380938  0.13992374  0.14227766
   0.37564121  0.87240328  0.38375913
   0.41550488  0.11757443  0.16001972
   0.13140331  0.11145589  0.39217377
   0.39469203  0.38947051  0.42105598
   0.10011316  0.39761829  0.10337752
   0.67586611  0.11529996  0.36301888
   0.14041799  0.88904794  0.15170786
   0.87868137  0.67475980  0.66169725
   0.41784308  0.34082261  0.89488349
   0.37894398  0.61099267  0.66490531
   0.14743040  0.59049422  0.90769480
   0.39791417  0.87071584  0.91106434
   0.12125037  0.91621900  0.58781693
   0.67705795  0.66033718  0.88166221
   0.12817547  0.38383272  0.67338823
   0.36070217  0.14451493  0.67162019
   0.84499975  0.88513722  0.84591128
   0.89413214  0.12273055  0.62365468
   0.61870001  0.10789712  0.92844131
   0.92570261  0.38393918  0.91768495
   0.61733105  0.44576509  0.61212885
   0.13671953  0.13602113  0.87435695
   0.65833340  0.88815091  0.62424589
   0.35893897  0.63002098  0.16672661
   0.93061853  0.39683628  0.37674807
   0.93181791  0.62968264  0.14572382
   0.63938929  0.62199688  0.37730867
   0.89961323  0.91808962  0.37544349
   0.62215482  0.93796661  0.11419854
   0.18123935  0.68363374  0.36446922
   0.62926814  0.36911039  0.13346593
 
 position of ions in cartesian coordinates  (Angst):
   1.19247424  5.07097308  0.76092621
   2.97695120  7.04235411  0.88472345
   3.01803551  4.97996356  2.97885250
   0.96654619  7.01410772  3.15866437
   0.84797641  1.14697738  4.99797573
   3.04497940  2.80771843  4.98395176
   3.20088929  0.83076551  6.65249454
   0.73123042  3.01811930  7.30689884
   5.13223492  5.21457461  4.97855365
   7.15885317  6.90846653  5.05566186
   6.90905619  4.88128487  6.96905997
   4.89225998  7.14542474  6.97840572
   5.02371275  0.94209140  1.18120706
   6.83935836  3.07724351  0.94010546
   6.80823871  0.91933565  2.85752004
   4.93177658  2.92733774  3.02503426
   6.92107238  1.08347748  1.10170469
   2.90871864  6.75531761  2.97157848
   3.21739670  0.91041911  1.23908754
   1.01750087  0.86304116  3.03673592
   3.05623567  3.01580365  3.26038077
   0.77521051  3.07889470  0.80048757
   5.23346294  0.89280711  2.81097961
   1.08730462  6.88420292  1.17472596
   6.80393102  5.22489641  5.12374860
   3.23550218  2.63910629  6.92938958
   2.93429312  4.73112566  5.14858971
   1.14160412  4.57239914  7.02859195
   3.08118580  6.74225119  7.05468345
   0.93888317  7.09459775  4.55166796
   5.24269177  5.11321712  6.82701268
   0.99250660  2.97214831  5.21427587
   2.79304053  1.11902864  5.20058533
   6.54312269  6.85392088  6.55018098
   6.92357162  0.95034471  4.82917194
   4.79080624  0.83548438  7.18923929
   7.16803259  2.97297267  7.10594910
   4.78020591  3.45171188  4.73992349
   1.05866618  1.05325823  6.77044555
   5.09770116  6.87725691  4.83374989
   2.77938747  4.87846839  1.29102129
   7.20609825  3.07283933  2.91728944
   7.21538546  4.87584851  1.12838949
   4.95101042  4.81633503  2.92163035
   6.96601358  7.10908260  2.90718763
   4.81755801  7.26299695  0.88427844
   1.40339841  5.29361036  2.82221009
   4.87263889  2.85814826  1.03347244
 


--------------------------------------------------------------------------------------------------------


 k-point  1 :   0.0000 0.0000 0.0000  plane waves:   11753
 k-point  2 :   0.2500 0.0000 0.0000  plane waves:   11788
 k-point  3 :   0.5000 0.0000 0.0000  plane waves:   11804
 k-point  4 :   0.0000 0.2500 0.0000  plane waves:   11788
 k-point  5 :   0.2500 0.2500 0.0000  plane waves:   11786
 k-point  6 :   0.5000 0.2500 0.0000  plane waves:   11826
 k-point  7 :  -0.2500 0.2500 0.0000  plane waves:   11786
 k-point  8 :   0.0000 0.5000 0.0000  plane waves:   11804
 k-point  9 :   0.2500 0.5000 0.0000  plane waves:   11826
 k-point 10 :   0.5000 0.5000 0.0000  plane waves:   11808
 k-point 11 :   0.0000 0.0000 0.2500  plane waves:   11788
 k-point 12 :   0.2500 0.0000 0.2500  plane waves:   11786
 k-point 13 :   0.5000 0.0000 0.2500  plane waves:   11826
 k-point 14 :  -0.2500 0.0000 0.2500  plane waves:   11786
 k-point 15 :   0.0000 0.2500 0.2500  plane waves:   11786
 k-point 16 :   0.2500 0.2500 0.2500  plane waves:   11785
 k-point 17 :   0.5000 0.2500 0.2500  plane waves:   11784
 k-point 18 :  -0.2500 0.2500 0.2500  plane waves:   11785
 k-point 19 :   0.0000 0.5000 0.2500  plane waves:   11826
 k-point 20 :   0.2500 0.5000 0.2500  plane waves:   11784
 k-point 21 :   0.5000 0.5000 0.2500  plane waves:   11816
 k-point 22 :  -0.2500 0.5000 0.2500  plane waves:   11784
 k-point 23 :   0.0000-0.2500 0.2500  plane waves:   11786
 k-point 24 :   0.2500-0.2500 0.2500  plane waves:   11785
 k-point 25 :   0.5000-0.2500 0.2500  plane waves:   11784
 k-point 26 :  -0.2500-0.2500 0.2500  plane waves:   11785
 k-point 27 :   0.0000 0.0000 0.5000  plane waves:   11804
 k-point 28 :   0.2500 0.0000 0.5000  plane waves:   11826
 k-point 29 :   0.5000 0.0000 0.5000  plane waves:   11808
 k-point 30 :   0.0000 0.2500 0.5000  plane waves:   11826
 k-point 31 :   0.2500 0.2500 0.5000  plane waves:   11784
 k-point 32 :   0.5000 0.2500 0.5000  plane waves:   11816
 k-point 33 :  -0.2500 0.2500 0.5000  plane waves:   11784
 k-point 34 :   0.0000 0.5000 0.5000  plane waves:   11808
 k-point 35 :   0.2500 0.5000 0.5000  plane waves:   11816
 k-point 36 :   0.5000 0.5000 0.5000  plane waves:   11752

 maximum and minimum number of plane-waves per node :     11826    11752

 maximum number of plane-waves:     11826
 maximum index in each direction: 
   IXMAX=   14   IYMAX=   14   IZMAX=   14
   IXMIN=  -14   IYMIN=  -14   IZMIN=  -14

 The following grids will avoid any aliasing or wrap around errors in the Hartre
 e energy
  - symmetry arguments have not been applied
  - exchange correlation energies might require even more grid points
  - we recommend to set PREC=Normal or Accurate and rely on VASP defaults
 WARNING: aliasing errors must be expected set NGX to    60 to avoid them
 WARNING: aliasing errors must be expected set NGY to    60 to avoid them
 WARNING: aliasing errors must be expected set NGZ to    60 to avoid them

 serial   3D FFT for wavefunctions
 parallel 3D FFT for charge:
    minimum data exchange during FFTs selected (reduces bandwidth)


 total amount of memory used by VASP MPI-rank0   291719. kBytes
=======================================================================

   base      :      30000. kBytes
   nonlr-proj:      21232. kBytes
   fftplans  :       3726. kBytes
   grid      :      21274. kBytes
   one-center:       1492. kBytes
   wavefun   :     213995. kBytes
 
     INWAV:  cpu time    0.0000: real time    0.0000
 Broyden mixing: mesh for mixing (old mesh)
   NGX = 29   NGY = 29   NGZ = 29
  (NGX  =112   NGY  =112   NGZ  =112)
  gives a total of  24389 points

 initial charge density was supplied:
 charge density of overlapping atoms calculated
 number of electron     352.0000000 magnetization      40.0000000
 keeping initial charge density in first step


--------------------------------------------------------------------------------------------------------


 Maximum index for non-local projection operator         4939
 Maximum index for augmentation-charges          859 (set IRDMAX)


--------------------------------------------------------------------------------------------------------


 First call to EWALD:  gamma=   0.229
 Maximum number of real-space cells 3x 3x 3
 Maximum number of reciprocal cells 3x 3x 3

    FEWALD:  cpu time    0.0023: real time    0.0023


--------------------------------------- Iteration      1(   1)  ---------------------------------------


    POTLOK:  cpu time    0.1066: real time    0.1081
    SETDIJ:  cpu time    0.0151: real time    0.0152
     EDDAV:  cpu time   49.8082: real time   49.9458
    --------------------------------------------
      LOOP:  cpu time   49.9331: real time   50.0723

 eigenvalue-minimisations  : 34576
 total energy-change (2. order) : 0.4702520E+04  (-0.1538111E+05)
 number of electron     352.0000000 magnetization      40.0000000
 augmentation part      352.0000000 magnetization      40.0000000

 Free energy of the ion-electron system (eV)
  ---------------------------------------------------
  alpha Z        PSCENC =      1180.50648382
  Ewald energy   TEWEN  =    -20196.83349743
  -Hartree energ DENC   =    -11854.85068805
  -exchange      EXHF   =         0.00000000
  -V(xc)+E(xc)   XCENC  =      1434.56290529
  PAW double counting   =     26463.90193480   -27579.55909067
  entropy T*S    EENTRO =        -0.00858983
  eigenvalues    EBANDS =      4241.12855737
  atomic energy  EATOM  =     31013.67235384
  Solvation  Ediel_sol  =         0.00000000
  ---------------------------------------------------
  free energy    TOTEN  =      4702.52036911 eV

  energy without entropy =     4702.52895895  energy(sigma->0) =     4702.52466403


--------------------------------------------------------------------------------------------------------




--------------------------------------- Iteration      1(   2)  ---------------------------------------


     EDDAV:  cpu time   47.1802: real time   47.2922
    --------------------------------------------
      LOOP:  cpu time   47.1799: real time   47.2919

 eigenvalue-minimisations  : 35488
 total energy-change (2. order) :-0.4083542E+04  (-0.3648262E+04)
 number of electron     352.0000000 magnetization      40.0000000
 augmentation part      352.0000000 magnetization      40.0000000

 Free energy of the ion-electron system (eV)
  ---------------------------------------------------
  alpha Z        PSCENC =      1180.50648382
  Ewald energy   TEWEN  =    -20196.83349743
  -Hartree energ DENC   =    -11854.85068805
  -exchange      EXHF   =         0.00000000
  -V(xc)+E(xc)   XCENC  =      1434.56290529
  PAW double counting   =     26463.90193480   -27579.55909067
  entropy T*S    EENTRO =        -0.02411517
  eigenvalues    EBANDS =       157.60213773
  atomic energy  EATOM  =     31013.67235384
  Solvation  Ediel_sol  =         0.00000000
  ---------------------------------------------------
  free energy    TOTEN  =       618.97842414 eV

  energy without entropy =      619.00253931  energy(sigma->0) =      618.99048173


--------------------------------------------------------------------------------------------------------




--------------------------------------- Iteration      1(   3)  ---------------------------------------


     EDDAV:  cpu time   48.7420: real time   48.8576
    --------------------------------------------
      LOOP:  cpu time   48.7423: real time   48.8579

 eigenvalue-minimisations  : 36352
 total energy-change (2. order) :-0.9035381E+03  (-0.8126366E+03)
 number of electron     352.0000000 magnetization      40.0000000
 augmentation part      352.0000000 magnetization      40.0000000

 Free energy of the ion-electron system (eV)
  ---------------------------------------------------
  alpha Z        PSCENC =      1180.50648382
  Ewald energy   TEWEN  =    -20196.83349743
  -Hartree energ DENC   =    -11854.85068805
  -exchange      EXHF   =         0.00000000
  -V(xc)+E(xc)   XCENC  =      1434.56290529
  PAW double counting   =     26463.90193480   -27579.55909067
  entropy T*S    EENTRO =        -0.06116583
  eigenvalues    EBANDS =      -745.89894348
  atomic energy  EATOM  =     31013.67235384
  Solvation  Ediel_sol  =         0.00000000
  ---------------------------------------------------
  free energy    TOTEN  =      -284.55970773 eV

  energy without entropy =     -284.49854190  energy(sigma->0) =     -284.52912481


--------------------------------------------------------------------------------------------------------




--------------------------------------- Iteration      1(   4)  ---------------------------------------


     EDDAV:  cpu time   52.5036: real time   52.6390
    --------------------------------------------
      LOOP:  cpu time   52.5034: real time   52.6388

 eigenvalue-minimisations  : 38944
 total energy-change (2. order) :-0.7978857E+02  (-0.7762298E+02)
 number of electron     352.0000000 magnetization      40.0000000
 augmentation part      352.0000000 magnetization      40.0000000

 Free energy of the ion-electron system (eV)
  ---------------------------------------------------
  alpha Z        PSCENC =      1180.50648382
  Ewald energy   TEWEN  =    -20196.83349743
  -Hartree energ DENC   =    -11854.85068805
  -exchange      EXHF   =         0.00000000
  -V(xc)+E(xc)   XCENC  =      1434.56290529
  PAW double counting   =     26463.90193480   -27579.55909067
  entropy T*S    EENTRO =        -0.05597946
  eigenvalues    EBANDS =      -825.69270477
  atomic energy  EATOM  =     31013.67235384
  Solvation  Ediel_sol  =         0.00000000
  ---------------------------------------------------
  free energy    TOTEN  =      -364.34828265 eV

  energy without entropy =     -364.29230319  energy(sigma->0) =     -364.32029292


--------------------------------------------------------------------------------------------------------




--------------------------------------- Iteration      1(   5)  ---------------------------------------


     EDDAV:  cpu time   54.0932: real time   54.2258
    CHARGE:  cpu time    1.8331: real time    1.8623
    MIXING:  cpu time    0.0051: real time    0.0170
    --------------------------------------------
      LOOP:  cpu time   55.9284: real time   56.1021

 eigenvalue-minimisations  : 38496
 total energy-change (2. order) :-0.1787599E+01  (-0.1780644E+01)
 number of electron     352.0000008 magnetization      36.0488841
 augmentation part      101.0960621 magnetization      27.6711478

 Broyden mixing:
  rms(total) = 0.17257E+02    rms(broyden)= 0.17256E+02
  rms(prec ) = 0.20158E+02
  weight for this iteration     100.00

 Free energy of the ion-electron system (eV)
  ---------------------------------------------------
  alpha Z        PSCENC =      1180.50648382
  Ewald energy   TEWEN  =    -20196.83349743
  -Hartree energ DENC   =    -11854.85068805
  -exchange      EXHF   =         0.00000000
  -V(xc)+E(xc)   XCENC  =      1434.56290529
  PAW double counting   =     26463.90193480   -27579.55909067
  entropy T*S    EENTRO =        -0.05597165
  eigenvalues    EBANDS =      -827.48031173
  atomic energy  EATOM  =     31013.67235384
  Solvation  Ediel_sol  =         0.00000000
  ---------------------------------------------------
  free energy    TOTEN  =      -366.13588180 eV

  energy without entropy =     -366.07991015  energy(sigma->0) =     -366.10789597


--------------------------------------------------------------------------------------------------------




--------------------------------------- Iteration      1(   6)  ---------------------------------------


    POTLOK:  cpu time    0.0873: real time    0.0875
    SETDIJ:  cpu time    0.0157: real time    0.0157
     EDDAV:  cpu time   72.4742: real time   72.6496
    CHARGE:  cpu time    1.7754: real time    1.7796
    MIXING:  cpu time    0.0043: real time    0.0402
    --------------------------------------------
      LOOP:  cpu time   74.3567: real time   74.5726

 eigenvalue-minimisations  : 55152
 total energy-change (2. order) :-0.1037347E+03  (-0.8346064E+02)
 number of electron     352.0000015 magnetization      29.5922028
 augmentation part      136.3985113 magnetization      26.7502728

 Broyden mixing:
  rms(total) = 0.24668E+02    rms(broyden)= 0.24667E+02
  rms(prec ) = 0.28195E+02
  weight for this iteration     100.00

 eigenvalues of (default mixing * dielectric matrix)
  average eigenvalue GAMMA=   0.2315
  0.2315

 Free energy of the ion-electron system (eV)
  ---------------------------------------------------
  alpha Z        PSCENC =      1180.50648382
  Ewald energy   TEWEN  =    -20196.83349743
  -Hartree energ DENC   =    -11265.44106169
  -exchange      EXHF   =         0.00000000
  -V(xc)+E(xc)   XCENC  =      1435.66412672
  PAW double counting   =     31224.51102098   -32171.21888966
  entropy T*S    EENTRO =        -0.03689246
  eigenvalues    EBANDS =     -1690.69427435
  atomic energy  EATOM  =     31013.67235384
  Solvation  Ediel_sol  =         0.00000000
  ---------------------------------------------------
  free energy    TOTEN  =      -469.87063025 eV

  energy without entropy =     -469.83373779  energy(sigma->0) =     -469.85218402


--------------------------------------------------------------------------------------------------------




--------------------------------------- Iteration      1(   7)  ---------------------------------------


    POTLOK:  cpu time    0.0937: real time    0.0940
    SETDIJ:  cpu time    0.0155: real time    0.0156
     EDDAV:  cpu time   62.0816: real time   62.2290
    CHARGE:  cpu time    1.7564: real time    1.7606
    MIXING:  cpu time    0.0031: real time    0.2392
    --------------------------------------------
      LOOP:  cpu time   63.9504: real time   64.3383

 eigenvalue-minimisations  : 45952
 total energy-change (2. order) : 0.1874401E+03  (-0.3232347E+02)
 number of electron     352.0000001 magnetization      21.3147827
 augmentation part      123.9008275 magnetization      17.8691001

 Broyden mixing:
  rms(total) = 0.98498E+01    rms(broyden)= 0.98486E+01
  rms(prec ) = 0.12397E+02
  weight for this iteration     100.00

 eigenvalues of (default mixing * dielectric matrix)
  average eigenvalue GAMMA=   0.5727
  0.5727  0.5727

 Free energy of the ion-electron system (eV)
  ---------------------------------------------------
  alpha Z        PSCENC =      1180.50648382
  Ewald energy   TEWEN  =    -20196.83349743
  -Hartree energ DENC   =    -11534.95795938
  -exchange      EXHF   =         0.00000000
  -V(xc)+E(xc)   XCENC  =      1431.24670486
  PAW double counting   =     33107.53088243   -34197.21285481
  entropy T*S    EENTRO =        -0.03836026
  eigenvalues    EBANDS =     -1086.34426753
  atomic energy  EATOM  =     31013.67235384
  Solvation  Ediel_sol  =         0.00000000
  ---------------------------------------------------
  free energy    TOTEN  =      -282.43051447 eV

  energy without entropy =     -282.39215421  energy(sigma->0) =     -282.41133434


--------------------------------------------------------------------------------------------------------




--------------------------------------- Iteration      1(   8)  ---------------------------------------


    POTLOK:  cpu time    0.0864: real time    0.0866
    SETDIJ:  cpu time    0.0158: real time    0.0158
     EDDAV:  cpu time   66.4156: real time   66.5733
    CHARGE:  cpu time    1.7504: real time    1.7545
    MIXING:  cpu time    0.0034: real time    0.0034
    --------------------------------------------
      LOOP:  cpu time   68.2716: real time   68.4337

 eigenvalue-minimisations  : 49696
 total energy-change (2. order) :-0.5108861E+02  (-0.2707090E+02)
 number of electron     352.0000015 magnetization      14.8700493
 augmentation part      114.0190459 magnetization      12.0364813

 Broyden mixing:
  rms(total) = 0.16189E+02    rms(broyden)= 0.16188E+02
  rms(prec ) = 0.23089E+02
  weight for this iteration     100.00

 eigenvalues of (default mixing * dielectric matrix)
  average eigenvalue GAMMA=   0.5789
  1.0735  0.4504  0.2129

 Free energy of the ion-electron system (eV)
  ---------------------------------------------------
  alpha Z        PSCENC =      1180.50648382
  Ewald energy   TEWEN  =    -20196.83349743
  -Hartree energ DENC   =    -11578.92077973
  -exchange      EXHF   =         0.00000000
  -V(xc)+E(xc)   XCENC  =      1426.15704537
  PAW double counting   =     35009.17811498   -36196.89117563
  entropy T*S    EENTRO =        -0.03158632
  eigenvalues    EBANDS =      -990.35608491
  atomic energy  EATOM  =     31013.67235384
  Solvation  Ediel_sol  =         0.00000000
  ---------------------------------------------------
  free energy    TOTEN  =      -333.51912601 eV

  energy without entropy =     -333.48753969  energy(sigma->0) =     -333.50333285


--------------------------------------------------------------------------------------------------------




--------------------------------------- Iteration      1(   9)  ---------------------------------------


    POTLOK:  cpu time    0.0943: real time    0.0946
    SETDIJ:  cpu time    0.0156: real time    0.0157
     EDDAV:  cpu time   59.3520: real time   59.4928
    CHARGE:  cpu time    1.8241: real time    1.8284
    MIXING:  cpu time    0.0029: real time    0.0055
    --------------------------------------------
      LOOP:  cpu time   61.2889: real time   61.4371

 eigenvalue-minimisations  : 43264
 total energy-change (2. order) : 0.3910623E+01  (-0.3829521E+02)
 number of electron     352.0000008 magnetization       8.8515918
 augmentation part      108.2521010 magnetization       7.1410948

 Broyden mixing:
  rms(total) = 0.12374E+02    rms(broyden)= 0.12372E+02
  rms(prec ) = 0.18424E+02
  weight for this iteration     100.00

 eigenvalues of (default mixing * dielectric matrix)
  average eigenvalue GAMMA=   0.5885
  1.4845  0.3549  0.3549  0.1596

 Free energy of the ion-electron system (eV)
  ---------------------------------------------------
  alpha Z        PSCENC =      1180.50648382
  Ewald energy   TEWEN  =    -20196.83349743
  -Hartree energ DENC   =    -11586.92111466
  -exchange      EXHF   =         0.00000000
  -V(xc)+E(xc)   XCENC  =      1423.28241571
  PAW double counting   =     36790.62411133   -38018.53951854
  entropy T*S    EENTRO =        -0.03403876
  eigenvalues    EBANDS =      -935.36569818
  atomic energy  EATOM  =     31013.67235384
  Solvation  Ediel_sol  =         0.00000000
  ---------------------------------------------------
  free energy    TOTEN  =      -329.60850289 eV

  energy without entropy =     -329.57446412  energy(sigma->0) =     -329.59148350


--------------------------------------------------------------------------------------------------------




--------------------------------------- Iteration      1(  10)  ---------------------------------------


    POTLOK:  cpu time    0.0862: real time    0.0864
    SETDIJ:  cpu time    0.0156: real time    0.0156
     EDDAV:  cpu time   63.3560: real time   63.5067
    CHARGE:  cpu time    1.8080: real time    1.8123
    MIXING:  cpu time    0.0028: real time    0.0028
    --------------------------------------------
      LOOP:  cpu time   65.2686: real time   65.4238

 eigenvalue-minimisations  : 47040
 total energy-change (2. order) : 0.1245899E+02  (-0.1802616E+02)
 number of electron     352.0000024 magnetization       4.2074003
 augmentation part      110.1501111 magnetization       2.5577673

 Broyden mixing:
  rms(total) = 0.11406E+02    rms(broyden)= 0.11405E+02
  rms(prec ) = 0.16977E+02
  weight for this iteration     100.00

 eigenvalues of (default mixing * dielectric matrix)
  average eigenvalue GAMMA=   0.5759
  1.7919  0.3773  0.3773  0.1908  0.1422

 Free energy of the ion-electron system (eV)
  ---------------------------------------------------
  alpha Z        PSCENC =      1180.50648382
  Ewald energy   TEWEN  =    -20196.83349743
  -Hartree energ DENC   =    -11531.08130104
  -exchange      EXHF   =         0.00000000
  -V(xc)+E(xc)   XCENC  =      1421.41306060
  PAW double counting   =     38484.01285437   -39727.08299731
  entropy T*S    EENTRO =        -0.03830717
  eigenvalues    EBANDS =      -961.71816300
  atomic energy  EATOM  =     31013.67235384
  Solvation  Ediel_sol  =         0.00000000
  ---------------------------------------------------
  free energy    TOTEN  =      -317.14951332 eV

  energy without entropy =     -317.11120616  energy(sigma->0) =     -317.13035974


--------------------------------------------------------------------------------------------------------




--------------------------------------- Iteration      1(  11)  ---------------------------------------


    POTLOK:  cpu time    0.0860: real time    0.0862
    SETDIJ:  cpu time    0.0156: real time    0.0157
     EDDAV:  cpu time   64.2501: real time   64.4025
    CHARGE:  cpu time    1.8278: real time    1.8321
    MIXING:  cpu time    0.0028: real time    0.0028
    --------------------------------------------
      LOOP:  cpu time   66.1824: real time   66.3394

 eigenvalue-minimisations  : 47808
 total energy-change (2. order) : 0.5731503E+02  (-0.8291270E+01)
 number of electron     352.0000012 magnetization       4.1976881
 augmentation part      114.4843044 magnetization       3.2309180

 Broyden mixing:
  rms(total) = 0.53124E+01    rms(broyden)= 0.53110E+01
  rms(prec ) = 0.78408E+01
  weight for this iteration     100.00

 eigenvalues of (default mixing * dielectric matrix)
  average eigenvalue GAMMA=   0.5502
  1.7013  0.4424  0.4424  0.4280  0.1436  0.1436

 Free energy of the ion-electron system (eV)
  ---------------------------------------------------
  alpha Z        PSCENC =      1180.50648382
  Ewald energy   TEWEN  =    -20196.83349743
  -Hartree energ DENC   =    -11482.25514651
  -exchange      EXHF   =         0.00000000
  -V(xc)+E(xc)   XCENC  =      1420.54911833
  PAW double counting   =     39864.08682720   -41114.38906960
  entropy T*S    EENTRO =        -0.03726311
  eigenvalues    EBANDS =      -945.13428823
  atomic energy  EATOM  =     31013.67235384
  Solvation  Ediel_sol  =         0.00000000
  ---------------------------------------------------
  free energy    TOTEN  =      -259.83448169 eV

  energy without entropy =     -259.79721859  energy(sigma->0) =     -259.81585014


--------------------------------------------------------------------------------------------------------




--------------------------------------- Iteration      1(  12)  ---------------------------------------


    POTLOK:  cpu time    0.0861: real time    0.0863
    SETDIJ:  cpu time    0.0157: real time    0.0158
     EDDAV:  cpu time   59.7479: real time   59.8896
    CHARGE:  cpu time    1.7943: real time    1.7985
    MIXING:  cpu time    0.0029: real time    0.0029
    --------------------------------------------
      LOOP:  cpu time   61.6469: real time   61.7932

 eigenvalue-minimisations  : 43568
 total energy-change (2. order) : 0.8934931E+01  (-0.3221227E+01)
 number of electron     352.0000002 magnetization       3.8818377
 augmentation part      114.0724062 magnetization       3.0414054

 Broyden mixing:
  rms(total) = 0.40267E+01    rms(broyden)= 0.40254E+01
  rms(prec ) = 0.53932E+01
  weight for this iteration     100.00

 eigenvalues of (default mixing * dielectric matrix)
  average eigenvalue GAMMA=   0.5116
  1.6015  0.6471  0.4233  0.4233  0.1687  0.1587  0.1587

 Free energy of the ion-electron system (eV)
  ---------------------------------------------------
  alpha Z        PSCENC =      1180.50648382
  Ewald energy   TEWEN  =    -20196.83349743
  -Hartree energ DENC   =    -11499.19568183
  -exchange      EXHF   =         0.00000000
  -V(xc)+E(xc)   XCENC  =      1420.88157075
  PAW double counting   =     39827.41433426   -41074.82695778
  entropy T*S    EENTRO =        -0.03762038
  eigenvalues    EBANDS =      -922.48053589
  atomic energy  EATOM  =     31013.67235384
  Solvation  Ediel_sol  =         0.00000000
  ---------------------------------------------------
  free energy    TOTEN  =      -250.89955067 eV

  energy without entropy =     -250.86193028  energy(sigma->0) =     -250.88074048


--------------------------------------------------------------------------------------------------------




--------------------------------------- Iteration      1(  13)  ---------------------------------------


    POTLOK:  cpu time    0.0864: real time    0.0866
    SETDIJ:  cpu time    0.0156: real time    0.0156
     EDDAV:  cpu time   69.9734: real time   70.1394
    CHARGE:  cpu time    1.8259: real time    1.8302
    MIXING:  cpu time    0.0031: real time    0.0031
    --------------------------------------------
      LOOP:  cpu time   71.9043: real time   72.0749

 eigenvalue-minimisations  : 53072
 total energy-change (2. order) : 0.2683230E+01  (-0.1989584E+01)
 number of electron     352.0000002 magnetization       3.1889750
 augmentation part      114.4926169 magnetization       2.5352289

 Broyden mixing:
  rms(total) = 0.31314E+01    rms(broyden)= 0.31307E+01
  rms(prec ) = 0.43697E+01
  weight for this iteration     100.00

 eigenvalues of (default mixing * dielectric matrix)
  average eigenvalue GAMMA=   0.5014
  1.6208  0.6275  0.6275  0.3374  0.3374  0.1720  0.1443  0.1443

 Free energy of the ion-electron system (eV)
  ---------------------------------------------------
  alpha Z        PSCENC =      1180.50648382
  Ewald energy   TEWEN  =    -20196.83349743
  -Hartree energ DENC   =    -11505.50147565
  -exchange      EXHF   =         0.00000000
  -V(xc)+E(xc)   XCENC  =      1421.18793543
  PAW double counting   =     39786.87950949   -41021.40650535
  entropy T*S    EENTRO =        -0.02561130
  eigenvalues    EBANDS =      -926.69551332
  atomic energy  EATOM  =     31013.67235384
  Solvation  Ediel_sol  =         0.00000000
  ---------------------------------------------------
  free energy    TOTEN  =      -248.21632049 eV

  energy without entropy =     -248.19070919  energy(sigma->0) =     -248.20351484


--------------------------------------------------------------------------------------------------------




--------------------------------------- Iteration      1(  14)  ---------------------------------------


    POTLOK:  cpu time    0.0861: real time    0.0863
    SETDIJ:  cpu time    0.0157: real time    0.0157
     EDDAV:  cpu time   67.5370: real time   67.6973
    CHARGE:  cpu time    1.8253: real time    1.8296
    MIXING:  cpu time    0.0032: real time    0.0032
    --------------------------------------------
      LOOP:  cpu time   69.4673: real time   69.6322

 eigenvalue-minimisations  : 50944
 total energy-change (2. order) : 0.1430684E+01  (-0.9430513E+00)
 number of electron     352.0000005 magnetization       2.1051195
 augmentation part      114.7451623 magnetization       1.4859325

 Broyden mixing:
  rms(total) = 0.25718E+01    rms(broyden)= 0.25713E+01
  rms(prec ) = 0.33949E+01
  weight for this iteration     100.00

 eigenvalues of (default mixing * dielectric matrix)
  average eigenvalue GAMMA=   0.5091
  1.6933  0.7412  0.7412  0.3895  0.3895  0.1957  0.1468  0.1468  0.1379

 Free energy of the ion-electron system (eV)
  ---------------------------------------------------
  alpha Z        PSCENC =      1180.50648382
  Ewald energy   TEWEN  =    -20196.83349743
  -Hartree energ DENC   =    -11507.84215199
  -exchange      EXHF   =         0.00000000
  -V(xc)+E(xc)   XCENC  =      1421.37098399
  PAW double counting   =     39945.94175098   -41177.87496905
  entropy T*S    EENTRO =        -0.03008568
  eigenvalues    EBANDS =      -925.69650544
  atomic energy  EATOM  =     31013.67235384
  Solvation  Ediel_sol  =         0.00000000
  ---------------------------------------------------
  free energy    TOTEN  =      -246.78563698 eV

  energy without entropy =     -246.75555130  energy(sigma->0) =     -246.77059414


--------------------------------------------------------------------------------------------------------




--------------------------------------- Iteration      1(  15)  ---------------------------------------


    POTLOK:  cpu time    0.0861: real time    0.0863
    SETDIJ:  cpu time    0.0157: real time    0.0157
     EDDAV:  cpu time   61.4704: real time   61.6162
    CHARGE:  cpu time    1.8274: real time    1.8317
    MIXING:  cpu time    0.0034: real time    0.0034
    --------------------------------------------
      LOOP:  cpu time   63.4029: real time   63.5533

 eigenvalue-minimisations  : 45344
 total energy-change (2. order) : 0.4209376E+00  (-0.4442874E+00)
 number of electron     352.0000003 magnetization       1.1444336
 augmentation part      115.5598164 magnetization       0.6778815

 Broyden mixing:
  rms(total) = 0.21512E+01    rms(broyden)= 0.21509E+01
  rms(prec ) = 0.28530E+01
  weight for this iteration     100.00

 eigenvalues of (default mixing * dielectric matrix)
  average eigenvalue GAMMA=   0.5174
  1.8077  0.8283  0.8283  0.4197  0.4197  0.2614  0.1592  0.1592  0.1452  0.1452

 Free energy of the ion-electron system (eV)
  ---------------------------------------------------
  alpha Z        PSCENC =      1180.50648382
  Ewald energy   TEWEN  =    -20196.83349743
  -Hartree energ DENC   =    -11502.98125605
  -exchange      EXHF   =         0.00000000
  -V(xc)+E(xc)   XCENC  =      1421.40239669
  PAW double counting   =     40228.73534857   -41457.79955420
  entropy T*S    EENTRO =        -0.03099907
  eigenvalues    EBANDS =      -933.03597551
  atomic energy  EATOM  =     31013.67235384
  Solvation  Ediel_sol  =         0.00000000
  ---------------------------------------------------
  free energy    TOTEN  =      -246.36469936 eV

  energy without entropy =     -246.33370029  energy(sigma->0) =     -246.34919983


--------------------------------------------------------------------------------------------------------




--------------------------------------- Iteration      1(  16)  ---------------------------------------


    POTLOK:  cpu time    0.0859: real time    0.0861
    SETDIJ:  cpu time    0.0157: real time    0.0157
     EDDAV:  cpu time   55.2533: real time   55.3844
    CHARGE:  cpu time    1.6127: real time    1.6165
    MIXING:  cpu time    0.0043: real time    0.0258
    --------------------------------------------
      LOOP:  cpu time   56.9719: real time   57.1286

 eigenvalue-minimisations  : 40896
 total energy-change (2. order) : 0.3891174E+00  (-0.3658637E+00)
 number of electron     352.0000004 magnetization       0.3921353
 augmentation part      115.9144361 magnetization       0.1103642

 Broyden mixing:
  rms(total) = 0.16968E+01    rms(broyden)= 0.16965E+01
  rms(prec ) = 0.24034E+01
  weight for this iteration     100.00

 eigenvalues of (default mixing * dielectric matrix)
  average eigenvalue GAMMA=   0.5410
  1.8973  0.9714  0.9714  0.4971  0.4069  0.4069  0.2250  0.1469  0.1469  0.1579
  0.1234

 Free energy of the ion-electron system (eV)
  ---------------------------------------------------
  alpha Z        PSCENC =      1180.50648382
  Ewald energy   TEWEN  =    -20196.83349743
  -Hartree energ DENC   =    -11499.98834841
  -exchange      EXHF   =         0.00000000
  -V(xc)+E(xc)   XCENC  =      1421.40172222
  PAW double counting   =     40496.48633733   -41724.02439085
  entropy T*S    EENTRO =        -0.03579708
  eigenvalues    EBANDS =      -937.16044540
  atomic energy  EATOM  =     31013.67235384
  Solvation  Ediel_sol  =         0.00000000
  ---------------------------------------------------
  free energy    TOTEN  =      -245.97558196 eV

  energy without entropy =     -245.93978488  energy(sigma->0) =     -245.95768342


--------------------------------------------------------------------------------------------------------




--------------------------------------- Iteration      1(  17)  ---------------------------------------


    POTLOK:  cpu time    0.0826: real time    0.0828
    SETDIJ:  cpu time    0.0142: real time    0.0142
     EDDAV:  cpu time   54.1080: real time   54.2364
    CHARGE:  cpu time    1.5975: real time    1.6014
    MIXING:  cpu time    0.0035: real time    0.0035
    --------------------------------------------
      LOOP:  cpu time   55.8057: real time   55.9382

 eigenvalue-minimisations  : 43392
 total energy-change (2. order) :-0.2227435E+00  (-0.2944256E+00)
 number of electron     352.0000005 magnetization       0.2540423
 augmentation part      115.9807252 magnetization      -0.0058495

 Broyden mixing:
  rms(total) = 0.15796E+01    rms(broyden)= 0.15793E+01
  rms(prec ) = 0.21835E+01
  weight for this iteration     100.00

 eigenvalues of (default mixing * dielectric matrix)
  average eigenvalue GAMMA=   0.5277
  1.8664  1.0424  1.0424  0.5886  0.3903  0.3903  0.2926  0.1721  0.1482  0.1482
  0.1389  0.1121

 Free energy of the ion-electron system (eV)
  ---------------------------------------------------
  alpha Z        PSCENC =      1180.50648382
  Ewald energy   TEWEN  =    -20196.83349743
  -Hartree energ DENC   =    -11503.58886863
  -exchange      EXHF   =         0.00000000
  -V(xc)+E(xc)   XCENC  =      1421.45215765
  PAW double counting   =     40713.94378102   -41939.78686460
  entropy T*S    EENTRO =        -0.01979156
  eigenvalues    EBANDS =      -935.54407956
  atomic energy  EATOM  =     31013.67235384
  Solvation  Ediel_sol  =         0.00000000
  ---------------------------------------------------
  free energy    TOTEN  =      -246.19832546 eV

  energy without entropy =     -246.17853390  energy(sigma->0) =     -246.18842968


--------------------------------------------------------------------------------------------------------




--------------------------------------- Iteration      1(  18)  ---------------------------------------


    POTLOK:  cpu time    0.0762: real time    0.0764
    SETDIJ:  cpu time    0.0145: real time    0.0145
     EDDAV:  cpu time   54.2294: real time   54.3676
    CHARGE:  cpu time    1.8169: real time    1.8212
    MIXING:  cpu time    0.0042: real time    0.0069
    --------------------------------------------
      LOOP:  cpu time   56.1412: real time   56.2867

 eigenvalue-minimisations  : 42288
 total energy-change (2. order) : 0.6718265E+00  (-0.8496985E-01)
 number of electron     352.0000004 magnetization      -0.0332376
 augmentation part      115.7866159 magnetization      -0.0754134

 Broyden mixing:
  rms(total) = 0.10474E+01    rms(broyden)= 0.10472E+01
  rms(prec ) = 0.13306E+01
  weight for this iteration     100.00

 eigenvalues of (default mixing * dielectric matrix)
  average eigenvalue GAMMA=   0.5441
  2.0255  1.0688  1.0688  0.6218  0.6218  0.3676  0.3676  0.1812  0.1812  0.1472
  0.1472  0.1533  0.1212

 Free energy of the ion-electron system (eV)
  ---------------------------------------------------
  alpha Z        PSCENC =      1180.50648382
  Ewald energy   TEWEN  =    -20196.83349743
  -Hartree energ DENC   =    -11507.49844194
  -exchange      EXHF   =         0.00000000
  -V(xc)+E(xc)   XCENC  =      1421.42644629
  PAW double counting   =     40779.49603131   -42004.33155384
  entropy T*S    EENTRO =        -0.03359235
  eigenvalues    EBANDS =      -931.93072865
  atomic energy  EATOM  =     31013.67235384
  Solvation  Ediel_sol  =         0.00000000
  ---------------------------------------------------
  free energy    TOTEN  =      -245.52649897 eV

  energy without entropy =     -245.49290661  energy(sigma->0) =     -245.50970279


--------------------------------------------------------------------------------------------------------




--------------------------------------- Iteration      1(  19)  ---------------------------------------


    POTLOK:  cpu time    0.0859: real time    0.0861
    SETDIJ:  cpu time    0.0155: real time    0.0156
     EDDAV:  cpu time   65.2906: real time   65.4457
    CHARGE:  cpu time    1.8567: real time    1.8611
    MIXING:  cpu time    0.0040: real time    0.0041
    --------------------------------------------
      LOOP:  cpu time   67.2527: real time   67.4124

 eigenvalue-minimisations  : 49056
 total energy-change (2. order) : 0.1592374E+00  (-0.4986210E-01)
 number of electron     352.0000003 magnetization      -0.1396081
 augmentation part      115.5549043 magnetization      -0.1085652

 Broyden mixing:
  rms(total) = 0.70685E+00    rms(broyden)= 0.70673E+00
  rms(prec ) = 0.98464E+00
  weight for this iteration     100.00

 eigenvalues of (default mixing * dielectric matrix)
  average eigenvalue GAMMA=   0.5628
  1.7816  1.7715  0.8859  0.7036  0.7036  0.3948  0.3948  0.3075  0.2100  0.1481
  0.1481  0.1621  0.1474  0.1194

 Free energy of the ion-electron system (eV)
  ---------------------------------------------------
  alpha Z        PSCENC =      1180.50648382
  Ewald energy   TEWEN  =    -20196.83349743
  -Hartree energ DENC   =    -11512.75011126
  -exchange      EXHF   =         0.00000000
  -V(xc)+E(xc)   XCENC  =      1421.39184597
  PAW double counting   =     40884.17178383   -42106.96550431
  entropy T*S    EENTRO =        -0.01795393
  eigenvalues    EBANDS =      -928.54266209
  atomic energy  EATOM  =     31013.67235384
  Solvation  Ediel_sol  =         0.00000000
  ---------------------------------------------------
  free energy    TOTEN  =      -245.36726157 eV

  energy without entropy =     -245.34930764  energy(sigma->0) =     -245.35828460


--------------------------------------------------------------------------------------------------------




--------------------------------------- Iteration      1(  20)  ---------------------------------------


    POTLOK:  cpu time    0.0860: real time    0.0862
    SETDIJ:  cpu time    0.0155: real time    0.0156
     EDDAV:  cpu time   60.3956: real time   60.5419
    CHARGE:  cpu time    1.8532: real time    1.8576
    MIXING:  cpu time    0.0042: real time    0.0042
    --------------------------------------------
      LOOP:  cpu time   62.3545: real time   62.5055

 eigenvalue-minimisations  : 44448
 total energy-change (2. order) : 0.6515767E-01  (-0.2852953E-01)
 number of electron     352.0000004 magnetization      -0.2770585
 augmentation part      115.8122174 magnetization      -0.1660356

 Broyden mixing:
  rms(total) = 0.59574E+00    rms(broyden)= 0.59559E+00
  rms(prec ) = 0.83981E+00
  weight for this iteration     100.00

 eigenvalues of (default mixing * dielectric matrix)
  average eigenvalue GAMMA=   0.5804
  2.1263  1.7669  0.8819  0.7677  0.7677  0.4245  0.3960  0.3960  0.2645  0.1931
  0.1487  0.1487  0.1525  0.1525  0.1197

 Free energy of the ion-electron system (eV)
  ---------------------------------------------------
  alpha Z        PSCENC =      1180.50648382
  Ewald energy   TEWEN  =    -20196.83349743
  -Hartree energ DENC   =    -11510.38839269
  -exchange      EXHF   =         0.00000000
  -V(xc)+E(xc)   XCENC  =      1421.29542019
  PAW double counting   =     40922.02139521   -42142.14594275
  entropy T*S    EENTRO =        -0.03745508
  eigenvalues    EBANDS =      -933.39246900
  atomic energy  EATOM  =     31013.67235384
  Solvation  Ediel_sol  =         0.00000000
  ---------------------------------------------------
  free energy    TOTEN  =      -245.30210390 eV

  energy without entropy =     -245.26464882  energy(sigma->0) =     -245.28337636


--------------------------------------------------------------------------------------------------------




--------------------------------------- Iteration      1(  21)  ---------------------------------------


    POTLOK:  cpu time    0.0859: real time    0.0861
    SETDIJ:  cpu time    0.0156: real time    0.0156
     EDDAV:  cpu time   58.2923: real time   58.4307
    CHARGE:  cpu time    1.8500: real time    1.8544
    MIXING:  cpu time    0.0052: real time    0.0168
    --------------------------------------------
      LOOP:  cpu time   60.2489: real time   60.4035

 eigenvalue-minimisations  : 42688
 total energy-change (2. order) : 0.5796890E-01  (-0.2563492E-01)
 number of electron     352.0000004 magnetization      -0.3020947
 augmentation part      115.8335336 magnetization      -0.1717711

 Broyden mixing:
  rms(total) = 0.42041E+00    rms(broyden)= 0.42029E+00
  rms(prec ) = 0.55788E+00
  weight for this iteration     100.00

 eigenvalues of (default mixing * dielectric matrix)
  average eigenvalue GAMMA=   0.5902
  2.1515  1.9298  0.8890  0.8890  0.7491  0.6551  0.3851  0.3851  0.3084  0.2045
  0.1484  0.1484  0.1706  0.1596  0.1500  0.1196

 Free energy of the ion-electron system (eV)
  ---------------------------------------------------
  alpha Z        PSCENC =      1180.50648382
  Ewald energy   TEWEN  =    -20196.83349743
  -Hartree energ DENC   =    -11509.63641882
  -exchange      EXHF   =         0.00000000
  -V(xc)+E(xc)   XCENC  =      1421.26739077
  PAW double counting   =     40965.26470450   -42184.36074759
  entropy T*S    EENTRO =        -0.02543218
  eigenvalues    EBANDS =      -935.09897190
  atomic energy  EATOM  =     31013.67235384
  Solvation  Ediel_sol  =         0.00000000
  ---------------------------------------------------
  free energy    TOTEN  =      -245.24413500 eV

  energy without entropy =     -245.21870281  energy(sigma->0) =     -245.23141891


--------------------------------------------------------------------------------------------------------




--------------------------------------- Iteration      1(  22)  ---------------------------------------


    POTLOK:  cpu time    0.0874: real time    0.0876
    SETDIJ:  cpu time    0.0158: real time    0.0159
     EDDAV:  cpu time   64.6533: real time   64.8068
    CHARGE:  cpu time    1.8428: real time    1.8472
    MIXING:  cpu time    0.0044: real time    0.0044
    --------------------------------------------
      LOOP:  cpu time   66.6039: real time   66.7620

 eigenvalue-minimisations  : 48464
 total energy-change (2. order) : 0.4200500E-01  (-0.7597834E-02)
 number of electron     352.0000003 magnetization      -0.2799268
 augmentation part      115.8069190 magnetization      -0.1099783

 Broyden mixing:
  rms(total) = 0.27033E+00    rms(broyden)= 0.27029E+00
  rms(prec ) = 0.36186E+00
  weight for this iteration     100.00

 eigenvalues of (default mixing * dielectric matrix)
  average eigenvalue GAMMA=   0.5938
  2.1177  2.1177  0.9698  0.9698  0.7058  0.7058  0.3805  0.3805  0.3767  0.2535
  0.2180  0.1784  0.1486  0.1486  0.1519  0.1519  0.1196

 Free energy of the ion-electron system (eV)
  ---------------------------------------------------
  alpha Z        PSCENC =      1180.50648382
  Ewald energy   TEWEN  =    -20196.83349743
  -Hartree energ DENC   =    -11510.84355485
  -exchange      EXHF   =         0.00000000
  -V(xc)+E(xc)   XCENC  =      1421.28722547
  PAW double counting   =     40973.63228404   -42192.42441222
  entropy T*S    EENTRO =        -0.03291443
  eigenvalues    EBANDS =      -934.16609823
  atomic energy  EATOM  =     31013.67235384
  Solvation  Ediel_sol  =         0.00000000
  ---------------------------------------------------
  free energy    TOTEN  =      -245.20212999 eV

  energy without entropy =     -245.16921556  energy(sigma->0) =     -245.18567278


--------------------------------------------------------------------------------------------------------




--------------------------------------- Iteration      1(  23)  ---------------------------------------


    POTLOK:  cpu time    0.0863: real time    0.0865
    SETDIJ:  cpu time    0.0157: real time    0.0157
     EDDAV:  cpu time   65.4423: real time   65.5976
    CHARGE:  cpu time    1.8239: real time    1.8283
    MIXING:  cpu time    0.0045: real time    0.0046
    --------------------------------------------
      LOOP:  cpu time   67.3727: real time   67.5326

 eigenvalue-minimisations  : 49280
 total energy-change (2. order) : 0.2143551E-01  (-0.4406523E-02)
 number of electron     352.0000004 magnetization      -0.2933736
 augmentation part      115.7313295 magnetization      -0.1223771

 Broyden mixing:
  rms(total) = 0.22562E+00    rms(broyden)= 0.22559E+00
  rms(prec ) = 0.28646E+00
  weight for this iteration     100.00

 eigenvalues of (default mixing * dielectric matrix)
  average eigenvalue GAMMA=   0.6083
  2.1583  2.1583  1.1146  1.1146  0.6917  0.6917  0.6146  0.3875  0.3875  0.2982
  0.2459  0.1956  0.1486  0.1486  0.1196  0.1529  0.1529  0.1689

 Free energy of the ion-electron system (eV)
  ---------------------------------------------------
  alpha Z        PSCENC =      1180.50648382
  Ewald energy   TEWEN  =    -20196.83349743
  -Hartree energ DENC   =    -11511.87650302
  -exchange      EXHF   =         0.00000000
  -V(xc)+E(xc)   XCENC  =      1421.30114102
  PAW double counting   =     40960.42781342   -42178.99724957
  entropy T*S    EENTRO =        -0.02997719
  eigenvalues    EBANDS =      -933.35125936
  atomic energy  EATOM  =     31013.67235384
  Solvation  Ediel_sol  =         0.00000000
  ---------------------------------------------------
  free energy    TOTEN  =      -245.18069449 eV

  energy without entropy =     -245.15071729  energy(sigma->0) =     -245.16570589


--------------------------------------------------------------------------------------------------------




--------------------------------------- Iteration      1(  24)  ---------------------------------------


    POTLOK:  cpu time    0.0861: real time    0.0863
    SETDIJ:  cpu time    0.0157: real time    0.0157
     EDDAV:  cpu time   69.1096: real time   69.2737
    CHARGE:  cpu time    1.8493: real time    1.8537
    MIXING:  cpu time    0.0048: real time    0.0048
    --------------------------------------------
      LOOP:  cpu time   71.0656: real time   71.2342

 eigenvalue-minimisations  : 52624
 total energy-change (2. order) : 0.6102874E-02  (-0.2471052E-02)
 number of electron     352.0000004 magnetization      -0.3209167
 augmentation part      115.7367313 magnetization      -0.1327824

 Broyden mixing:
  rms(total) = 0.16588E+00    rms(broyden)= 0.16586E+00
  rms(prec ) = 0.22293E+00
  weight for this iteration     100.00

 eigenvalues of (default mixing * dielectric matrix)
  average eigenvalue GAMMA=   0.6186
  2.1960  2.1960  1.2473  1.2473  0.7262  0.7262  0.7037  0.3909  0.3909  0.3290
  0.2897  0.2209  0.1971  0.1196  0.1486  0.1486  0.1520  0.1520  0.1707

 Free energy of the ion-electron system (eV)
  ---------------------------------------------------
  alpha Z        PSCENC =      1180.50648382
  Ewald energy   TEWEN  =    -20196.83349743
  -Hartree energ DENC   =    -11512.13301932
  -exchange      EXHF   =         0.00000000
  -V(xc)+E(xc)   XCENC  =      1421.31153046
  PAW double counting   =     40951.82899746   -42170.30562865
  entropy T*S    EENTRO =        -0.03196953
  eigenvalues    EBANDS =      -933.18984225
  atomic energy  EATOM  =     31013.67235384
  Solvation  Ediel_sol  =         0.00000000
  ---------------------------------------------------
  free energy    TOTEN  =      -245.17459161 eV

  energy without entropy =     -245.14262208  energy(sigma->0) =     -245.15860685


[...]
  0.003   0.001  -0.001  -0.008  -0.000  -0.002  -0.001   0.001   0.005   0.000  -0.000   0.000   0.000  -0.000   0.001  -0.000


------------------------ aborting loop because EDIFF is reached ----------------------------------------


    CHARGE:  cpu time    1.7724: real time    1.7766
    FORLOC:  cpu time    0.0194: real time    0.0204
    FORNL :  cpu time   14.1455: real time   14.1790
    STRESS:  cpu time   42.5530: real time   42.6545
    FORCOR:  cpu time    0.0971: real time    0.0974
    FORHAR:  cpu time    0.0262: real time    0.0262
    MIXING:  cpu time    0.0078: real time    0.0078
    OFIELD:  cpu time    0.0001: real time    0.0001

  FORCE on cell =-STRESS in cart. coord.  units (eV):
  Direction    XX          YY          ZZ          XY          YZ          ZX
  --------------------------------------------------------------------------------------
  Alpha Z  1180.50648  1180.50648  1180.50648
  Ewald   -6820.39597 -6960.18890 -6416.36791   374.90167   422.91072    85.51272
  Hartree  3822.22184  3714.58094  3977.64297   255.34566   237.27313    20.48235
  E(xc)   -1814.88628 -1814.82270 -1815.70413     0.06313    -0.05028    -0.12496
  Local   -3994.85129 -3774.30500 -4500.88454  -613.49663  -629.63194   -86.78906
  n-local  -686.18569  -692.30079  -656.69286     2.86644     6.43845     5.68845
  augment  2981.33290  2991.17979  2957.36976    -6.91222   -12.84983   -10.67827
  Kinetic  5466.06584  5481.20179  5466.97648    -8.98329   -15.13584    -7.15187
  Fock        0.00000     0.00000     0.00000     0.00000     0.00000     0.00000
  -------------------------------------------------------------------------------------
  Total      133.8078271    125.8516171    192.8462551      3.7847579      8.9544107      6.9393606
  in kB      461.7497307    434.2941036    665.4820450     13.0606034     30.9002607     23.9466403
  external PRESSURE =     520.5086264 kB  Pullay stress =       0.0000000 kB


 VOLUME and BASIS-vectors are now :
 -----------------------------------------------------------------------------
  energy-cutoff  :      500.00
  volume of cell :      464.29
      direct lattice vectors                 reciprocal lattice vectors
     7.743342750  0.000000000  0.000000000     0.129143192  0.000000000  0.000000000
     0.000000000  7.743342750  0.000000000     0.000000000  0.129143192  0.000000000
     0.000000000  0.000000000  7.743342750     0.000000000  0.000000000  0.129143192

  length of vectors
     7.743342750  7.743342750  7.743342750     0.129143192  0.129143192  0.129143192


 FORCES acting on ions
    electron-ion (+dipol)            ewald-force                    non-local-force                 convergence-correction
 -----------------------------------------------------------------------------------------------
   -.989E+02 -.124E+03 -.412E+02   0.993E+02 0.132E+03 0.527E+02   -.159E+01 -.367E+01 0.681E+00   -.984E-02 0.119E-01 0.982E-02
   0.144E+03 0.153E+03 -.140E+03   -.150E+03 -.156E+03 0.149E+03   0.391E+01 -.709E+00 -.987E+00   0.120E-01 0.115E-01 -.766E-02
   -.136E+03 0.113E+03 -.154E+03   0.142E+03 -.115E+03 0.158E+03   -.239E+01 0.129E+01 -.926E+00   0.519E-02 -.337E-03 0.223E-01
   -.141E+03 0.196E+03 0.180E+03   0.148E+03 -.206E+03 -.209E+03   -.242E+01 0.199E+01 0.392E+01   0.401E-02 0.510E-02 0.498E-02
   -.633E+02 -.198E+03 -.865E+01   0.658E+02 0.204E+03 0.104E+02   0.245E+01 -.420E+01 -.179E+01   0.166E-02 -.140E-01 -.345E-01
   -.241E+02 -.690E+02 -.349E+01   0.225E+02 0.756E+02 0.637E+01   0.107E+00 -.731E+00 0.357E+00   0.355E-01 0.280E-01 -.329E-02
   0.131E+03 -.387E+02 0.747E+02   -.138E+03 0.433E+02 -.684E+02   0.237E+01 -.285E+01 0.231E+01   0.214E-01 -.159E-01 0.104E-01
   -.446E+03 0.276E+03 0.355E+03   0.488E+03 -.291E+03 -.414E+03   -.609E+01 0.532E+01 0.600E+01   0.642E-03 0.772E-02 0.126E-01
   0.202E+03 0.134E+03 0.140E+03   -.208E+03 -.139E+03 -.142E+03   0.307E+00 0.513E+00 0.615E+00   -.332E-01 -.442E-01 0.765E-03
   -.248E+02 0.973E+02 -.474E+02   0.180E+02 -.971E+02 0.473E+02   -.237E-01 0.174E+00 -.262E+01   0.201E-01 0.946E-02 -.133E-01
   0.451E+02 -.596E+02 0.435E+02   -.480E+02 0.644E+02 -.448E+02   0.428E+01 -.198E+01 -.777E-02   -.207E-01 0.316E-02 0.149E-01
   -.813E+02 0.278E+03 0.219E+03   0.877E+02 -.301E+03 -.230E+03   -.313E+01 0.428E+01 0.234E+01   -.174E-01 -.384E-02 0.170E-01
   -.242E+02 -.224E+03 -.833E+02   0.261E+02 0.244E+03 0.854E+02   -.147E+01 -.360E+01 -.281E+01   -.167E-01 -.150E-01 -.329E-02
   0.335E+03 -.182E+02 -.251E+03   -.350E+03 0.171E+02 0.269E+03   0.830E+01 -.748E+00 -.629E+01   -.588E-02 0.131E-01 0.306E-01
   -.431E+02 -.234E+03 -.789E+02   0.522E+02 0.245E+03 0.809E+02   -.900E+00 -.731E+00 0.110E+01   0.697E-02 0.943E-02 0.502E-02
   -.546E+02 0.223E+02 -.341E+02   0.548E+02 -.183E+02 0.325E+02   0.891E+00 -.201E+01 0.244E+00   0.133E-01 0.118E-01 0.309E-01
   -.206E+03 0.122E+03 0.211E+03   0.224E+03 -.133E+03 -.230E+03   -.189E+02 0.110E+02 0.184E+02   -.283E-02 -.160E-03 0.611E-02
   -.219E+03 -.175E+03 -.177E+03   0.231E+03 0.193E+03 0.186E+03   -.118E+02 -.169E+02 -.896E+01   -.110E-01 0.147E-01 -.283E-02
   0.261E+03 -.305E+03 -.201E+03   -.279E+03 0.331E+03 0.213E+03   0.162E+02 -.229E+02 -.116E+02   0.290E-03 -.144E-01 0.264E-03
   -.244E+03 -.355E+03 0.182E+03   0.260E+03 0.383E+03 -.197E+03   -.165E+02 -.212E+02 0.146E+02   0.284E-02 -.148E-01 0.198E-02
   0.192E+03 0.132E+03 0.196E+03   -.209E+03 -.142E+03 -.216E+03   0.166E+02 0.102E+02 0.171E+02   0.100E-01 -.555E-02 0.107E-01
   -.340E+03 0.176E+03 -.521E+03   0.366E+03 -.183E+03 0.612E+03   -.192E+02 0.834E+01 -.357E+02   -.696E-02 0.119E-02 0.266E-01
   0.289E+03 0.822E+02 -.309E+03   -.317E+03 -.960E+02 0.335E+03   0.212E+02 0.154E+02 -.211E+02   -.616E-02 0.541E-02 0.476E-03
   0.166E+03 -.170E+03 0.167E+03   -.182E+03 0.185E+03 -.173E+03   0.172E+02 -.140E+02 0.538E+01   0.757E-02 0.513E-02 0.125E-01
   -.223E+03 0.289E+03 0.216E+03   0.243E+03 -.309E+03 -.231E+03   -.159E+02 0.173E+02 0.142E+02   -.188E-02 -.154E-01 -.849E-02
   -.999E+02 -.258E+03 -.157E+03   0.106E+03 0.275E+03 0.173E+03   -.668E+01 -.162E+02 -.170E+02   0.125E-01 0.479E-02 -.763E-02
   0.126E+03 -.158E+03 -.131E+03   -.134E+03 0.168E+03 0.142E+03   0.103E+02 -.107E+02 -.128E+02   0.843E-02 -.147E-02 0.574E-02
   -.262E+03 -.215E+03 0.366E+03   0.282E+03 0.230E+03 -.403E+03   -.198E+02 -.108E+02 0.290E+02   0.103E-01 0.127E-01 -.876E-02
   0.211E+03 0.297E+03 0.282E+03   -.225E+03 -.321E+03 -.306E+03   0.138E+02 0.235E+02 0.183E+02   0.795E-02 -.209E-02 0.851E-02
   -.302E+03 0.215E+03 -.322E+03   0.331E+03 -.225E+03 0.364E+03   -.240E+02 0.107E+02 -.191E+02   0.159E-01 -.136E-02 -.264E-01
   0.276E+03 0.203E+03 -.191E+03   -.300E+03 -.212E+03 0.205E+03   0.199E+02 0.979E+01 -.144E+02   -.149E-01 -.855E-03 0.277E-02
   0.105E+03 -.230E+03 0.192E+03   -.112E+03 0.248E+03 -.200E+03   0.860E+01 -.190E+02 0.831E+01   0.327E-02 0.430E-02 -.161E-01
   -.116E+03 0.153E+03 0.289E+03   0.117E+03 -.170E+03 -.320E+03   -.279E+01 0.163E+02 0.215E+02   0.694E-02 -.377E-02 -.769E-02
   -.176E+03 -.126E+03 -.232E+03   0.187E+03 0.131E+03 0.253E+03   -.813E+01 -.443E+01 -.143E+02   -.127E-01 0.197E-02 0.171E-01
   0.294E+03 -.280E+03 -.149E+03   -.320E+03 0.295E+03 0.158E+03   0.234E+02 -.148E+02 -.105E+02   -.230E-02 0.119E-01 -.751E-02
   -.211E+03 -.396E+03 0.221E+03   0.229E+03 0.441E+03 -.230E+03   -.156E+02 -.284E+02 0.695E+01   -.478E-02 -.947E-02 0.216E-02
   0.436E+03 0.195E+03 0.381E+03   -.498E+03 -.213E+03 -.420E+03   0.267E+02 0.174E+02 0.269E+02   -.229E-01 0.210E-02 0.143E-02
   -.170E+03 0.140E+03 -.175E+03   0.182E+03 -.149E+03 0.190E+03   -.102E+02 0.513E+01 -.134E+02   -.823E-03 -.707E-03 -.105E-02
   0.759E+02 0.156E+03 -.201E+03   -.798E+02 -.167E+03 0.219E+03   0.397E+01 0.987E+01 -.168E+02   0.420E-02 -.106E-01 -.139E-02
   0.228E+03 -.207E+03 0.195E+03   -.235E+03 0.229E+03 -.206E+03   0.690E+01 -.201E+02 0.127E+02   -.124E-01 0.169E-02 0.182E-02
   -.269E+03 0.203E+03 0.170E+03   0.291E+03 -.217E+03 -.186E+03   -.172E+02 0.139E+02 0.126E+02   0.658E-02 0.775E-02 -.115E-01
   -.122E+03 -.168E+03 -.221E+03   0.134E+03 0.177E+03 0.233E+03   -.148E+02 -.110E+02 -.130E+02   -.559E-02 0.430E-02 0.122E-02
   0.245E+03 -.216E+03 -.269E+03   -.258E+03 0.231E+03 0.291E+03   0.110E+02 -.141E+02 -.243E+02   -.898E-02 -.166E-02 0.121E-01
   -.163E+03 -.152E+03 0.157E+03   0.177E+03 0.164E+03 -.169E+03   -.149E+02 -.127E+02 0.136E+02   0.114E-01 -.113E-01 0.446E-02
   0.222E+03 0.355E+03 0.154E+03   -.241E+03 -.389E+03 -.164E+03   0.182E+02 0.253E+02 0.112E+02   0.147E-01 -.600E-02 -.527E-02
   -.161E+03 0.413E+03 -.248E+03   0.171E+03 -.456E+03 0.268E+03   -.107E+02 0.255E+02 -.172E+02   -.120E-01 -.307E-02 -.669E-02
   0.218E+03 0.241E+03 -.175E+03   -.241E+03 -.257E+03 0.179E+03   0.181E+02 0.125E+02 -.322E+01   -.192E-01 0.133E-01 0.845E-02
   0.193E+03 -.241E+03 0.137E+03   -.209E+03 0.254E+03 -.150E+03   0.179E+02 -.133E+02 0.154E+02   0.339E-02 0.102E-02 0.472E-02
 -----------------------------------------------------------------------------------------------
   -.273E+02 0.262E+02 0.478E+01   0.568E-13 0.341E-12 -.711E-12   0.273E+02 -.262E+02 -.490E+01   -.209E-02 0.737E-02 0.115E+00
 
 
 POSITION                                       TOTAL-FORCE (eV/Angst)
 -----------------------------------------------------------------------------------
      1.19247      5.07097      0.76093        -1.177831      4.307683     12.192734
      2.97695      7.04235      0.88472        -2.789357     -3.718809      8.631915
      3.01804      4.97996      2.97885         2.999919     -0.919256      3.345442
      0.96655      7.01411      3.15866         4.416806     -7.522658    -25.342749
      0.84798      1.14698      4.99798         4.897348      2.418523     -0.083318
      3.04498      2.80772      4.98395        -1.394009      5.851029      3.234484
      3.20089      0.83077      6.65249        -4.484068      1.715070      8.656954
      0.73123      3.01812      7.30690        36.016084     -9.843310    -53.430828
      5.13223      5.21457      4.97855        -6.007848     -3.840476     -1.991712
      7.15885      6.90847      5.05566        -6.784669      0.374470     -2.763066
      6.90906      4.88128      6.96906         1.388699      2.835796     -1.340295
      4.89226      7.14542      6.97841         3.174773    -18.857353     -7.995928
      5.02371      0.94209      1.18121         0.385404     16.302695     -0.670969
      6.83936      3.07724      0.94011        -6.732003     -1.772626     11.471157
      6.80824      0.91934      2.85752         8.246547      9.517762      3.059056
      4.93178      2.92734      3.02503         1.092791      1.971935     -1.385279
      6.92107      1.08348      1.10170        -0.817676      0.646474     -1.454016
      2.90872      6.75532      2.97158         0.927910      1.476104     -0.575572
      3.21740      0.91042      1.23909        -1.189864      3.217425      0.065624
      1.01750      0.86304      3.03674        -1.001079      7.492394      0.039958
      3.05624      3.01580      3.26038         0.142839      0.241115     -2.496283
      0.77521      3.07889      0.80049         7.034630      1.455771     55.177405
      5.23346      0.89281      2.81098        -6.834327      1.612278      4.496896
      1.08730      6.88420      1.17473         1.171770      0.698750     -1.086303
      6.80393      5.22490      5.12375         4.090395     -3.607734     -0.728344
      3.23550      2.63911      6.92939        -0.960685      0.175685     -1.620460
      2.93429      4.73113      5.14859         1.560011      0.104584     -2.136971
      1.14160      4.57240      7.02859         0.535579      3.676321     -8.505187
      3.08119      6.74225      7.05468        -0.645621     -0.496281     -5.501890
      0.93888      7.09460      4.55167         5.269988      0.343625     22.598062
      5.24269      5.11322      6.82701        -3.678903      0.289992      0.042775
      0.99251      2.97215      5.21428         1.093052     -1.149625      0.131715
      2.79304      1.11903      5.20059        -1.834934     -0.791957     -9.643370
      6.54312      6.85392      6.55018         2.719551      0.827561      6.305828
      6.92357      0.95034      4.82917        -2.544866      0.661073     -1.012780
      4.79081      0.83548      7.18924         2.507618     16.993533     -2.081804
      7.16803      2.97297      7.10595       -35.273837     -1.016640    -12.193723
      4.78021      3.45171      4.73992         1.859827     -3.081784      1.585604
      1.05867      1.05326      6.77045         0.126265     -0.546457      0.673789
      5.09770      6.87726      4.83375        -0.454425      2.246814      1.190879
      2.77939      4.87847      1.29102         4.778903      0.157913     -3.413556
      7.20610      3.07284      2.91729        -3.389712     -1.702125     -1.284741
      7.21539      4.87585      1.12839        -2.586218      0.640304     -1.719703
      4.95101      4.81634      2.92163        -1.126674     -0.238390      1.273399
      6.96601      7.10908      2.90719        -0.662135     -8.175154      0.285861
      4.81756      7.26300      0.88428        -0.504243    -17.613930      3.201041
      1.40340      5.29361      2.82221        -5.762929     -2.866131      0.695637
      4.87264      2.85815      1.03347         2.201208     -0.491981      2.102630
 -----------------------------------------------------------------------------------
    total drift:                               -0.026926      0.012017     -0.005092


--------------------------------------------------------------------------------------------------------



  FREE ENERGIE OF THE ION-ELECTRON SYSTEM (eV)
  ---------------------------------------------------
  free  energy   TOTEN  =      -245.1693949015 eV

  energy  without entropy=     -245.1421491129  energy(sigma->0) =     -245.15577201
 


--------------------------------------------------------------------------------------------------------


    POTLOK:  cpu time    0.1023: real time    0.1025


--------------------------------------------------------------------------------------------------------


     LOOP+:  cpu time 2537.0374: real time 2543.7020
    4ORBIT:  cpu time    0.0000: real time    0.0000

volume of typ            1:    22.0 %

volume of typ            2:    11.2 %
 
total charge     
 
# of ion       s       p       d       tot
------------------------------------------
    1        0.379   0.535   7.937   8.851
    2        0.349   0.465   7.915   8.729
    3        0.325   0.456   7.857   8.639
    4        0.447   0.709   8.040   9.196
    5        0.324   0.443   7.881   8.648
    6        0.308   0.430   7.826   8.563
    7        0.366   0.502   7.979   8.847
    8        0.628   0.988   8.404  10.021
    9        0.330   0.458   7.855   8.642
   10        0.380   0.544   7.970   8.894
   11        0.292   0.369   7.935   8.597
   12        0.405   0.607   8.050   9.061
   13        0.416   0.667   8.002   9.085
   14        0.328   0.489   7.955   8.772
   15        0.386   0.564   7.949   8.899
   16        0.262   0.320   7.835   8.417
   17        1.290   2.729   0.008   4.027
   18        1.296   2.696   0.007   3.999
   19        1.299   2.730   0.011   4.041
   20        1.291   2.774   0.013   4.079
   21        1.285   2.728   0.009   4.021
   22        1.326   2.983   0.051   4.359
   23        1.286   2.830   0.019   4.135
   24        1.293   2.701   0.007   4.000
   25        1.280   2.799   0.014   4.093
   26        1.300   2.662   0.006   3.968
   27        1.302   2.624   0.004   3.930
   28        1.294   2.839   0.022   4.154
   29        1.284   2.794   0.015   4.094
   30        1.290   2.951   0.036   4.277
   31        1.289   2.738   0.010   4.038
   32        1.296   2.672   0.005   3.974
   33        1.279   2.841   0.019   4.139
   34        1.291   2.797   0.015   4.103
   35        1.284   2.770   0.011   4.065
   36        1.291   2.920   0.031   4.241
   37        1.304   2.966   0.044   4.313
   38        1.274   2.764   0.010   4.047
   39        1.295   2.689   0.006   3.990
   40        1.300   2.702   0.009   4.011
   41        1.285   2.771   0.012   4.069
   42        1.306   2.608   0.003   3.917
   43        1.291   2.737   0.010   4.039
   44        1.295   2.666   0.006   3.967
   45        1.294   2.795   0.017   4.106
   46        1.288   2.904   0.028   4.220
   47        1.290   2.769   0.012   4.071
   48        1.294   2.677   0.006   3.977
--------------------------------------------------
tot          47.29   97.17  127.87  272.33
 
magnetization (x)
 
# of ion       s       p       d       tot
------------------------------------------
    1        0.000   0.005   0.150   0.155
    2       -0.000  -0.001   0.023   0.022
    3       -0.001  -0.001   0.028   0.027
    4       -0.000   0.001   0.009   0.009
    5        0.000   0.000  -0.004  -0.003
    6       -0.001  -0.000  -0.004  -0.005
    7       -0.000  -0.000   0.008   0.008
    8       -0.000  -0.000   0.002   0.002
    9        0.000  -0.003  -0.079  -0.082
   10        0.001   0.002  -0.098  -0.095
   11        0.001   0.000  -0.016  -0.015
   12        0.001   0.002  -0.022  -0.018
   13       -0.000   0.000   0.007   0.007
   14       -0.000  -0.000   0.011   0.011
   15        0.000   0.000  -0.006  -0.006
   16       -0.000  -0.000   0.005   0.005
   17       -0.000  -0.004  -0.000  -0.005
   18        0.000   0.011  -0.000   0.011
   19        0.000   0.016   0.000   0.016
   20       -0.000  -0.001   0.000  -0.001
   21        0.000   0.006  -0.000   0.006
   22        0.000   0.000  -0.000   0.001
   23       -0.000  -0.003   0.000  -0.003
   24        0.000  -0.008   0.000  -0.008
   25       -0.001  -0.024  -0.000  -0.024
   26        0.000   0.010   0.000   0.010
   27        0.001   0.076  -0.000   0.078
   28        0.001   0.022   0.000   0.022
   29        0.000   0.014   0.000   0.014
   30       -0.001   0.011  -0.000   0.011
   31       -0.001  -0.031   0.000  -0.032
   32       -0.000  -0.014   0.000  -0.014
   33       -0.000  -0.009   0.000  -0.010
   34       -0.007  -0.119  -0.000  -0.125
   35       -0.000  -0.006   0.000  -0.006
   36        0.000   0.001  -0.000   0.002
   37        0.000   0.003  -0.000   0.003
   38        0.002   0.069  -0.000   0.071
   39       -0.000  -0.008  -0.000  -0.008
   40       -0.004  -0.197   0.000  -0.201
   41        0.001   0.072   0.000   0.073
   42       -0.000  -0.005   0.000  -0.005
   43        0.001   0.036  -0.000   0.037
   44        0.000   0.011  -0.000   0.011
   45       -0.000  -0.005   0.000  -0.005
   46        0.000   0.009  -0.000   0.009
   47       -0.000  -0.004  -0.000  -0.004
   48       -0.000  -0.002  -0.000  -0.002
--------------------------------------------------
tot          -0.01   -0.06    0.02   -0.05
 

 total amount of memory used by VASP MPI-rank0   291719. kBytes
=======================================================================

   base      :      30000. kBytes
   nonlr-proj:      21232. kBytes
   fftplans  :       3726. kBytes
   grid      :      21274. kBytes
   one-center:       1492. kBytes
   wavefun   :     213995. kBytes
 
  
  
 General timing and accounting informations for this job:
 ========================================================
  
                  Total CPU time used (sec):     2580.811
                            User time (sec):     2576.012
                          System time (sec):        4.799
                         Elapsed time (sec):     2591.016
  
                   Maximum memory used (kb):      370920.
                   Average memory used (kb):           0.
  
                          Minor page faults:        37270
                          Major page faults:           90
                 Voluntary context switches:         1311
