 vasp.5.4.4.18Apr17-6-g9f103f2a35 (build May 12 2020 04:58:55) complex          
  
 MD_VERSION_INFO: Compiled 2020-05-12T11:58:55-UTC in devlin.sd.materialsdesign.
 com:/home/medea2/data/build/wwolf/vasp-gpu5.4.4/13047/x86_64/src/src/build/std 
 from svn 13047
 
 This VASP executable licensed from Materials Design, Inc.
 
 executed on                        Lin64 date 2023.03.24  21:46:59
 running on   16 total cores
 distrk:  each k-point on   16 cores,    1 groups
 distr:  one band on NCORES_PER_BAND=   1 cores,   16 groups


--------------------------------------------------------------------------------------------------------


 INCAR:
 POTCAR:    PAW_PBE Ni 02Aug2007                  
 POTCAR:    PAW_PBE O 08Apr2002                   

 ----------------------------------------------------------------------------- 
|                                                                             |
|           W    W    AA    RRRRR   N    N  II  N    N   GGGG   !!!           |
|           W    W   A  A   R    R  NN   N  II  NN   N  G    G  !!!           |
|           W    W  A    A  R    R  N N  N  II  N N  N  G       !!!           |
|           W WW W  AAAAAA  RRRRR   N  N N  II  N  N N  G  GGG   !            |
|           WW  WW  A    A  R   R   N   NN  II  N   NN  G    G                |
|           W    W  A    A  R    R  N    N  II  N    N   GGGG   !!!           |
|                                                                             |
|      For optimal performance we recommend to set                            |
|        NCORE= 4 - approx SQRT( number of cores)                             |
|      NCORE specifies how many cores store one orbital (NPAR=cpu/NCORE).     |
|      This setting can  greatly improve the performance of VASP for DFT.     |
|      The default,   NCORE=1            might be grossly inefficient         |
|      on modern multi-core architectures or massively parallel machines.     |
|      Do your own testing !!!!                                               |
|      Unfortunately you need to use the default for GW and RPA calculations. |
|      (for HF NCORE is supported but not extensively tested yet)             |
|                                                                             |
 ----------------------------------------------------------------------------- 

 POTCAR:    PAW_PBE Ni 02Aug2007                  
  local pseudopotential read in
  partial core-charges read in
  partial kinetic energy density read in
  atomic valenz-charges read in
  non local Contribution for L=           2  read in
    real space projection operators read in
  non local Contribution for L=           2  read in
    real space projection operators read in
  non local Contribution for L=           0  read in
    real space projection operators read in
  non local Contribution for L=           0  read in
    real space projection operators read in
  non local Contribution for L=           1  read in
    real space projection operators read in
  non local Contribution for L=           1  read in
    real space projection operators read in
    PAW grid and wavefunctions read in
 
   number of l-projection  operators is LMAX  =           6
   number of lm-projection operators is LMMAX =          18
 
 POTCAR:    PAW_PBE O 08Apr2002                   
  local pseudopotential read in
  partial core-charges read in
  partial kinetic energy density read in
  kinetic energy density of atom read in
  atomic valenz-charges read in
  non local Contribution for L=           0  read in
    real space projection operators read in
  non local Contribution for L=           0  read in
    real space projection operators read in
  non local Contribution for L=           1  read in
    real space projection operators read in
  non local Contribution for L=           1  read in
    real space projection operators read in
    PAW grid and wavefunctions read in
 
   number of l-projection  operators is LMAX  =           4
   number of lm-projection operators is LMMAX =           8
 
 Optimization of the real space projectors (new method)

 maximal supplied QI-value         = 16.25
 optimisation between [QCUT,QGAM] = [ 11.38, 22.75] = [ 36.24,144.96] Ry 
 Optimized for a Real-space Cutoff    1.47 Angstroem

   l    n(q)    QCUT    max X(q) W(low)/X(q) W(high)/X(q)  e(spline) 
   2      9    11.376    60.317    0.17E-03    0.16E-04    0.16E-06
   2      9    11.376    55.921    0.17E-03    0.16E-04    0.17E-06
   0     10    11.376    51.690    0.45E-04    0.60E-04    0.21E-06
   0     10    11.376    30.015    0.37E-04    0.55E-04    0.19E-06
   1     10    11.376    18.849    0.83E-04    0.11E-03    0.92E-07
   1     10    11.376    14.624    0.69E-04    0.92E-04    0.82E-07
 Optimization of the real space projectors (new method)

 maximal supplied QI-value         = 24.76
 optimisation between [QCUT,QGAM] = [ 11.39, 22.77] = [ 36.31,145.25] Ry 
 Optimized for a Real-space Cutoff    1.10 Angstroem

   l    n(q)    QCUT    max X(q) W(low)/X(q) W(high)/X(q)  e(spline) 
   0      7    11.387    20.381    0.22E-03    0.48E-03    0.18E-06
   0      7    11.387    15.268    0.22E-03    0.52E-03    0.19E-06
   1      7    11.387     5.964    0.22E-03    0.73E-03    0.24E-06
   1      7    11.387     5.382    0.19E-03    0.60E-03    0.21E-06

 ----------------------------------------------------------------------------- 
|                                                                             |
|  ADVICE TO THIS USER RUNNING 'VASP/VAMP'   (HEAR YOUR MASTER'S VOICE ...):  |
|                                                                             |
|      You enforced a specific xc-type in the INCAR file,                     |
|      a different type was found on the POTCAR file                          |
|          I HOPE YOU KNOW, WHAT YOU ARE  DOING                               |
|                                                                             |
 ----------------------------------------------------------------------------- 

  PAW_PBE Ni 02Aug2007                  :
 energy of atom  1       EATOM=-1077.6739
 kinetic energy error for atom=    0.0030 (will be added to EATOM!!)
  PAW_PBE O 08Apr2002                   :
 energy of atom  2       EATOM= -432.3788
 kinetic energy error for atom=    0.0224 (will be added to EATOM!!)
 
 
 POSCAR: NiO2_C2_m_scale_1_050_disp_0_15_round_2 
  positions in direct lattice
  No initial velocities read in
 exchange correlation table for  LEXCH =       14
   RHO(1)=    0.500       N(1)  =     2000
   RHO(2)=  100.500       N(2)  =     4000
 


--------------------------------------------------------------------------------------------------------


 ion  position               nearest neighbor table
   1  0.014  0.994  0.002-  27 2.02  46 2.17  19 2.19  22 2.34  51 2.41  54 2.49   7 2.73   9 2.80
                             3 2.81  13 3.07
   2  0.993  0.991  0.450-  20 1.67  52 2.02  44 2.14  53 2.25  21 2.30  10 2.81   4 2.83  14 3.04

   3  0.023  0.318  0.008-  19 1.77  23 1.95  43 1.98  26 2.28  50 2.32  46 2.39  11 2.51   1 2.81
                             9 2.82   5 2.84  13 2.98
   4  0.016  0.321  0.487-  24 1.78  25 1.83  21 2.06  44 2.13  48 2.15  45 2.26  10 2.48  12 2.82
                             2 2.83   6 2.83  14 3.02
   5  0.001  0.630  0.998-  23 1.62  27 1.67  30 1.97  47 2.00  50 2.02  11 2.70   3 2.84
   6  0.957  0.609  0.465-  48 1.63  28 1.72  49 1.98  29 2.11  25 2.14  52 2.23   4 2.83  16 2.85
                            12 2.94
   7  0.329  0.005  0.028-  27 1.90  31 1.97  34 2.15  39 2.30  22 2.39  15 2.54   9 2.63   1 2.73
                            13 3.01
   8  0.354  0.001  0.469-  32 1.76  33 1.85  20 2.09  41 2.10  29 2.15  28 2.27  16 2.50  14 2.67
                            12 2.85  10 3.08
   9  0.339  0.307  0.002-  31 1.77  35 1.86  38 1.88  22 1.92  19 2.03  15 2.41   7 2.63  17 2.66
                             1 2.80   3 2.82  11 2.90
  10  0.298  0.320  0.482-  24 1.73  37 1.81  21 1.84  36 1.99  20 2.09  33 2.31   4 2.48  18 2.71
                             2 2.81  16 2.93  12 2.98   8 3.08
  11  0.296  0.612  0.040-  39 1.71  23 1.78  35 1.85  26 2.26  42 2.49   3 2.51  30 2.52   5 2.70
                             9 2.90  17 2.98
  12  0.308  0.661  0.524-  41 1.63  37 1.73  25 1.86  40 2.07  28 2.12  24 2.19   4 2.82   8 2.85
                            18 2.87   6 2.94  10 2.98  14 3.01
  13  0.667  0.997  1.000-  51 1.84  46 2.02  43 2.09  39 2.22  34 2.25  42 2.36  15 2.93   3 2.98
                             7 3.01   1 3.07
  14  0.655  0.998  0.503-  44 1.62  45 1.79  41 1.98  32 2.01  53 2.01  40 2.28   8 2.67  16 2.81
                            12 3.01   4 3.02   2 3.04
  15  0.605  0.295  0.979-  34 1.70  31 1.77  38 2.03  47 2.09  50 2.11   9 2.41  43 2.44   7 2.54
                            17 2.71  13 2.93
  16  0.621  0.299  0.487-  33 1.57  45 1.88  32 1.96  49 2.01  36 2.02  48 2.08   8 2.50  14 2.81
                             6 2.85  18 2.92  10 2.93
  17  0.635  0.615  0.007-  35 1.49  47 1.63  51 1.97  54 2.02  38 2.07  42 2.32   9 2.66  15 2.71
                            11 2.98
  18  0.609  0.625  0.468-  36 1.58  40 1.60  49 1.87  37 1.90  53 1.99  52 2.13  10 2.71  12 2.87
                            16 2.92
  19  0.123  0.237  0.121-   3 1.77   9 2.03   1 2.19
  20  0.191  0.081  0.376-   2 1.67  10 2.09   8 2.09
  21  0.124  0.211  0.612-  10 1.84   4 2.06   2 2.30
  22  0.251  0.144  0.852-   9 1.92   1 2.34   7 2.39
  23  0.078  0.537  0.098-   5 1.62  11 1.78   3 1.95
  24  0.215  0.432  0.390-  10 1.73   4 1.78  12 2.19
  25  0.087  0.514  0.597-   4 1.83  12 1.86   6 2.14
  26  0.222  0.465  0.837-  11 2.26   3 2.28
  27  0.095  0.828  0.071-   5 1.67   7 1.90   1 2.02
  28  0.161  0.728  0.389-   6 1.72  12 2.12   8 2.27
  29  0.130  0.823  0.590-   6 2.11   8 2.15
  30  0.172  0.708  0.846-   5 1.97  11 2.52
  31  0.451  0.239  0.115-   9 1.77  15 1.77   7 1.97
  32  0.548  0.092  0.370-   8 1.76  16 1.96  14 2.01
  33  0.453  0.199  0.580-  16 1.57   8 1.85  10 2.31
  34  0.535  0.116  0.876-  15 1.70   7 2.15  13 2.25
  35  0.457  0.537  0.068-  17 1.49  11 1.85   9 1.86
  36  0.532  0.443  0.390-  18 1.58  10 1.99  16 2.02
  37  0.396  0.530  0.568-  12 1.73  10 1.81  18 1.90
  38  0.508  0.418  0.862-   9 1.88  15 2.03  17 2.07
  39  0.419  0.816  0.109-  11 1.71  13 2.22   7 2.30
  40  0.524  0.730  0.398-  18 1.60  12 2.07  14 2.28
  41  0.426  0.853  0.596-  12 1.63  14 1.98   8 2.10
  42  0.526  0.745  0.859-  17 2.32  13 2.36  11 2.49
  43  0.802  0.231  0.113-   3 1.98  13 2.09  15 2.44
  44  0.818  0.084  0.395-  14 1.62   4 2.13   2 2.14
  45  0.747  0.210  0.582-  14 1.79  16 1.88   4 2.26
  46  0.864  0.064  0.865-  13 2.02   1 2.17   3 2.39
  47  0.758  0.542  0.071-  17 1.63   5 2.00  15 2.09
  48  0.863  0.419  0.387-   6 1.63  16 2.08   4 2.15
  49  0.737  0.543  0.567-  18 1.87   6 1.98  16 2.01
  50  0.856  0.410  0.886-   5 2.02  15 2.11   3 2.32
  51  0.720  0.847  0.093-  13 1.84  17 1.97   1 2.41
  52  0.848  0.756  0.355-   2 2.02  18 2.13   6 2.23
  53  0.747  0.845  0.576-  18 1.99  14 2.01   2 2.25
  54  0.820  0.733  0.858-  17 2.02   1 2.49
 
  LATTYP: Found a hexagonal cell.
 ALAT       =     8.7810134983
 C/A-ratio  =     1.1065328053
  
  Lattice vectors:
  
 A1 = (   8.7810135000,   0.0000000000,   0.0000000000)
 A2 = (  -4.3905067500,   7.6045807600,   0.0000000000)
 A3 = (   0.0000000000,   0.0000000000,   9.7164795000)


Analysis of symmetry for initial positions (statically):
=====================================================================
 Subroutine PRICEL returns:
 Original cell was already a primitive cell.
 

 Routine SETGRP: Setting up the symmetry group for a 
 hexagonal supercell.


 Subroutine GETGRP returns: Found  1 space group operations
 (whereof  1 operations were pure point group operations)
 out of a pool of 24 trial point group operations.


The static configuration has the point symmetry C_1 .


Analysis of symmetry for dynamics (positions and initial velocities):
=====================================================================
 Subroutine PRICEL returns:
 Original cell was already a primitive cell.
 

 Routine SETGRP: Setting up the symmetry group for a 
 hexagonal supercell.


 Subroutine GETGRP returns: Found  1 space group operations
 (whereof  1 operations were pure point group operations)
 out of a pool of 24 trial point group operations.


The dynamic configuration has the point symmetry C_1 .


Analysis of structural, dynamic, and magnetic symmetry:
=====================================================================
 Subroutine PRICEL returns:
 Original cell was already a primitive cell.
 

 Routine SETGRP: Setting up the symmetry group for a 
 hexagonal supercell.


 Subroutine GETGRP returns: Found  1 space group operations
 (whereof  1 operations were pure point group operations)
 out of a pool of 24 trial point group operations.


The magnetic configuration has the point symmetry C_1 .


 Subroutine INISYM returns: Found  1 space group operations
 (whereof  1 operations are pure point group operations),
 and found     1 'primitive' translations

 
 
 KPOINTS: Automatic mesh                          

Automatic generation of k-mesh.
Space group operators:
 irot       det(A)        alpha          n_x          n_y          n_z        tau_x        tau_y        tau_z
    1     1.000000     0.000000     1.000000     0.000000     0.000000     0.000000     0.000000     0.000000
 
 Subroutine IBZKPT returns following result:
 ===========================================
 
 Found     26 irreducible k-points:
 
 Following reciprocal coordinates:
            Coordinates               Weight
  0.000000  0.000000  0.000000      1.000000
  0.250000  0.000000  0.000000      2.000000
  0.500000  0.000000  0.000000      1.000000
  0.000000  0.250000  0.000000      2.000000
  0.250000  0.250000  0.000000      2.000000
  0.500000  0.250000  0.000000      2.000000
 -0.250000  0.250000  0.000000      2.000000
  0.000000  0.500000  0.000000      1.000000
  0.250000  0.500000  0.000000      2.000000
  0.500000  0.500000  0.000000      1.000000
  0.000000  0.000000  0.333333      2.000000
  0.250000  0.000000  0.333333      2.000000
  0.500000  0.000000  0.333333      2.000000
 -0.250000  0.000000  0.333333      2.000000
  0.000000  0.250000  0.333333      2.000000
  0.250000  0.250000  0.333333      2.000000
  0.500000  0.250000  0.333333      2.000000
 -0.250000  0.250000  0.333333      2.000000
  0.000000  0.500000  0.333333      2.000000
  0.250000  0.500000  0.333333      2.000000
  0.500000  0.500000  0.333333      2.000000
 -0.250000  0.500000  0.333333      2.000000
  0.000000 -0.250000  0.333333      2.000000
  0.250000 -0.250000  0.333333      2.000000
  0.500000 -0.250000  0.333333      2.000000
 -0.250000 -0.250000  0.333333      2.000000
 
 Following cartesian coordinates:
            Coordinates               Weight
  0.000000  0.000000  0.000000      1.000000
  0.028471  0.016437  0.000000      2.000000
  0.056941  0.032875  0.000000      1.000000
  0.000000  0.032875  0.000000      2.000000
  0.028471  0.049312  0.000000      2.000000
  0.056941  0.065750  0.000000      2.000000
 -0.028471  0.016437  0.000000      2.000000
  0.000000  0.065750  0.000000      1.000000
  0.028471  0.082187  0.000000      2.000000
  0.056941  0.098625  0.000000      1.000000
  0.000000  0.000000  0.034306      2.000000
  0.028471  0.016437  0.034306      2.000000
  0.056941  0.032875  0.034306      2.000000
 -0.028471 -0.016437  0.034306      2.000000
  0.000000  0.032875  0.034306      2.000000
  0.028471  0.049312  0.034306      2.000000
  0.056941  0.065750  0.034306      2.000000
 -0.028471  0.016437  0.034306      2.000000
  0.000000  0.065750  0.034306      2.000000
  0.028471  0.082187  0.034306      2.000000
  0.056941  0.098625  0.034306      2.000000
 -0.028471  0.049312  0.034306      2.000000
  0.000000 -0.032875  0.034306      2.000000
  0.028471 -0.016437  0.034306      2.000000
  0.056941  0.000000  0.034306      2.000000
 -0.028471 -0.049312  0.034306      2.000000
 


--------------------------------------------------------------------------------------------------------




 Dimension of arrays:
   k-points           NKPTS =     26   k-points in BZ     NKDIM =     26   number of bands    NBANDS=    272
   number of dos      NEDOS =    301   number of ions     NIONS =     54
   non local maximal  LDIM  =      6   non local SUM 2l+1 LMDIM =     18
   total plane-waves  NPLWV = 294912
   max r-space proj   IRMAX =   6152   max aug-charges    IRDMAX=  14931
   dimension x,y,z NGX =    64 NGY =   64 NGZ =   72
   dimension x,y,z NGXF=   128 NGYF=  128 NGZF=  144
   support grid    NGXF=   128 NGYF=  128 NGZF=  144
   ions per type =              18  36
   NGX,Y,Z   is equivalent  to a cutoff of  12.12, 12.12, 12.32 a.u.
   NGXF,Y,Z  is equivalent  to a cutoff of  24.23, 24.23, 24.64 a.u.

 SYSTEM =  unknown system                          
 POSCAR =  NiO2_C2_m_scale_1_050_disp_0_15_round_2 

 Startparameter for this run:
   NWRITE =      1    write-flag & timer
   PREC   = accura    normal or accurate (medium, high low for compatibility)
   ISTART =      0    job   : 0-new  1-cont  2-samecut
   ICHARG =      2    charge: 1-file 2-atom 10-const
   ISPIN  =      2    spin polarized calculation?
   LNONCOLLINEAR =      F non collinear calculations
   LSORBIT =      F    spin-orbit coupling
   INIWAV =      1    electr: 0-lowe 1-rand  2-diag
   LASPH  =      F    aspherical Exc in radial PAW
   METAGGA=      F    non-selfconsistent MetaGGA calc.

 Electronic Relaxation 1
   ENCUT  =  500.0 eV  36.75 Ry    6.06 a.u.  16.01 16.01 17.72*2*pi/ulx,y,z
   ENINI  =  500.0     initial cutoff
   ENAUG  =  605.4 eV  augmentation charge cutoff
   NELM   =     80;   NELMIN=  2; NELMDL= -5     # of ELM steps 
   EDIFF  = 0.1E-04   stopping-criterion for ELM
   LREAL  =      T    real-space projection
   NLSPLINE    = F    spline interpolate recip. space projectors
   LCOMPAT=      F    compatible to vasp.4.4
   GGA_COMPAT  = T    GGA compatible to vasp.4.4-vasp.4.6
   LMAXPAW     = -100 max onsite density
   LMAXMIX     =    2 max onsite mixed and CHGCAR
   VOSKOWN=      1    Vosko Wilk Nusair interpolation
   ROPT   =   -0.00025  -0.00025
 Ionic relaxation
   EDIFFG = 0.1E-03   stopping-criterion for IOM
   NSW    =      0    number of steps for IOM
   NBLOCK =      1;   KBLOCK =      1    inner block; outer block 
   IBRION =     -1    ionic relax: 0-MD 1-quasi-New 2-CG
   NFREE  =      0    steps in history (QN), initial steepest desc. (CG)
   ISIF   =      2    stress and relaxation
   IWAVPR =     10    prediction:  0-non 1-charg 2-wave 3-comb
   ISYM   =      2    0-nonsym 1-usesym 2-fastsym
   LCORR  =      T    Harris-Foulkes like correction to forces

   POTIM  = 0.5000    time-step for ionic-motion
   TEIN   =    0.0    initial temperature
   TEBEG  =    0.0;   TEEND  =   0.0 temperature during run
   SMASS  =  -3.00    Nose mass-parameter (am)
   estimated Nose-frequenzy (Omega)   =  0.10E-29 period in steps =****** mass=  -0.176E-26a.u.
   SCALEE = 1.0000    scale energy and forces
   NPACO  =    256;   APACO  = 16.0  distance and # of slots for P.C.
   PSTRESS=    0.0 pullay stress

  Mass of Ions in am
   POMASS =  58.69 16.00
  Ionic Valenz
   ZVAL   =  10.00  6.00
  Atomic Wigner-Seitz radii
   RWIGS  =   1.15  0.73
  virtual crystal weights 
   VCA    =   1.00  1.00
   NELECT =     396.0000    total number of electrons
   NUPDOWN=      -1.0000    fix difference up-down

 DOS related values:
   EMIN   =  10.00;   EMAX   =-10.00  energy-range for DOS
   EFERMI =   0.00
   ISMEAR =     0;   SIGMA  =   0.05  broadening in eV -4-tet -1-fermi 0-gaus

 Electronic relaxation 2 (details)
   IALGO  =     38    algorithm
   LDIAG  =      T    sub-space diagonalisation (order eigenvalues)
   LSUBROT=      F    optimize rotation matrix (better conditioning)
   TURBO    =      0    0=normal 1=particle mesh
   IRESTART =      0    0=no restart 2=restart with 2 vectors
   NREBOOT  =      0    no. of reboots
   NMIN     =      0    reboot dimension
   EREF     =   0.00    reference energy to select bands
   IMIX   =      4    mixing-type and parameters
     AMIX     =   0.40;   BMIX     =  1.00
     AMIX_MAG =   1.60;   BMIX_MAG =  1.00
     AMIN     =   0.10
     WC   =   100.;   INIMIX=   1;  MIXPRE=   1;  MAXMIX= -45

 Intra band minimization:
   WEIMIN = 0.0000     energy-eigenvalue tresh-hold
   EBREAK =  0.92E-08  absolut break condition
   DEPER  =   0.30     relativ break condition  

   TIME   =   0.40     timestep for ELM

  volume/ion in A,a.u.               =      12.02        81.08
  Fermi-wavevector in a.u.,A,eV,Ry     =   1.388663  2.624193 26.237279  1.928386
  Thomas-Fermi vector in A             =   2.512768
 
 Write flags
   LWAVE        =      F    write WAVECAR
   LDOWNSAMPLE  =      F    k-point downsampling of WAVECAR
   LCHARG       =      T    write CHGCAR
   LVTOT        =      F    write LOCPOT, total local potential
   LVHAR        =      F    write LOCPOT, Hartree potential only
   LELF         =      F    write electronic localiz. function (ELF)
   LORBIT       =      0    0 simple, 1 ext, 2 COOP (PROOUT), +10 PAW based schemes


 Dipole corrections
   LMONO  =      F    monopole corrections only (constant potential shift)
   LDIPOL =      F    correct potential (dipole corrections)
   IDIPOL =      0    1-x, 2-y, 3-z, 4-all directions 
   EPSILON=  1.0000000 bulk dielectric constant

 Exchange correlation treatment:
   GGA     =    PS    GGA type
   LEXCH   =    14    internal setting for exchange type
   VOSKOWN=      1    Vosko Wilk Nusair interpolation
   LHFCALC =     F    Hartree Fock is set to
   LHFONE  =     F    Hartree Fock one center treatment
   AEXX    =    0.0000 exact exchange contribution

 Linear response parameters
   LEPSILON=     F    determine dielectric tensor
   LRPA    =     F    only Hartree local field effects (RPA)
   LNABLA  =     F    use nabla operator in PAW spheres
   LVEL    =     F    velocity operator in full k-point grid
   LINTERFAST=   F  fast interpolation
   KINTER  =     0    interpolate to denser k-point grid
   CSHIFT  =0.1000    complex shift for real part using Kramers Kronig
   OMEGAMAX=  -1.0    maximum frequency
   DEG_THRESHOLD= 0.2000000E-02 threshold for treating states as degnerate
   RTIME   =   -0.100 relaxation time in fs
  (WPLASMAI=    0.000 imaginary part of plasma frequency in eV, 0.658/RTIME)
   DFIELD  = 0.0000000 0.0000000 0.0000000 field for delta impulse in time
 
 Orbital magnetization related:
   ORBITALMAG=     F  switch on orbital magnetization
   LCHIMAG   =     F  perturbation theory with respect to B field
   DQ        =  0.001000  dq finite difference perturbation B field
   LLRAUG    =     F  two centre corrections for induced B field



--------------------------------------------------------------------------------------------------------


 Static calculation
 charge density and potential will be updated during run
 spin polarized calculation
 Variant of blocked Davidson
 Davidson routine will perform the subspace rotation
 perform sub-space diagonalisation
    after iterative eigenvector-optimisation
 modified Broyden-mixing scheme, WC =      100.0
 initial mixing is a Kerker type mixing with AMIX =  0.4000 and BMIX =      1.0000
 Hartree-type preconditioning will be used
 using additional bands           74
 real space projection scheme for non local part
 use partial core corrections
 calculate Harris-corrections to forces 
   (improved forces if not selfconsistent)
 use gradient corrections 
 use of overlap-Matrix (Vanderbilt PP)
 Gauss-broadening in eV      SIGMA  =   0.05


--------------------------------------------------------------------------------------------------------


  energy-cutoff  :      500.00
  volume of cell :      648.83
      direct lattice vectors                 reciprocal lattice vectors
     8.781013500  0.000000000  0.000000000     0.113882071  0.065749844  0.000000000
    -4.390506750  7.604580760  0.000000000     0.000000000  0.131499688  0.000000000
     0.000000000  0.000000000  9.716479500     0.000000000  0.000000000  0.102917934

  length of vectors
     8.781013500  8.781013498  9.716479500     0.131499688  0.131499688  0.102917934


 
 k-points in units of 2pi/SCALE and weight: Automatic mesh                          
   0.00000000  0.00000000  0.00000000       0.021
   0.02847052  0.01643746  0.00000000       0.042
   0.05694104  0.03287492  0.00000000       0.021
   0.00000000  0.03287492  0.00000000       0.042
   0.02847052  0.04931238  0.00000000       0.042
   0.05694104  0.06574984  0.00000000       0.042
  -0.02847052  0.01643746  0.00000000       0.042
   0.00000000  0.06574984  0.00000000       0.021
   0.02847052  0.08218731  0.00000000       0.042
   0.05694104  0.09862477  0.00000000       0.021
   0.00000000  0.00000000  0.03430598       0.042
   0.02847052  0.01643746  0.03430598       0.042
   0.05694104  0.03287492  0.03430598       0.042
  -0.02847052 -0.01643746  0.03430598       0.042
   0.00000000  0.03287492  0.03430598       0.042
   0.02847052  0.04931238  0.03430598       0.042
   0.05694104  0.06574984  0.03430598       0.042
  -0.02847052  0.01643746  0.03430598       0.042
   0.00000000  0.06574984  0.03430598       0.042
   0.02847052  0.08218731  0.03430598       0.042
   0.05694104  0.09862477  0.03430598       0.042
  -0.02847052  0.04931238  0.03430598       0.042
   0.00000000 -0.03287492  0.03430598       0.042
   0.02847052 -0.01643746  0.03430598       0.042
   0.05694104  0.00000000  0.03430598       0.042
  -0.02847052 -0.04931238  0.03430598       0.042
 
 k-points in reciprocal lattice and weights: Automatic mesh                          
   0.00000000  0.00000000  0.00000000       0.021
   0.25000000  0.00000000  0.00000000       0.042
   0.50000000  0.00000000  0.00000000       0.021
   0.00000000  0.25000000  0.00000000       0.042
   0.25000000  0.25000000  0.00000000       0.042
   0.50000000  0.25000000  0.00000000       0.042
  -0.25000000  0.25000000  0.00000000       0.042
   0.00000000  0.50000000  0.00000000       0.021
   0.25000000  0.50000000  0.00000000       0.042
   0.50000000  0.50000000  0.00000000       0.021
   0.00000000  0.00000000  0.33333333       0.042
   0.25000000  0.00000000  0.33333333       0.042
   0.50000000  0.00000000  0.33333333       0.042
  -0.25000000  0.00000000  0.33333333       0.042
   0.00000000  0.25000000  0.33333333       0.042
   0.25000000  0.25000000  0.33333333       0.042
   0.50000000  0.25000000  0.33333333       0.042
  -0.25000000  0.25000000  0.33333333       0.042
   0.00000000  0.50000000  0.33333333       0.042
   0.25000000  0.50000000  0.33333333       0.042
   0.50000000  0.50000000  0.33333333       0.042
  -0.25000000  0.50000000  0.33333333       0.042
   0.00000000 -0.25000000  0.33333333       0.042
   0.25000000 -0.25000000  0.33333333       0.042
   0.50000000 -0.25000000  0.33333333       0.042
  -0.25000000 -0.25000000  0.33333333       0.042
 
 position of ions in fractional coordinates (direct lattice) 
   0.01404423  0.99362641  0.00197211
   0.99274371  0.99052842  0.44981634
   0.02275889  0.31784643  0.00750923
   0.01634324  0.32120278  0.48698633
   0.00114280  0.62983137  0.99814160
   0.95742781  0.60896510  0.46507714
   0.32870962  0.00464894  0.02769792
   0.35430801  0.00051019  0.46900737
   0.33853140  0.30719076  0.00180401
   0.29843685  0.32013026  0.48150659
   0.29573598  0.61158228  0.03964454
   0.30843384  0.66148970  0.52365875
   0.66658939  0.99733081  0.99988422
   0.65506814  0.99808621  0.50344412
   0.60538493  0.29481672  0.97920257
   0.62136812  0.29885062  0.48741039
   0.63536159  0.61544146  0.00653125
   0.60939303  0.62482022  0.46831194
   0.12330830  0.23705827  0.12130987
   0.19130106  0.08117469  0.37595106
   0.12414774  0.21065007  0.61165122
   0.25142567  0.14406722  0.85157366
   0.07800914  0.53726449  0.09840999
   0.21505198  0.43168224  0.38994975
   0.08693056  0.51427435  0.59678999
   0.22219306  0.46482544  0.83733592
   0.09523845  0.82823365  0.07052408
   0.16103721  0.72760632  0.38903090
   0.12971136  0.82287755  0.59046370
   0.17227598  0.70796147  0.84601945
   0.45104509  0.23860431  0.11492021
   0.54756583  0.09185442  0.36977600
   0.45271517  0.19866829  0.58010086
   0.53498656  0.11598202  0.87594763
   0.45650920  0.53677094  0.06784771
   0.53209860  0.44277837  0.38994411
   0.39558670  0.53042398  0.56801409
   0.50794562  0.41810804  0.86218693
   0.41886929  0.81637466  0.10917775
   0.52411956  0.72989664  0.39797787
   0.42576868  0.85288394  0.59612386
   0.52601399  0.74472638  0.85850496
   0.80190900  0.23099045  0.11255824
   0.81750581  0.08445083  0.39498244
   0.74660528  0.21034386  0.58235845
   0.86424207  0.06408532  0.86460127
   0.75763996  0.54153049  0.07092978
   0.86344204  0.41855100  0.38706530
   0.73710140  0.54273251  0.56705549
   0.85639053  0.41019571  0.88637263
   0.71951139  0.84675112  0.09286656
   0.84841585  0.75632552  0.35548269
   0.74664354  0.84485005  0.57617095
   0.81952387  0.73279649  0.85832613
 
 position of ions in cartesian coordinates  (Angst):
  -4.23920089  7.55611228  0.01916197
   4.36837421  7.53255336  4.37063125
  -1.19566078  2.41708885  0.07296328
  -1.26673276  2.44261248  4.73179269
  -2.75524394  4.78960352  9.69842239
   5.73352114  4.63092428  4.51891250
   2.86599241  0.03535324  0.26912627
   3.10894343  0.00387978  4.55710050
   1.62392569  2.33605694  0.01752863
   1.21504394  2.43445642  4.67854891
  -0.08829450  4.65082684  0.38520536
  -0.19591328  5.03035185  5.08811951
   1.47454278  7.58428269  9.71535453
   1.37005794  7.59002719  4.89170447
   4.02149844  2.24195756  9.51440170
   4.14413619  2.27263367  4.73591306
   2.87701881  4.68017429  0.06346076
   2.60781103  4.75149582  4.55034336
   0.04196591  1.80272876  1.17870487
   1.32341917  0.61729949  3.65292077
   0.16528243  1.60190547  5.94309654
   1.57524410  1.09557081  8.27429801
  -1.67386406  4.08567120  0.95619865
  -0.00692945  3.28276246  3.78893875
  -1.49458658  3.91084083  5.79869770
  -0.08973897  3.53480260  8.13595730
  -2.80007532  6.29836968  0.68524578
  -1.78049054  5.53314102  3.78001076
  -2.47385223  6.25763878  5.73722844
  -1.59555191  5.38375017  8.22033064
   2.91303919  1.81448575  1.11661986
   4.40489549  0.69851436  3.59292092
   3.10304355  1.51078906  5.63653811
   4.18850436  0.88199464  8.51112719
   1.65191701  4.08191796  0.65924088
   2.72834357  3.36714387  3.78888395
   1.14482209  4.03365199  5.51909726
   2.62457117  3.17953636  8.37742163
   0.09379843  6.20818703  1.06082337
   1.39768481  5.55055795  3.86694382
  -0.00591217  6.48582480  5.79222527
   1.34920975  5.66333190  8.34164584
   6.02740862  1.75658553  1.09366983
   6.80774761  0.64221316  3.83783878
   5.63243491  1.59957687  5.65847394
   7.30755425  0.48734199  8.40088052
   4.27525345  4.11811235  0.68918775
   5.74424522  3.18290488  3.76091205
   4.08962660  4.12725320  5.50978304
   5.71900977  3.11936640  8.61242149
   2.60037272  6.43918728  0.90233603
   4.12929873  5.75153850  3.45404027
   2.84696716  6.42473044  5.59835322
   3.97890223  5.57261009  8.33990825
 


--------------------------------------------------------------------------------------------------------


 k-point  1 :   0.0000 0.0000 0.0000  plane waves:   16385
 k-point  2 :   0.2500 0.0000 0.0000  plane waves:   16470
 k-point  3 :   0.5000 0.0000 0.0000  plane waves:   16488
 k-point  4 :   0.0000 0.2500 0.0000  plane waves:   16470
 k-point  5 :   0.2500 0.2500 0.0000  plane waves:   16468
 k-point  6 :   0.5000 0.2500 0.0000  plane waves:   16468
 k-point  7 :  -0.2500 0.2500 0.0000  plane waves:   16470
 k-point  8 :   0.0000 0.5000 0.0000  plane waves:   16488
 k-point  9 :   0.2500 0.5000 0.0000  plane waves:   16468
 k-point 10 :   0.5000 0.5000 0.0000  plane waves:   16488
 k-point 11 :   0.0000 0.0000 0.3333  plane waves:   16410
 k-point 12 :   0.2500 0.0000 0.3333  plane waves:   16466
 k-point 13 :   0.5000 0.0000 0.3333  plane waves:   16452
 k-point 14 :  -0.2500 0.0000 0.3333  plane waves:   16466
 k-point 15 :   0.0000 0.2500 0.3333  plane waves:   16466
 k-point 16 :   0.2500 0.2500 0.3333  plane waves:   16464
 k-point 17 :   0.5000 0.2500 0.3333  plane waves:   16464
 k-point 18 :  -0.2500 0.2500 0.3333  plane waves:   16466
 k-point 19 :   0.0000 0.5000 0.3333  plane waves:   16452
 k-point 20 :   0.2500 0.5000 0.3333  plane waves:   16464
 k-point 21 :   0.5000 0.5000 0.3333  plane waves:   16452
 k-point 22 :  -0.2500 0.5000 0.3333  plane waves:   16464
 k-point 23 :   0.0000-0.2500 0.3333  plane waves:   16466
 k-point 24 :   0.2500-0.2500 0.3333  plane waves:   16466
 k-point 25 :   0.5000-0.2500 0.3333  plane waves:   16464
 k-point 26 :  -0.2500-0.2500 0.3333  plane waves:   16464

 maximum and minimum number of plane-waves per node :     16488    16385

 maximum number of plane-waves:     16488
 maximum index in each direction: 
   IXMAX=   16   IYMAX=   16   IZMAX=   17
   IXMIN=  -16   IYMIN=  -16   IZMIN=  -18

 The following grids will avoid any aliasing or wrap around errors in the Hartre
 e energy
  - symmetry arguments have not been applied
  - exchange correlation energies might require even more grid points
  - we recommend to set PREC=Normal or Accurate and rely on VASP defaults
 WARNING: aliasing errors must be expected set NGX to    70 to avoid them
 WARNING: aliasing errors must be expected set NGY to    70 to avoid them
 NGZ is ok and might be reduce to    72

 serial   3D FFT for wavefunctions
 parallel 3D FFT for charge:
    minimum data exchange during FFTs selected (reduces bandwidth)


 total amount of memory used by VASP MPI-rank0   344410. kBytes
=======================================================================

   base      :      30000. kBytes
   nonlr-proj:      28711. kBytes
   fftplans  :       6224. kBytes
   grid      :      35651. kBytes
   one-center:       1679. kBytes
   wavefun   :     242145. kBytes
 
     INWAV:  cpu time    0.0000: real time    0.0000
 Broyden mixing: mesh for mixing (old mesh)
   NGX = 33   NGY = 33   NGZ = 35
  (NGX  =128   NGY  =128   NGZ  =144)
  gives a total of  38115 points

 initial charge density was supplied:
 charge density of overlapping atoms calculated
 number of electron     396.0000000 magnetization      45.0000000
 keeping initial charge density in first step


--------------------------------------------------------------------------------------------------------


 Maximum index for non-local projection operator         5940
 Maximum index for augmentation-charges          990 (set IRDMAX)


--------------------------------------------------------------------------------------------------------


 First call to EWALD:  gamma=   0.205
 Maximum number of real-space cells 3x 3x 3
 Maximum number of reciprocal cells 3x 3x 3

    FEWALD:  cpu time    0.0026: real time    0.0027


--------------------------------------- Iteration      1(   1)  ---------------------------------------


    POTLOK:  cpu time    0.1855: real time    0.2041
    SETDIJ:  cpu time    0.0206: real time    0.0207
     EDDAV:  cpu time   65.3640: real time   65.5337
    --------------------------------------------
      LOOP:  cpu time   65.5727: real time   65.7611

 eigenvalue-minimisations  : 28288
 total energy-change (2. order) : 0.4883508E+04  (-0.1702499E+05)
 number of electron     396.0000000 magnetization      45.0000000
 augmentation part      396.0000000 magnetization      45.0000000

 Free energy of the ion-electron system (eV)
  ---------------------------------------------------
  alpha Z        PSCENC =      1069.12875734
  Ewald energy   TEWEN  =    -21614.71379003
  -Hartree energ DENC   =    -13719.25233834
  -exchange      EXHF   =         0.00000000
  -V(xc)+E(xc)   XCENC  =      1583.77486053
  PAW double counting   =     29771.88967665   -31027.00397701
  entropy T*S    EENTRO =        -0.01046098
  eigenvalues    EBANDS =      3929.31373390
  atomic energy  EATOM  =     34890.38139807
  Solvation  Ediel_sol  =         0.00000000
  ---------------------------------------------------
  free energy    TOTEN  =      4883.50786013 eV

  energy without entropy =     4883.51832111  energy(sigma->0) =     4883.51309062


--------------------------------------------------------------------------------------------------------




--------------------------------------- Iteration      1(   2)  ---------------------------------------


     EDDAV:  cpu time   66.1362: real time   66.2938
    --------------------------------------------
      LOOP:  cpu time   66.1361: real time   66.2936

 eigenvalue-minimisations  : 29232
 total energy-change (2. order) :-0.4282132E+04  (-0.3859499E+04)
 number of electron     396.0000000 magnetization      45.0000000
 augmentation part      396.0000000 magnetization      45.0000000

 Free energy of the ion-electron system (eV)
  ---------------------------------------------------
  alpha Z        PSCENC =      1069.12875734
  Ewald energy   TEWEN  =    -21614.71379003
  -Hartree energ DENC   =    -13719.25233834
  -exchange      EXHF   =         0.00000000
  -V(xc)+E(xc)   XCENC  =      1583.77486053
  PAW double counting   =     29771.88967665   -31027.00397701
  entropy T*S    EENTRO =        -0.03215406
  eigenvalues    EBANDS =      -352.79682156
  atomic energy  EATOM  =     34890.38139807
  Solvation  Ediel_sol  =         0.00000000
  ---------------------------------------------------
  free energy    TOTEN  =       601.37561159 eV

  energy without entropy =      601.40776565  energy(sigma->0) =      601.39168862


--------------------------------------------------------------------------------------------------------




--------------------------------------- Iteration      1(   3)  ---------------------------------------


     EDDAV:  cpu time   63.0875: real time   63.2365
    --------------------------------------------
      LOOP:  cpu time   63.0874: real time   63.2364

 eigenvalue-minimisations  : 29856
 total energy-change (2. order) :-0.9630507E+03  (-0.8526199E+03)
 number of electron     396.0000000 magnetization      45.0000000
 augmentation part      396.0000000 magnetization      45.0000000

 Free energy of the ion-electron system (eV)
  ---------------------------------------------------
  alpha Z        PSCENC =      1069.12875734
  Ewald energy   TEWEN  =    -21614.71379003
  -Hartree energ DENC   =    -13719.25233834
  -exchange      EXHF   =         0.00000000
  -V(xc)+E(xc)   XCENC  =      1583.77486053
  PAW double counting   =     29771.88967665   -31027.00397701
  entropy T*S    EENTRO =        -0.06986077
  eigenvalues    EBANDS =     -1315.80982697
  atomic energy  EATOM  =     34890.38139807
  Solvation  Ediel_sol  =         0.00000000
  ---------------------------------------------------
  free energy    TOTEN  =      -361.67510053 eV

  energy without entropy =     -361.60523976  energy(sigma->0) =     -361.64017014


--------------------------------------------------------------------------------------------------------




--------------------------------------- Iteration      1(   4)  ---------------------------------------


     EDDAV:  cpu time   68.7308: real time   68.9036
    --------------------------------------------
      LOOP:  cpu time   68.7318: real time   68.9254

 eigenvalue-minimisations  : 32384
 total energy-change (2. order) :-0.9130576E+02  (-0.8882299E+02)
 number of electron     396.0000000 magnetization      45.0000000
 augmentation part      396.0000000 magnetization      45.0000000

 Free energy of the ion-electron system (eV)
  ---------------------------------------------------
  alpha Z        PSCENC =      1069.12875734
  Ewald energy   TEWEN  =    -21614.71379003
  -Hartree energ DENC   =    -13719.25233834
  -exchange      EXHF   =         0.00000000
  -V(xc)+E(xc)   XCENC  =      1583.77486053
  PAW double counting   =     29771.88967665   -31027.00397701
  entropy T*S    EENTRO =        -0.07307434
  eigenvalues    EBANDS =     -1407.11237703
  atomic energy  EATOM  =     34890.38139807
  Solvation  Ediel_sol  =         0.00000000
  ---------------------------------------------------
  free energy    TOTEN  =      -452.98086416 eV

  energy without entropy =     -452.90778982  energy(sigma->0) =     -452.94432699


--------------------------------------------------------------------------------------------------------




--------------------------------------- Iteration      1(   5)  ---------------------------------------


     EDDAV:  cpu time   71.5421: real time   71.7391
    CHARGE:  cpu time    3.0496: real time    3.0870
    MIXING:  cpu time    0.0060: real time    0.0218
    --------------------------------------------
      LOOP:  cpu time   74.5944: real time   74.8237

 eigenvalue-minimisations  : 31904
 total energy-change (2. order) :-0.2355324E+01  (-0.2343775E+01)
 number of electron     395.9999966 magnetization      51.0205533
 augmentation part      110.4879349 magnetization      35.9552347

 Broyden mixing:
  rms(total) = 0.13475E+02    rms(broyden)= 0.13474E+02
  rms(prec ) = 0.16808E+02
  weight for this iteration     100.00

 Free energy of the ion-electron system (eV)
  ---------------------------------------------------
  alpha Z        PSCENC =      1069.12875734
  Ewald energy   TEWEN  =    -21614.71379003
  -Hartree energ DENC   =    -13719.25233834
  -exchange      EXHF   =         0.00000000
  -V(xc)+E(xc)   XCENC  =      1583.77486053
  PAW double counting   =     29771.88967665   -31027.00397701
  entropy T*S    EENTRO =        -0.07307012
  eigenvalues    EBANDS =     -1409.46770491
  atomic energy  EATOM  =     34890.38139807
  Solvation  Ediel_sol  =         0.00000000
  ---------------------------------------------------
  free energy    TOTEN  =      -455.33618782 eV

  energy without entropy =     -455.26311770  energy(sigma->0) =     -455.29965276


--------------------------------------------------------------------------------------------------------




--------------------------------------- Iteration      1(   6)  ---------------------------------------


    POTLOK:  cpu time    0.1536: real time    0.1540
    SETDIJ:  cpu time    0.0208: real time    0.0208
     EDDAV:  cpu time   93.3365: real time   93.5572
    CHARGE:  cpu time    2.9760: real time    2.9830
    MIXING:  cpu time    0.0057: real time    0.0388
    --------------------------------------------
      LOOP:  cpu time   96.4925: real time   96.7539

 eigenvalue-minimisations  : 45168
 total energy-change (2. order) :-0.2378927E+03  (-0.1301322E+03)
 number of electron     395.9999989 magnetization      45.2580618
 augmentation part      157.3430368 magnetization      43.7413233

 Broyden mixing:
  rms(total) = 0.28407E+02    rms(broyden)= 0.28406E+02
  rms(prec ) = 0.32115E+02
  weight for this iteration     100.00

 eigenvalues of (default mixing * dielectric matrix)
  average eigenvalue GAMMA=   0.2010
  0.2010

 Free energy of the ion-electron system (eV)
  ---------------------------------------------------
  alpha Z        PSCENC =      1069.12875734
  Ewald energy   TEWEN  =    -21614.71379003
  -Hartree energ DENC   =    -12927.48013240
  -exchange      EXHF   =         0.00000000
  -V(xc)+E(xc)   XCENC  =      1602.57336406
  PAW double counting   =     32054.35938081   -33065.32099666
  entropy T*S    EENTRO =        -0.04020568
  eigenvalues    EBANDS =     -2702.11661725
  atomic energy  EATOM  =     34890.38139807
  Solvation  Ediel_sol  =         0.00000000
  ---------------------------------------------------
  free energy    TOTEN  =      -693.22884174 eV

  energy without entropy =     -693.18863606  energy(sigma->0) =     -693.20873890


--------------------------------------------------------------------------------------------------------




--------------------------------------- Iteration      1(   7)  ---------------------------------------


    POTLOK:  cpu time    0.1558: real time    0.1562
    SETDIJ:  cpu time    0.0210: real time    0.0211
     EDDAV:  cpu time   78.5242: real time   78.7099
    CHARGE:  cpu time    2.5525: real time    2.5585
    MIXING:  cpu time    0.0038: real time    0.2492
    --------------------------------------------
      LOOP:  cpu time   81.2573: real time   81.6948

 eigenvalue-minimisations  : 37744
 total energy-change (2. order) : 0.2770024E+03  (-0.4426357E+02)
 number of electron     396.0000000 magnetization      39.4780861
 augmentation part      146.9745214 magnetization      34.4934260

 Broyden mixing:
  rms(total) = 0.13898E+02    rms(broyden)= 0.13897E+02
  rms(prec ) = 0.16751E+02
  weight for this iteration     100.00

 eigenvalues of (default mixing * dielectric matrix)
  average eigenvalue GAMMA=   0.4700
  0.4700  0.4700

 Free energy of the ion-electron system (eV)
  ---------------------------------------------------
  alpha Z        PSCENC =      1069.12875734
  Ewald energy   TEWEN  =    -21614.71379003
  -Hartree energ DENC   =    -13210.98386525
  -exchange      EXHF   =         0.00000000
  -V(xc)+E(xc)   XCENC  =      1584.98541147
  PAW double counting   =     33418.93722410   -34573.65348915
  entropy T*S    EENTRO =        -0.05549258
  eigenvalues    EBANDS =     -1980.25258458
  atomic energy  EATOM  =     34890.38139807
  Solvation  Ediel_sol  =         0.00000000
  ---------------------------------------------------
  free energy    TOTEN  =      -416.22643062 eV

  energy without entropy =     -416.17093804  energy(sigma->0) =     -416.19868433


--------------------------------------------------------------------------------------------------------




--------------------------------------- Iteration      1(   8)  ---------------------------------------


    POTLOK:  cpu time    0.1334: real time    0.1337
    SETDIJ:  cpu time    0.0186: real time    0.0187
     EDDAV:  cpu time   88.0258: real time   88.2472
    CHARGE:  cpu time    2.9231: real time    2.9499
    MIXING:  cpu time    0.0049: real time    0.0290
    --------------------------------------------
      LOOP:  cpu time   91.1059: real time   91.3785

 eigenvalue-minimisations  : 46288
 total energy-change (2. order) : 0.6663111E+01  (-0.2782688E+02)
 number of electron     395.9999976 magnetization      34.0258711
 augmentation part      144.3310424 magnetization      30.3705478

 Broyden mixing:
  rms(total) = 0.13056E+02    rms(broyden)= 0.13055E+02
  rms(prec ) = 0.19594E+02
  weight for this iteration     100.00

 eigenvalues of (default mixing * dielectric matrix)
  average eigenvalue GAMMA=   0.4518
  0.5789  0.5789  0.1976

 Free energy of the ion-electron system (eV)
  ---------------------------------------------------
  alpha Z        PSCENC =      1069.12875734
  Ewald energy   TEWEN  =    -21614.71379003
  -Hartree energ DENC   =    -13260.76713695
  -exchange      EXHF   =         0.00000000
  -V(xc)+E(xc)   XCENC  =      1573.66483086
  PAW double counting   =     34159.91312318   -35410.11551383
  entropy T*S    EENTRO =        -0.04056339
  eigenvalues    EBANDS =     -1817.01442474
  atomic energy  EATOM  =     34890.38139807
  Solvation  Ediel_sol  =         0.00000000
  ---------------------------------------------------
  free energy    TOTEN  =      -409.56331950 eV

  energy without entropy =     -409.52275611  energy(sigma->0) =     -409.54303781


--------------------------------------------------------------------------------------------------------




--------------------------------------- Iteration      1(   9)  ---------------------------------------


    POTLOK:  cpu time    0.1534: real time    0.1537
    SETDIJ:  cpu time    0.0209: real time    0.0210
     EDDAV:  cpu time   83.6083: real time   83.8062
    CHARGE:  cpu time    3.0793: real time    3.0866
    MIXING:  cpu time    0.0041: real time    0.0041
    --------------------------------------------
      LOOP:  cpu time   86.8659: real time   87.0715

 eigenvalue-minimisations  : 39312
 total energy-change (2. order) : 0.5313910E+02  (-0.2794613E+02)
 number of electron     395.9999974 magnetization      31.3930700
 augmentation part      119.6256916 magnetization      24.7725029

 Broyden mixing:
  rms(total) = 0.11553E+02    rms(broyden)= 0.11551E+02
  rms(prec ) = 0.17431E+02
  weight for this iteration     100.00

 eigenvalues of (default mixing * dielectric matrix)
  average eigenvalue GAMMA=   0.3917
  0.6046  0.6046  0.1902  0.1676

 Free energy of the ion-electron system (eV)
  ---------------------------------------------------
  alpha Z        PSCENC =      1069.12875734
  Ewald energy   TEWEN  =    -21614.71379003
  -Hartree energ DENC   =    -13408.97861445
  -exchange      EXHF   =         0.00000000
  -V(xc)+E(xc)   XCENC  =      1570.86425218
  PAW double counting   =     35049.15539452   -36353.03558901
  entropy T*S    EENTRO =        -0.08530701
  eigenvalues    EBANDS =     -1559.14072506
  atomic energy  EATOM  =     34890.38139807
  Solvation  Ediel_sol  =         0.00000000
  ---------------------------------------------------
  free energy    TOTEN  =      -356.42422346 eV

  energy without entropy =     -356.33891645  energy(sigma->0) =     -356.38156995


--------------------------------------------------------------------------------------------------------




--------------------------------------- Iteration      1(  10)  ---------------------------------------


    POTLOK:  cpu time    0.1507: real time    0.1511
    SETDIJ:  cpu time    0.0209: real time    0.0209
     EDDAV:  cpu time   85.2971: real time   85.4988
    CHARGE:  cpu time    3.0098: real time    3.0169
    MIXING:  cpu time    0.0043: real time    0.0044
    --------------------------------------------
      LOOP:  cpu time   88.4828: real time   88.6920

 eigenvalue-minimisations  : 40304
 total energy-change (2. order) : 0.1399585E+02  (-0.1504537E+02)
 number of electron     395.9999971 magnetization      29.0629743
 augmentation part      119.5360871 magnetization      22.3713627

 Broyden mixing:
  rms(total) = 0.10343E+02    rms(broyden)= 0.10342E+02
  rms(prec ) = 0.15382E+02
  weight for this iteration     100.00

 eigenvalues of (default mixing * dielectric matrix)
  average eigenvalue GAMMA=   0.3484
  0.6071  0.6071  0.2238  0.2238  0.0803

 Free energy of the ion-electron system (eV)
  ---------------------------------------------------
  alpha Z        PSCENC =      1069.12875734
  Ewald energy   TEWEN  =    -21614.71379003
  -Hartree energ DENC   =    -13393.27578969
  -exchange      EXHF   =         0.00000000
  -V(xc)+E(xc)   XCENC  =      1568.93820724
  PAW double counting   =     35509.91677608   -36821.47421856
  entropy T*S    EENTRO =        -0.05714806
  eigenvalues    EBANDS =     -1551.27256945
  atomic energy  EATOM  =     34890.38139807
  Solvation  Ediel_sol  =         0.00000000
  ---------------------------------------------------
  free energy    TOTEN  =      -342.42837707 eV

  energy without entropy =     -342.37122902  energy(sigma->0) =     -342.39980305


--------------------------------------------------------------------------------------------------------




--------------------------------------- Iteration      1(  11)  ---------------------------------------


    POTLOK:  cpu time    0.1507: real time    0.1511
    SETDIJ:  cpu time    0.0208: real time    0.0209
     EDDAV:  cpu time   83.4581: real time   83.6555
    CHARGE:  cpu time    2.5449: real time    2.5509
    MIXING:  cpu time    0.0039: real time    0.0039
    --------------------------------------------
      LOOP:  cpu time   86.1784: real time   86.3823

 eigenvalue-minimisations  : 39760
 total energy-change (2. order) : 0.2164418E+02  (-0.7369081E+01)
 number of electron     395.9999975 magnetization      26.1121604
 augmentation part      122.8458707 magnetization      20.2511220

 Broyden mixing:
  rms(total) = 0.77010E+01    rms(broyden)= 0.77003E+01
  rms(prec ) = 0.10920E+02
  weight for this iteration     100.00

 eigenvalues of (default mixing * dielectric matrix)
  average eigenvalue GAMMA=   0.3320
  0.6021  0.6021  0.2971  0.2971  0.1192  0.0742

 Free energy of the ion-electron system (eV)
  ---------------------------------------------------
  alpha Z        PSCENC =      1069.12875734
  Ewald energy   TEWEN  =    -21614.71379003
  -Hartree energ DENC   =    -13359.37624083
  -exchange      EXHF   =         0.00000000
  -V(xc)+E(xc)   XCENC  =      1567.33658414
  PAW double counting   =     35903.60371062   -37215.76063659
  entropy T*S    EENTRO =        -0.07959173
  eigenvalues    EBANDS =     -1561.30438317
  atomic energy  EATOM  =     34890.38139807
  Solvation  Ediel_sol  =         0.00000000
  ---------------------------------------------------
  free energy    TOTEN  =      -320.78419219 eV

  energy without entropy =     -320.70460046  energy(sigma->0) =     -320.74439632


--------------------------------------------------------------------------------------------------------




--------------------------------------- Iteration      1(  12)  ---------------------------------------


    POTLOK:  cpu time    0.1306: real time    0.1309
    SETDIJ:  cpu time    0.0178: real time    0.0179
     EDDAV:  cpu time   77.9834: real time   78.1678
    CHARGE:  cpu time    2.5680: real time    2.5742
    MIXING:  cpu time    0.0041: real time    0.0041
    --------------------------------------------
      LOOP:  cpu time   80.7039: real time   80.8948

 eigenvalue-minimisations  : 39792
 total energy-change (2. order) : 0.1781965E+02  (-0.4022191E+01)
 number of electron     395.9999976 magnetization      24.0653587
 augmentation part      128.4602671 magnetization      17.9629003

 Broyden mixing:
  rms(total) = 0.44956E+01    rms(broyden)= 0.44945E+01
  rms(prec ) = 0.65590E+01
  weight for this iteration     100.00

 eigenvalues of (default mixing * dielectric matrix)
  average eigenvalue GAMMA=   0.3771
  0.7541  0.7541  0.3929  0.3929  0.1883  0.0788  0.0788

 Free energy of the ion-electron system (eV)
  ---------------------------------------------------
  alpha Z        PSCENC =      1069.12875734
  Ewald energy   TEWEN  =    -21614.71379003
  -Hartree energ DENC   =    -13308.64700018
  -exchange      EXHF   =         0.00000000
  -V(xc)+E(xc)   XCENC  =      1565.87683125
  PAW double counting   =     36334.41738679   -37643.26877221
  entropy T*S    EENTRO =        -0.06427647
  eigenvalues    EBANDS =     -1596.07507359
  atomic energy  EATOM  =     34890.38139807
  Solvation  Ediel_sol  =         0.00000000
  ---------------------------------------------------
  free energy    TOTEN  =      -302.96453905 eV

  energy without entropy =     -302.90026257  energy(sigma->0) =     -302.93240081


--------------------------------------------------------------------------------------------------------




--------------------------------------- Iteration      1(  13)  ---------------------------------------


    POTLOK:  cpu time    0.1296: real time    0.1299
    SETDIJ:  cpu time    0.0178: real time    0.0179
     EDDAV:  cpu time   74.7060: real time   74.8826
    CHARGE:  cpu time    2.5357: real time    2.5783
    MIXING:  cpu time    0.0043: real time    0.0043
    --------------------------------------------
      LOOP:  cpu time   77.3934: real time   77.6130

 eigenvalue-minimisations  : 38000
 total energy-change (2. order) :-0.3664346E+01  (-0.3021689E+01)
 number of electron     395.9999981 magnetization      22.8071840
 augmentation part      127.4683035 magnetization      16.5537876

 Broyden mixing:
  rms(total) = 0.62334E+01    rms(broyden)= 0.62328E+01
  rms(prec ) = 0.88182E+01
  weight for this iteration     100.00

 eigenvalues of (default mixing * dielectric matrix)
  average eigenvalue GAMMA=   0.3752
  0.8486  0.8486  0.4152  0.4152  0.2045  0.0976  0.0976  0.0743

 Free energy of the ion-electron system (eV)
  ---------------------------------------------------
  alpha Z        PSCENC =      1069.12875734
  Ewald energy   TEWEN  =    -21614.71379003
  -Hartree energ DENC   =    -13303.83970336
  -exchange      EXHF   =         0.00000000
  -V(xc)+E(xc)   XCENC  =      1565.66043983
  PAW double counting   =     36564.16541863   -37872.04288572
  entropy T*S    EENTRO =        -0.06249410
  eigenvalues    EBANDS =     -1605.30602616
  atomic energy  EATOM  =     34890.38139807
  Solvation  Ediel_sol  =         0.00000000
  ---------------------------------------------------
  free energy    TOTEN  =      -306.62888552 eV

  energy without entropy =     -306.56639141  energy(sigma->0) =     -306.59763847


--------------------------------------------------------------------------------------------------------




--------------------------------------- Iteration      1(  14)  ---------------------------------------


    POTLOK:  cpu time    0.1355: real time    0.1358
    SETDIJ:  cpu time    0.0188: real time    0.0188
     EDDAV:  cpu time   83.9244: real time   84.1288
    CHARGE:  cpu time    3.0240: real time    3.0311
    MIXING:  cpu time    0.0052: real time    0.0052
    --------------------------------------------
      LOOP:  cpu time   87.1079: real time   87.3198

 eigenvalue-minimisations  : 39008
 total energy-change (2. order) : 0.7828463E+01  (-0.1725511E+01)
 number of electron     395.9999981 magnetization      21.9831422
 augmentation part      128.4276994 magnetization      15.7269044

 Broyden mixing:
  rms(total) = 0.35742E+01    rms(broyden)= 0.35736E+01
  rms(prec ) = 0.49730E+01
  weight for this iteration     100.00

 eigenvalues of (default mixing * dielectric matrix)
  average eigenvalue GAMMA=   0.3614
  0.8866  0.8866  0.4284  0.4284  0.2067  0.1615  0.1062  0.0743  0.0743

 Free energy of the ion-electron system (eV)
  ---------------------------------------------------
  alpha Z        PSCENC =      1069.12875734
  Ewald energy   TEWEN  =    -21614.71379003
  -Hartree energ DENC   =    -13306.00685318
  -exchange      EXHF   =         0.00000000
  -V(xc)+E(xc)   XCENC  =      1565.75484531
  PAW double counting   =     36664.48523566   -37970.99834576
  entropy T*S    EENTRO =        -0.06914842
  eigenvalues    EBANDS =     -1596.76252157
  atomic energy  EATOM  =     34890.38139807
  Solvation  Ediel_sol  =         0.00000000
  ---------------------------------------------------
  free energy    TOTEN  =      -298.80042259 eV

  energy without entropy =     -298.73127418  energy(sigma->0) =     -298.76584838


--------------------------------------------------------------------------------------------------------




--------------------------------------- Iteration      1(  15)  ---------------------------------------


    POTLOK:  cpu time    0.1508: real time    0.1512
    SETDIJ:  cpu time    0.0208: real time    0.0208
     EDDAV:  cpu time   80.1918: real time   80.3813
    CHARGE:  cpu time    3.1330: real time    3.1404
    MIXING:  cpu time    0.0055: real time    0.0055
    --------------------------------------------
      LOOP:  cpu time   83.5019: real time   83.6992

 eigenvalue-minimisations  : 36784
 total energy-change (2. order) : 0.4126444E+01  (-0.9217108E+00)
 number of electron     395.9999979 magnetization      20.2199735
 augmentation part      128.4940953 magnetization      14.0100793

 Broyden mixing:
  rms(total) = 0.24481E+01    rms(broyden)= 0.24477E+01
  rms(prec ) = 0.33387E+01
  weight for this iteration     100.00

 eigenvalues of (default mixing * dielectric matrix)
  average eigenvalue GAMMA=   0.3842
  1.0150  1.0150  0.4515  0.4515  0.3420  0.2061  0.0943  0.0943  0.0965  0.0761

 Free energy of the ion-electron system (eV)
  ---------------------------------------------------
  alpha Z        PSCENC =      1069.12875734
  Ewald energy   TEWEN  =    -21614.71379003
  -Hartree energ DENC   =    -13307.32403076
  -exchange      EXHF   =         0.00000000
  -V(xc)+E(xc)   XCENC  =      1565.85947117
  PAW double counting   =     36727.41582458   -38033.59969483
  entropy T*S    EENTRO =        -0.06290367
  eigenvalues    EBANDS =     -1591.75901011
  atomic energy  EATOM  =     34890.38139807
  Solvation  Ediel_sol  =         0.00000000
  ---------------------------------------------------
  free energy    TOTEN  =      -294.67397825 eV

  energy without entropy =     -294.61107458  energy(sigma->0) =     -294.64252641


--------------------------------------------------------------------------------------------------------




--------------------------------------- Iteration      1(  16)  ---------------------------------------


    POTLOK:  cpu time    0.1512: real time    0.1515
    SETDIJ:  cpu time    0.0209: real time    0.0210
     EDDAV:  cpu time   84.0479: real time   84.2465
    CHARGE:  cpu time    2.5607: real time    2.5668
    MIXING:  cpu time    0.0111: real time    0.0958
    --------------------------------------------
      LOOP:  cpu time   86.7918: real time   87.0816

 eigenvalue-minimisations  : 38688
 total energy-change (2. order) :-0.3651730E+00  (-0.7701641E+00)
 number of electron     395.9999979 magnetization      18.6018579
 augmentation part      129.4018152 magnetization      12.0860327

 Broyden mixing:
  rms(total) = 0.22969E+01    rms(broyden)= 0.22964E+01
  rms(prec ) = 0.31234E+01
  weight for this iteration     100.00

 eigenvalues of (default mixing * dielectric matrix)
  average eigenvalue GAMMA=   0.3810
  1.0428  1.0428  0.4536  0.4536  0.4296  0.2458  0.1725  0.0958  0.0958  0.0792
  0.0792

 Free energy of the ion-electron system (eV)
  ---------------------------------------------------
  alpha Z        PSCENC =      1069.12875734
  Ewald energy   TEWEN  =    -21614.71379003
  -Hartree energ DENC   =    -13306.96273773
  -exchange      EXHF   =         0.00000000
  -V(xc)+E(xc)   XCENC  =      1565.84678063
  PAW double counting   =     36891.57635027   -38196.99880080
  entropy T*S    EENTRO =        -0.06554049
  eigenvalues    EBANDS =     -1593.23156856
  atomic energy  EATOM  =     34890.38139807
  Solvation  Ediel_sol  =         0.00000000
  ---------------------------------------------------
  free energy    TOTEN  =      -295.03915130 eV

  energy without entropy =     -294.97361080  energy(sigma->0) =     -295.00638105


--------------------------------------------------------------------------------------------------------




--------------------------------------- Iteration      1(  17)  ---------------------------------------


    POTLOK:  cpu time    0.1523: real time    0.1526
    SETDIJ:  cpu time    0.0177: real time    0.0177
     EDDAV:  cpu time   80.8959: real time   81.0871
    CHARGE:  cpu time    2.5064: real time    2.5124
    MIXING:  cpu time    0.0053: real time    0.0053
    --------------------------------------------
      LOOP:  cpu time   83.5775: real time   83.7752

 eigenvalue-minimisations  : 41264
 total energy-change (2. order) : 0.1169150E+01  (-0.4552079E+00)
 number of electron     395.9999981 magnetization      17.1618262
 augmentation part      130.4341943 magnetization       9.9043908

 Broyden mixing:
  rms(total) = 0.13804E+01    rms(broyden)= 0.13799E+01
  rms(prec ) = 0.18872E+01
  weight for this iteration     100.00

 eigenvalues of (default mixing * dielectric matrix)
  average eigenvalue GAMMA=   0.3942
  1.0152  1.0152  0.5531  0.5531  0.4475  0.4475  0.2067  0.1396  0.0785  0.0864
  0.0938  0.0938

 Free energy of the ion-electron system (eV)
  ---------------------------------------------------
  alpha Z        PSCENC =      1069.12875734
  Ewald energy   TEWEN  =    -21614.71379003
  -Hartree energ DENC   =    -13299.67344577
  -exchange      EXHF   =         0.00000000
  -V(xc)+E(xc)   XCENC  =      1565.70052448
  PAW double counting   =     37078.88793465   -38383.43260318
  entropy T*S    EENTRO =        -0.06229239
  eigenvalues    EBANDS =     -1600.08648451
  atomic energy  EATOM  =     34890.38139807
  Solvation  Ediel_sol  =         0.00000000
  ---------------------------------------------------
  free energy    TOTEN  =      -293.87000135 eV

  energy without entropy =     -293.80770896  energy(sigma->0) =     -293.83885516


--------------------------------------------------------------------------------------------------------




--------------------------------------- Iteration      1(  18)  ---------------------------------------


    POTLOK:  cpu time    0.1385: real time    0.1389
    SETDIJ:  cpu time    0.0193: real time    0.0194
     EDDAV:  cpu time   85.9002: real time   86.1211
    CHARGE:  cpu time    3.0411: real time    3.0483
    MIXING:  cpu time    0.0066: real time    0.0121
    --------------------------------------------
      LOOP:  cpu time   89.1059: real time   89.3397

 eigenvalue-minimisations  : 40752
 total energy-change (2. order) :-0.6233154E+00  (-0.4102941E+00)
 number of electron     395.9999983 magnetization      16.2759850
 augmentation part      130.4695872 magnetization       8.9586636

 Broyden mixing:
  rms(total) = 0.15179E+01    rms(broyden)= 0.15176E+01
  rms(prec ) = 0.20585E+01
  weight for this iteration     100.00

 eigenvalues of (default mixing * dielectric matrix)
  average eigenvalue GAMMA=   0.3927
  0.9990  0.9990  0.6824  0.6824  0.4355  0.4355  0.2172  0.1744  0.1261  0.0952
  0.0952  0.0837  0.0793

 Free energy of the ion-electron system (eV)
  ---------------------------------------------------
  alpha Z        PSCENC =      1069.12875734
  Ewald energy   TEWEN  =    -21614.71379003
  -Hartree energ DENC   =    -13299.60172943
  -exchange      EXHF   =         0.00000000
  -V(xc)+E(xc)   XCENC  =      1565.82417272
  PAW double counting   =     37282.96061669   -38588.50444014
  entropy T*S    EENTRO =        -0.05024191
  eigenvalues    EBANDS =     -1599.91806003
  atomic energy  EATOM  =     34890.38139807
  Solvation  Ediel_sol  =         0.00000000
  ---------------------------------------------------
  free energy    TOTEN  =      -294.49331673 eV

  energy without entropy =     -294.44307481  energy(sigma->0) =     -294.46819577


--------------------------------------------------------------------------------------------------------




--------------------------------------- Iteration      1(  19)  ---------------------------------------


    POTLOK:  cpu time    0.1520: real time    0.1523
    SETDIJ:  cpu time    0.0208: real time    0.0209
     EDDAV:  cpu time   86.5982: real time   86.8030
    CHARGE:  cpu time    3.0119: real time    3.0191
    MIXING:  cpu time    0.0066: real time    0.0066
    --------------------------------------------
      LOOP:  cpu time   89.7896: real time   90.0020

 eigenvalue-minimisations  : 39904
 total energy-change (2. order) : 0.2299784E+00  (-0.2145501E+00)
 number of electron     395.9999981 magnetization      15.9075126
 augmentation part      130.5232441 magnetization       8.0192218

 Broyden mixing:
  rms(total) = 0.10636E+01    rms(broyden)= 0.10633E+01
  rms(prec ) = 0.14340E+01
  weight for this iteration     100.00

 eigenvalues of (default mixing * dielectric matrix)
  average eigenvalue GAMMA=   0.4183
  1.3415  0.8372  0.8372  0.7867  0.4388  0.4388  0.3234  0.2113  0.1678  0.1188
  0.0787  0.0864  0.0945  0.0945

 Free energy of the ion-electron system (eV)
  ---------------------------------------------------
  alpha Z        PSCENC =      1069.12875734
  Ewald energy   TEWEN  =    -21614.71379003
  -Hartree energ DENC   =    -13301.53672610
  -exchange      EXHF   =         0.00000000
  -V(xc)+E(xc)   XCENC  =      1566.04266517
  PAW double counting   =     37432.45292490   -38739.71223797
  entropy T*S    EENTRO =        -0.05050610
  eigenvalues    EBANDS =     -1596.25582357
  atomic energy  EATOM  =     34890.38139807
  Solvation  Ediel_sol  =         0.00000000
  ---------------------------------------------------
  free energy    TOTEN  =      -294.26333830 eV

  energy without entropy =     -294.21283220  energy(sigma->0) =     -294.23808525


--------------------------------------------------------------------------------------------------------




--------------------------------------- Iteration      1(  20)  ---------------------------------------


    POTLOK:  cpu time    0.1508: real time    0.1511
    SETDIJ:  cpu time    0.0208: real time    0.0209
     EDDAV:  cpu time   89.4032: real time   89.6145
    CHARGE:  cpu time    3.0714: real time    3.0787
    MIXING:  cpu time    0.0071: real time    0.0072
    --------------------------------------------
      LOOP:  cpu time   92.6533: real time   92.8723

 eigenvalue-minimisations  : 41440
 total energy-change (2. order) :-0.2047559E+00  (-0.2152287E+00)
 number of electron     395.9999980 magnetization      15.7528162
 augmentation part      130.0622250 magnetization       7.8036497

 Broyden mixing:
  rms(total) = 0.12550E+01    rms(broyden)= 0.12547E+01
  rms(prec ) = 0.16782E+01
  weight for this iteration     100.00

 eigenvalues of (default mixing * dielectric matrix)
  average eigenvalue GAMMA=   0.4275
  1.4154  0.9541  0.9541  0.7661  0.4439  0.4439  0.4265  0.2244  0.1924  0.1371
  0.0788  0.0955  0.0955  0.0856  0.0984

 Free energy of the ion-electron system (eV)
  ---------------------------------------------------
  alpha Z        PSCENC =      1069.12875734
  Ewald energy   TEWEN  =    -21614.71379003
  -Hartree energ DENC   =    -13306.31195529
  -exchange      EXHF   =         0.00000000
  -V(xc)+E(xc)   XCENC  =      1566.35326153
  PAW double counting   =     37533.91078730   -38843.01319909
  entropy T*S    EENTRO =        -0.05284070
  eigenvalues    EBANDS =     -1590.15051333
  atomic energy  EATOM  =     34890.38139807
  Solvation  Ediel_sol  =         0.00000000
  ---------------------------------------------------
  free energy    TOTEN  =      -294.46809421 eV

  energy without entropy =     -294.41525351  energy(sigma->0) =     -294.44167386


--------------------------------------------------------------------------------------------------------




--------------------------------------- Iteration      1(  21)  ---------------------------------------


    POTLOK:  cpu time    0.1507: real time    0.1511
    SETDIJ:  cpu time    0.0208: real time    0.0208
     EDDAV:  cpu time   85.8252: real time   86.0280
    CHARGE:  cpu time    3.0255: real time    3.0327
    MIXING:  cpu time    0.0067: real time    0.0205
    --------------------------------------------
      LOOP:  cpu time   89.0289: real time   89.2531

 eigenvalue-minimisations  : 39088
 total energy-change (2. order) : 0.2377990E-01  (-0.1815023E+00)
 number of electron     395.9999981 magnetization      15.3560922
 augmentation part      130.0371561 magnetization       7.3888322

 Broyden mixing:
  rms(total) = 0.94529E+00    rms(broyden)= 0.94508E+00
  rms(prec ) = 0.12770E+01
  weight for this iteration     100.00

 eigenvalues of (default mixing * dielectric matrix)
  average eigenvalue GAMMA=   0.4566
  1.8022  1.0676  1.0676  0.6220  0.6220  0.4420  0.4420  0.2673  0.2097  0.1756
  0.1282  0.0788  0.0863  0.0960  0.0960  0.1015

 Free energy of the ion-electron system (eV)
  ---------------------------------------------------
  alpha Z        PSCENC =      1069.12875734
  Ewald energy   TEWEN  =    -21614.71379003
  -Hartree energ DENC   =    -13307.20965851
  -exchange      EXHF   =         0.00000000
  -V(xc)+E(xc)   XCENC  =      1566.58593612
  PAW double counting   =     37612.49407034   -38922.46348774
  entropy T*S    EENTRO =        -0.05155726
  eigenvalues    EBANDS =     -1588.59598264
  atomic energy  EATOM  =     34890.38139807
  Solvation  Ediel_sol  =         0.00000000
  ---------------------------------------------------
  free energy    TOTEN  =      -294.44431431 eV

  energy without entropy =     -294.39275705  energy(sigma->0) =     -294.41853568


--------------------------------------------------------------------------------------------------------




--------------------------------------- Iteration      1(  22)  ---------------------------------------


    POTLOK:  cpu time    0.1358: real time    0.1362
    SETDIJ:  cpu time    0.0178: real time    0.0179
     EDDAV:  cpu time   86.9917: real time   87.1973
    CHARGE:  cpu time    2.6133: real time    2.6195
    MIXING:  cpu time    0.0070: real time    0.0070
    --------------------------------------------
      LOOP:  cpu time   89.7656: real time   89.9778

 eigenvalue-minimisations  : 40048
 total energy-change (2. order) :-0.9052758E-01  (-0.1415247E+00)
 number of electron     395.9999981 magnetization      15.4284489
 augmentation part      130.1855497 magnetization       6.8303331

 Broyden mixing:
  rms(total) = 0.10584E+01    rms(broyden)= 0.10582E+01
  rms(prec ) = 0.14121E+01
  weight for this iteration     100.00

 eigenvalues of (default mixing * dielectric matrix)
  average eigenvalue GAMMA=   0.4753
  1.9326  1.1869  1.1869  0.6981  0.6981  0.4392  0.4392  0.3568  0.2256  0.1982
  0.1551  0.1162  0.0952  0.0952  0.0788  0.0867  0.0911

 Free energy of the ion-electron system (eV)
  ---------------------------------------------------
  alpha Z        PSCENC =      1069.12875734
  Ewald energy   TEWEN  =    -21614.71379003
  -Hartree energ DENC   =    -13307.42569340
  -exchange      EXHF   =         0.00000000
  -V(xc)+E(xc)   XCENC  =      1566.86681974
  PAW double counting   =     37740.20043368   -39051.03704392
  entropy T*S    EENTRO =        -0.05150447
  eigenvalues    EBANDS =     -1587.88421888
  atomic energy  EATOM  =     34890.38139807
  Solvation  Ediel_sol  =         0.00000000
  ---------------------------------------------------
  free energy    TOTEN  =      -294.53484189 eV

  energy without entropy =     -294.48333742  energy(sigma->0) =     -294.50908966


--------------------------------------------------------------------------------------------------------




--------------------------------------- Iteration      1(  23)  ---------------------------------------


    POTLOK:  cpu time    0.1376: real time    0.1380
    SETDIJ:  cpu time    0.0208: real time    0.0208
     EDDAV:  cpu time   80.8310: real time   81.0220
    CHARGE:  cpu time    2.5128: real time    2.5187
    MIXING:  cpu time    0.0072: real time    0.0072
    --------------------------------------------
      LOOP:  cpu time   83.5094: real time   83.7067

 eigenvalue-minimisations  : 41088
 total energy-change (2. order) : 0.7648206E-02  (-0.8992492E-01)
 number of electron     395.9999980 magnetization      15.4590756
 augmentation part      130.3683097 magnetization       7.0380633

 Broyden mixing:
  rms(total) = 0.77009E+00    rms(broyden)= 0.76991E+00
  rms(prec ) = 0.10772E+01
  weight for this iteration     100.00

 eigenvalues of (default mixing * dielectric matrix)
  average eigenvalue GAMMA=   0.4799
  2.1167  1.2149  1.2149  0.7407  0.7407  0.4404  0.4404  0.4084  0.2410  0.2068
  0.1611  0.1457  0.1158  0.0788  0.0955  0.0955  0.0864  0.0948

 Free energy of the ion-electron system (eV)
  ---------------------------------------------------
  alpha Z        PSCENC =      1069.12875734
  Ewald energy   TEWEN  =    -21614.71379003
  -Hartree energ DENC   =    -13306.84356998
  -exchange      EXHF   =         0.00000000
  -V(xc)+E(xc)   XCENC  =      1567.10106371
  PAW double counting   =     37795.75444762   -39106.70882302
  entropy T*S    EENTRO =        -0.04629328
  eigenvalues    EBANDS =     -1588.58038410
  atomic energy  EATOM  =     34890.38139807
  Solvation  Ediel_sol  =         0.00000000
  ---------------------------------------------------
  free energy    TOTEN  =      -294.52719369 eV

  energy without entropy =     -294.48090041  energy(sigma->0) =     -294.50404705


--------------------------------------------------------------------------------------------------------




--------------------------------------- Iteration      1(  24)  ---------------------------------------


    POTLOK:  cpu time    0.1298: real time    0.1301
    SETDIJ:  cpu time    0.0180: real time    0.0180
     EDDAV:  cpu time   78.3166: real time   78.5016
    CHARGE:  cpu time    2.4892: real time    2.4951
    MIXING:  cpu time    0.0072: real time    0.0072
    --------------------------------------------
      LOOP:  cpu time   80.9607: real time   81.1520

 eigenvalue-minimisations  : 39456
 total energy-change (2. order) : 0.2344854E-01  (-0.6620409E-01)
 number of electron     395.9999981 magnetization      15.8436437
 augmentation part      130.5863658 magnetization       6.7498543

 Broyden mixing:
  rms(total) = 0.68969E+00    rms(broyden)= 0.68945E+00
  rms(prec ) = 0.95959E+00
  weight for this iteration     100.00

 eigenvalues of (default mixing * dielectric matrix)
  average eigenvalue GAMMA=   0.4781
  2.0320  1.3304  1.3304  0.7631  0.7631  0.4403  0.4403  0.4529  0.2741  0.2247
  0.1945  0.1589  0.1233  0.0788  0.0955  0.0955  0.1059  0.0864  0.0934

 Free energy of the ion-electron system (eV)
  ---------------------------------------------------
  alpha Z        PSCENC =      1069.12875734
  Ewald energy   TEWEN  =    -21614.71379003
  -Hartree energ DENC   =    -13307.33423909
  -exchange      EXHF   =         0.00000000
  -V(xc)+E(xc)   XCENC  =      1567.33737316
  PAW double counting   =     37855.21908908   -39166.31820313
  entropy T*S    EENTRO =        -0.05128257
  eigenvalues    EBANDS =     -1588.15284797
  atomic energy  EATOM  =     34890.38139807
  Solvation  Ediel_sol  =         0.00000000
  ---------------------------------------------------
  free energy    TOTEN  =      -294.50374515 eV

  energy without entropy =     -294.45246258  energy(sigma->0) =     -294.47810386


--------------------------------------------------------------------------------------------------------




--------------------------------------- Iteration      1(  25)  ---------------------------------------


    POTLOK:  cpu time    0.1297: real time    0.1300
    SETDIJ:  cpu time    0.0177: real time    0.0177
     EDDAV:  cpu time   82.5538: real time   82.7572
    CHARGE:  cpu time    2.9430: real time    2.9499
    MIXING:  cpu time    0.0085: real time    0.0085
    --------------------------------------------
      LOOP:  cpu time   85.6526: real time   85.8632

 eigenvalue-minimisations  : 38784
 total energy-change (2. order) : 0.5744760E-01  (-0.5638189E-01)
 number of electron     395.9999981 magnetization      15.9885795
 augmentation part      130.3801656 magnetization       7.5344494

 Broyden mixing:
  rms(total) = 0.50659E+00    rms(broyden)= 0.50639E+00
  rms(prec ) = 0.70946E+00
  weight for this iteration     100.00

 eigenvalues of (default mixing * dielectric matrix)
  average eigenvalue GAMMA=   0.4739
  2.0968  1.2799  1.2799  0.7918  0.7918  0.5503  0.4406  0.4406  0.3370  0.2487
  0.1984  0.1984  0.1533  0.1205  0.0788  0.0955  0.0955  0.1016  0.0863  0.0918

 Free energy of the ion-electron system (eV)
  ---------------------------------------------------
  alpha Z        PSCENC =      1069.12875734
  Ewald energy   TEWEN  =    -21614.71379003
  -Hartree energ DENC   =    -13310.38561781
  -exchange      EXHF   =         0.00000000
  -V(xc)+E(xc)   XCENC  =      1567.52565382
  PAW double counting   =     37852.40190206   -39163.57871675
  entropy T*S    EENTRO =        -0.04972641
  eigenvalues    EBANDS =     -1585.15615782
  atomic energy  EATOM  =     34890.38139807
  Solvation  Ediel_sol  =         0.00000000
  ---------------------------------------------------
  free energy    TOTEN  =      -294.44629754 eV

[...]
  in kB      -17.5058641    -34.0299782    -83.7320730      1.5898292      0.6020333    -16.2765229
  external PRESSURE =     -45.0893051 kB  Pullay stress =       0.0000000 kB


 VOLUME and BASIS-vectors are now :
 -----------------------------------------------------------------------------
  energy-cutoff  :      500.00
  volume of cell :      648.83
      direct lattice vectors                 reciprocal lattice vectors
     8.781013500  0.000000000  0.000000000     0.113882071  0.065749844  0.000000000
    -4.390506750  7.604580760  0.000000000     0.000000000  0.131499688  0.000000000
     0.000000000  0.000000000  9.716479500     0.000000000  0.000000000  0.102917934

  length of vectors
     8.781013500  8.781013498  9.716479500     0.131499688  0.131499688  0.102917934


 FORCES acting on ions
    electron-ion (+dipol)            ewald-force                    non-local-force                 convergence-correction
 -----------------------------------------------------------------------------------------------
   0.539E+02 0.900E+02 0.467E+02   -.559E+02 -.910E+02 -.490E+02   0.109E+01 0.989E+00 0.130E+01   0.561E-02 0.138E-01 -.234E-02
   0.358E+02 0.111E+03 -.589E+02   -.383E+02 -.116E+03 0.584E+02   -.709E+00 0.153E+01 0.274E+01   -.294E-02 0.670E-02 0.251E-01
   0.729E+02 0.148E+03 0.168E+03   -.767E+02 -.150E+03 -.166E+03   0.109E+01 0.182E+01 -.236E+01   -.100E-01 0.280E-02 -.109E-01
   0.123E+03 0.190E+03 -.335E+02   -.126E+03 -.190E+03 0.352E+02   -.350E+00 -.627E+00 -.620E+00   0.940E-02 -.500E-03 0.229E-01
   0.157E+03 -.812E+02 0.170E+03   -.162E+03 0.799E+02 -.176E+03   0.172E+00 -.351E-01 0.170E+00   0.872E-02 -.192E-01 -.212E-01
   0.131E+03 -.163E+03 -.576E+02   -.133E+03 0.167E+03 0.599E+02   0.699E+00 0.140E+00 0.131E+01   0.211E-01 0.112E-01 0.174E-01
   -.478E+02 0.185E+03 -.271E+02   0.476E+02 -.188E+03 0.273E+02   0.719E+00 0.266E+01 -.101E+01   -.157E-01 0.160E-02 0.186E-02
   0.187E+03 0.141E+03 0.504E+02   -.191E+03 -.143E+03 -.489E+02   0.417E+00 -.122E+01 0.262E+00   -.403E-02 -.125E-01 0.191E-01
   0.219E+03 0.117E+03 0.290E+02   -.222E+03 -.118E+03 -.312E+02   0.582E+00 0.142E+01 -.393E+00   -.215E-01 -.921E-02 0.751E-02
   -.117E+03 0.235E+03 -.231E+02   0.119E+03 -.237E+03 0.237E+02   0.966E+00 0.789E+00 -.299E+00   -.220E-01 -.792E-02 0.265E-01
   0.674E+00 -.875E+02 -.128E+02   0.346E+00 0.915E+02 0.126E+02   -.342E+00 -.360E+01 -.201E+01   -.122E-01 -.125E-01 0.467E-02
   0.105E+03 -.796E+02 -.790E+02   -.107E+03 0.770E+02 0.773E+02   0.957E+00 -.243E+00 -.348E+01   -.696E-02 -.107E-02 0.295E-02
   0.585E+02 -.285E+02 0.669E+02   -.547E+02 0.277E+02 -.675E+02   -.352E+01 0.939E-01 -.856E-01   0.657E-02 0.173E-01 -.144E-02
   -.583E+02 0.107E+03 -.187E+03   0.586E+02 -.110E+03 0.190E+03   -.171E+01 -.781E+00 -.283E+01   0.654E-02 -.458E-02 0.144E-01
   -.262E+03 -.291E+01 0.763E+02   0.269E+03 0.653E+01 -.788E+02   -.193E+01 0.120E+00 0.228E+01   0.159E-01 0.500E-02 -.759E-02
   -.819E+02 -.115E+03 0.194E+02   0.892E+02 0.122E+03 -.224E+02   -.825E+00 -.101E+01 -.127E+01   0.632E-02 -.128E-01 0.192E-01
   -.123E+03 -.278E+03 0.915E+02   0.131E+03 0.290E+03 -.100E+03   -.283E+01 -.302E+01 -.938E-01   -.963E-02 -.954E-02 0.655E-02
   -.186E+03 -.173E+03 -.580E+02   0.193E+03 0.180E+03 0.635E+02   -.181E+01 -.846E+00 0.365E+00   -.159E-01 0.214E-01 0.192E-01
   0.407E+01 0.109E+03 -.267E+03   -.301E+00 -.112E+03 0.291E+03   -.246E+01 0.189E+01 -.266E+02   0.103E-01 0.973E-03 -.257E-02
   -.576E+02 0.388E+02 0.263E+03   0.685E+02 -.350E+02 -.285E+03   -.883E+01 -.203E+01 0.220E+02   -.110E-02 -.535E-03 0.154E-01
   0.344E+02 0.179E+03 -.362E+03   -.358E+02 -.186E+03 0.386E+03   0.218E+00 0.634E+01 -.265E+02   -.380E-02 0.109E-02 -.642E-02
   0.618E+02 0.163E+03 0.305E+03   -.607E+02 -.167E+03 -.324E+03   -.176E+01 0.361E+01 0.224E+02   -.118E-01 0.666E-02 -.376E-02
   0.365E+02 0.322E+02 -.317E+03   -.385E+02 -.408E+02 0.348E+03   0.499E+01 0.631E+01 -.283E+02   -.926E-02 0.118E-04 -.479E-03
   0.553E+02 -.506E+02 0.384E+03   -.568E+02 0.645E+02 -.409E+03   -.998E-01 -.137E+02 0.251E+02   -.389E-02 0.855E-04 0.191E-01
   0.128E+03 0.899E+01 -.365E+03   -.136E+03 -.862E+01 0.388E+03   0.778E+01 -.383E+00 -.244E+02   0.202E-02 0.133E-02 -.747E-02
   0.222E+02 0.314E+02 0.208E+03   -.193E+02 -.310E+02 -.222E+03   -.353E+01 -.550E+00 0.161E+02   -.753E-02 -.802E-02 -.134E-01
   0.577E+02 -.845E+02 -.192E+03   -.609E+02 0.898E+02 0.211E+03   0.255E+01 -.968E+00 -.183E+02   -.627E-02 -.836E-02 0.113E-02
   -.287E+02 -.102E+03 0.304E+03   0.364E+02 0.109E+03 -.323E+03   -.552E+01 -.634E+01 0.194E+02   0.123E-02 -.151E-02 0.208E-01
   0.139E+03 -.792E+02 -.306E+03   -.140E+03 0.799E+02 0.319E+03   0.152E+00 -.815E-01 -.151E+02   0.415E-02 -.300E-02 -.816E-02
   0.360E+01 -.120E+03 0.229E+03   0.168E+01 0.125E+03 -.242E+03   -.548E+01 -.511E+01 0.153E+02   -.101E-01 -.889E-02 -.126E-01
   -.494E+02 0.703E+02 -.382E+03   0.522E+02 -.686E+02 0.414E+03   -.254E+01 -.371E+01 -.318E+02   -.211E-01 0.665E-02 0.308E-02
   -.426E+02 0.238E+02 0.388E+03   0.526E+02 -.220E+02 -.415E+03   -.987E+01 -.111E+01 0.280E+02   -.899E-04 -.544E-02 0.177E-01
   0.141E+03 0.574E+02 -.410E+03   -.156E+03 -.620E+02 0.442E+03   0.953E+01 0.168E+01 -.298E+02   -.294E-02 -.714E-02 -.395E-02
   -.718E+02 0.169E+03 0.318E+03   0.734E+02 -.180E+03 -.343E+03   -.101E+01 0.904E+01 0.269E+02   0.506E-02 0.333E-02 -.212E-01
   0.113E+03 -.232E+02 -.271E+03   -.130E+03 0.179E+02 0.296E+03   0.764E+01 0.605E+00 -.201E+02   -.278E-01 -.336E-01 0.116E-01
   -.589E+02 0.110E+03 0.349E+03   0.631E+02 -.124E+03 -.377E+03   -.451E+01 0.718E+01 0.248E+02   -.670E-02 -.154E-02 0.111E-01
   -.769E+02 0.499E+01 -.382E+03   0.836E+02 -.780E+01 0.408E+03   -.392E+01 0.211E+01 -.234E+02   -.129E-01 0.789E-03 -.609E-02
   -.322E+02 -.574E+02 0.399E+03   0.316E+02 0.623E+02 -.424E+03   0.139E+01 -.517E+01 0.264E+02   -.133E-01 -.180E-01 -.941E-02
   0.527E+01 -.154E+03 -.198E+03   -.173E+01 0.165E+03 0.214E+03   -.400E+01 -.912E+01 -.164E+02   -.357E-02 -.316E-02 0.142E-01
   0.859E+02 -.151E+03 0.339E+03   -.101E+03 0.163E+03 -.362E+03   0.978E+01 -.873E+01 0.213E+02   -.632E-02 0.315E-02 0.183E-01
   0.357E+01 -.123E+03 -.375E+03   -.528E+01 0.136E+03 0.402E+03   0.206E+01 -.819E+01 -.256E+02   -.302E-02 -.494E-02 -.127E-01
   0.218E+02 -.928E+02 0.227E+03   -.230E+02 0.918E+02 -.236E+03   0.159E+01 0.134E+01 0.103E+02   -.101E-01 0.317E-02 -.224E-01
   0.457E+02 0.392E+02 -.204E+03   -.518E+02 -.353E+02 0.220E+03   0.646E+01 -.521E+01 -.175E+02   0.518E-02 0.815E-02 0.458E-02
   -.106E+03 -.139E+02 0.313E+03   0.112E+03 0.198E+02 -.339E+03   -.731E+00 -.391E+01 0.244E+02   0.141E-02 -.319E-03 0.177E-01
   -.865E+02 -.566E+02 -.380E+03   0.921E+02 0.657E+02 0.402E+03   -.513E+01 -.890E+01 -.215E+02   0.668E-02 -.210E-02 -.944E-03
   -.212E+02 0.318E+01 0.269E+03   0.221E+02 -.218E+01 -.286E+03   -.795E+00 -.112E+01 0.199E+02   0.726E-02 0.114E-01 -.169E-01
   -.141E+03 -.179E+02 -.248E+03   0.155E+03 0.125E+02 0.270E+03   -.104E+02 0.327E+01 -.201E+02   0.328E-01 -.100E-01 0.126E-01
   -.331E+01 0.937E+02 0.310E+03   0.376E+01 -.110E+03 -.333E+03   -.568E+00 0.125E+02 0.225E+02   0.896E-02 0.407E-02 0.148E-01
   -.690E+02 -.781E+02 -.362E+03   0.710E+02 0.818E+02 0.384E+03   -.977E+00 -.495E+01 -.222E+02   0.729E-02 0.341E-02 0.530E-03
   -.187E+02 0.482E+02 0.292E+03   0.202E+02 -.516E+02 -.308E+03   -.102E+01 0.364E+01 0.180E+02   0.110E-01 0.409E-02 -.131E-01
   -.778E+02 -.704E+02 -.213E+03   0.822E+02 0.700E+02 0.231E+03   -.347E+01 0.102E+01 -.186E+02   0.584E-02 0.163E-01 0.186E-01
   -.394E+02 -.414E+02 0.241E+03   0.391E+02 0.383E+02 -.258E+03   0.942E+00 0.341E+01 0.179E+02   0.405E-02 0.503E-02 0.164E-01
   -.128E+03 -.560E+02 -.326E+03   0.135E+03 0.555E+02 0.343E+03   -.672E+01 0.158E+01 -.182E+02   -.323E-02 0.708E-02 -.602E-02
   -.769E+02 -.982E+02 0.277E+03   0.801E+02 0.100E+03 -.291E+03   -.328E+01 -.219E+01 0.157E+02   0.184E-01 0.992E-02 -.235E-01
 -----------------------------------------------------------------------------------------------
   0.390E+02 0.278E+02 0.339E+02   -.853E-13 0.327E-12 -.171E-12   -.389E+02 -.278E+02 -.341E+02   -.740E-01 -.300E-01 0.170E+00
 
 
 POSITION                                       TOTAL-FORCE (eV/Angst)
 -----------------------------------------------------------------------------------
     -4.23920      7.55611      0.01916        -0.869517     -0.051863     -1.019983
      4.36837      7.53255      4.37063        -3.145754     -3.058531      2.263970
     -1.19566      2.41709      0.07296        -2.748520     -0.253164     -0.852937
     -1.26673      2.44261      4.73179        -3.962672     -1.327688      1.058339
     -2.75524      4.78960      9.69842        -4.453258     -1.338020     -6.559518
      5.73352      4.63092      4.51891        -1.625559      4.902633      3.591171
      2.86599      0.03535      0.26913         0.453199     -0.532889     -0.812366
      3.10894      0.00388      4.55710        -3.578011     -3.410834      1.744809
      1.62393      2.33606      0.01753        -3.126820      0.121320     -2.606142
      1.21504      2.43446      4.67855         3.068931     -1.733010      0.329448
     -0.08829      4.65083      0.38521         0.666357      0.332016     -2.163037
     -0.19591      5.03035      5.08812        -0.785422     -2.798416     -5.235529
      1.47454      7.58428      9.71535         0.272963     -0.700165     -0.702253
      1.37006      7.59003      4.89170        -1.441106     -4.000406      0.633632
      4.02150      2.24196      9.51440         4.376997      3.753540     -0.150129
      4.14414      2.27263      4.73591         6.504547      5.586056     -4.193484
      2.87702      4.68017      0.06346         5.812751      8.345099     -8.726132
      2.60781      4.75150      4.55034         5.194608      5.927387      5.903518
      0.04197      1.80273      1.17870         1.321707     -1.066137     -1.781777
      1.32342      0.61730      3.65292         2.131015      1.740785      0.304660
      0.16528      1.60191      5.94310        -1.221219     -0.413033     -2.802404
      1.57524      1.09557      8.27430        -0.682919     -0.741768      2.944834
     -1.67386      4.08567      0.95620         3.066522     -2.232778      2.270274
     -0.00693      3.28276      3.78894        -1.608615      0.157873     -0.688702
     -1.49459      3.91084      5.79870        -0.407628     -0.006768     -1.060486
     -0.08974      3.53480      8.13596        -0.652648     -0.140873      2.452910
     -2.80008      6.29837      0.68525        -0.617567      4.385191      0.694939
     -1.78049      5.53314      3.78001         2.258511      0.993986      0.272530
     -2.47385      6.25764      5.73723        -0.888048      0.683874     -1.716976
     -1.59555      5.38375      8.22033        -0.209436     -0.547943      1.958605
      2.91304      1.81449      1.11662         0.251255     -1.942497      0.476348
      4.40490      0.69851      3.59292         0.136987      0.636299      1.222293
      3.10304      1.51079      5.63654        -5.291278     -2.927327      2.370202
      4.18850      0.88199      8.51113         0.585918     -2.276817      1.458359
      1.65192      4.08192      0.65924        -9.358878     -4.793645      5.520412
      2.72834      3.36714      3.78888        -0.304693     -6.996307     -3.245428
      1.14482      4.03365      5.51910         2.715525     -0.698453      2.608572
      2.62457      3.17954      8.37742         0.812678     -0.261128      1.983790
      0.09380      6.20819      1.06082        -0.469683      2.207526     -0.705589
      1.39768      5.55056      3.86694        -4.905119      3.446965     -1.799368
     -0.00591      6.48582      5.79223         0.341176      4.626958      0.886531
      1.34921      5.66333      8.34165         0.420687      0.355364      1.346685
      6.02741      1.75659      1.09367         0.417824     -1.294057     -2.177026
      6.80775      0.64221      3.83784         4.717059      1.933366     -1.795262
      5.63243      1.59958      5.65847         0.518624      0.156726      0.383999
      7.30755      0.48734      8.40088         0.087871     -0.109822      2.686067
      4.27525      4.11811      0.68919         3.265405     -2.125736      1.330802
      5.74425      3.18290      3.76091        -0.107102     -3.537326     -0.935032
      4.08963      4.12725      5.50978         0.966438     -1.248371     -0.550972
      5.71901      3.11937      8.61242         0.464756      0.239686      1.923367
      2.60037      6.43919      0.90234         0.991119      0.666800     -0.926808
      4.12930      5.75154      3.45404         0.705899      0.273649      1.809490
      2.84697      6.42473      5.59835         0.077450      1.058276     -1.232188
      3.97890      5.57261      8.33991        -0.143306      0.034394      2.008968
 -----------------------------------------------------------------------------------
    total drift:                               -0.020204      0.011090     -0.003087


--------------------------------------------------------------------------------------------------------



  FREE ENERGIE OF THE ION-ELECTRON SYSTEM (eV)
  ---------------------------------------------------
  free  energy   TOTEN  =      -294.4337327663 eV

  energy  without entropy=     -294.3869764410  energy(sigma->0) =     -294.41035460
 


--------------------------------------------------------------------------------------------------------


    POTLOK:  cpu time    0.1487: real time    0.1491


--------------------------------------------------------------------------------------------------------


     LOOP+:  cpu time 4577.2796: real time 4589.5208
    4ORBIT:  cpu time    0.0000: real time    0.0000

volume of typ            1:    17.7 %

volume of typ            2:     9.0 %
 
total charge     
 
# of ion       s       p       d       tot
------------------------------------------
    1        0.184   0.153   7.829   8.166
    2        0.249   0.253   7.834   8.335
    3        0.244   0.266   7.837   8.346
    4        0.254   0.289   7.842   8.384
    5        0.321   0.418   7.854   8.593
    6        0.301   0.380   7.828   8.509
    7        0.215   0.198   7.848   8.262
    8        0.253   0.283   7.860   8.396
    9        0.283   0.360   7.861   8.504
   10        0.286   0.358   7.856   8.501
   11        0.284   0.324   7.866   8.474
   12        0.319   0.405   7.846   8.570
   13        0.220   0.216   7.801   8.236
   14        0.302   0.382   7.842   8.526
   15        0.285   0.351   7.848   8.485
   16        0.312   0.405   7.860   8.577
   17        0.369   0.519   7.899   8.787
   18        0.359   0.531   7.863   8.753
   19        1.289   2.675   0.007   3.971
   20        1.283   2.708   0.008   4.000
   21        1.301   2.629   0.005   3.936
   22        1.313   2.579   0.004   3.896
   23        1.289   2.759   0.015   4.064
   24        1.295   2.710   0.010   4.015
   25        1.301   2.662   0.007   3.970
   26        1.322   2.526   0.002   3.851
   27        1.269   2.765   0.010   4.044
   28        1.294   2.673   0.007   3.973
   29        1.312   2.575   0.003   3.889
   30        1.319   2.544   0.003   3.866
   31        1.286   2.724   0.011   4.022
   32        1.294   2.690   0.008   3.992
   33        1.295   2.737   0.014   4.046
   34        1.299   2.658   0.008   3.964
   35        1.282   2.837   0.020   4.139
   36        1.286   2.765   0.012   4.063
   37        1.289   2.744   0.011   4.044
   38        1.311   2.622   0.006   3.939
   39        1.291   2.670   0.006   3.967
   40        1.299   2.710   0.011   4.019
   41        1.290   2.722   0.011   4.023
   42        1.322   2.526   0.001   3.849
   43        1.304   2.600   0.003   3.907
   44        1.294   2.706   0.010   4.009
   45        1.294   2.679   0.007   3.980
   46        1.306   2.580   0.003   3.889
   47        1.287   2.729   0.010   4.026
   48        1.291   2.708   0.010   4.009
   49        1.292   2.678   0.006   3.975
   50        1.303   2.603   0.003   3.909
   51        1.294   2.649   0.005   3.948
   52        1.301   2.604   0.003   3.908
   53        1.297   2.632   0.004   3.933
   54        1.314   2.557   0.002   3.873
--------------------------------------------------
tot          51.75  102.03  141.54  295.32
 
magnetization (x)
 
# of ion       s       p       d       tot
------------------------------------------
    1       -0.007  -0.001   1.515   1.508
    2        0.003   0.002   0.625   0.630
    3       -0.006  -0.003   0.716   0.706
    4       -0.000  -0.001  -0.079  -0.079
    5       -0.005  -0.005   0.139   0.130
    6       -0.002  -0.007   0.056   0.047
    7       -0.001   0.007   1.439   1.446
    8       -0.003  -0.007  -0.193  -0.203
    9       -0.004  -0.004   0.171   0.163
   10        0.000  -0.000  -0.008  -0.008
   11       -0.000   0.002   0.838   0.839
   12       -0.001  -0.003   0.016   0.013
   13       -0.009   0.001   0.878   0.869
   14       -0.001  -0.001   0.012   0.010
   15        0.002   0.001   0.462   0.465
   16        0.000  -0.001  -0.003  -0.003
   17       -0.004  -0.012   0.168   0.152
   18       -0.001  -0.003   0.019   0.015
   19        0.005   0.210  -0.000   0.215
   20        0.001   0.095   0.000   0.096
   21        0.000  -0.024   0.000  -0.023
   22        0.010   0.543  -0.000   0.554
   23        0.006   0.138   0.000   0.145
   24       -0.000  -0.016  -0.000  -0.017
   25       -0.002  -0.035   0.000  -0.037
   26        0.016   0.818   0.000   0.834
   27        0.010   0.255   0.000   0.265
   28        0.006   0.289  -0.000   0.295
   29        0.011   0.611  -0.000   0.622
   30        0.015   0.791   0.000   0.806
   31        0.004   0.169  -0.000   0.173
   32       -0.001  -0.058   0.000  -0.058
   33       -0.000  -0.012  -0.000  -0.012
   34        0.006   0.278  -0.000   0.284
   35        0.005   0.093  -0.000   0.098
   36       -0.000   0.005  -0.000   0.005
   37       -0.002  -0.036   0.000  -0.037
   38        0.002   0.071   0.000   0.074
   39        0.010   0.358   0.000   0.368
   40        0.001   0.063  -0.000   0.065
   41        0.000   0.042  -0.000   0.043
   42        0.018   0.980   0.000   0.998
   43        0.010   0.425   0.000   0.435
   44        0.004   0.174  -0.000   0.178
   45       -0.000  -0.026  -0.000  -0.026
   46        0.014   0.693  -0.000   0.707
   47        0.002   0.044   0.000   0.046
   48        0.000   0.027  -0.000   0.028
   49        0.001   0.027  -0.000   0.027
   50        0.005   0.262  -0.000   0.267
   51        0.008   0.354  -0.000   0.362
   52        0.003   0.122  -0.000   0.124
   53        0.002   0.113  -0.000   0.114
   54        0.014   0.726  -0.000   0.740
--------------------------------------------------
tot           0.15    8.54    6.77   15.45
 

 total amount of memory used by VASP MPI-rank0   344410. kBytes
=======================================================================

   base      :      30000. kBytes
   nonlr-proj:      28711. kBytes
   fftplans  :       6224. kBytes
   grid      :      35651. kBytes
   one-center:       1679. kBytes
   wavefun   :     242145. kBytes
 
  
  
 General timing and accounting informations for this job:
 ========================================================
  
                  Total CPU time used (sec):     4625.174
                            User time (sec):     4616.818
                          System time (sec):        8.356
                         Elapsed time (sec):     4641.599
  
                   Maximum memory used (kb):      431848.
                   Average memory used (kb):           0.
  
                          Minor page faults:        44716
                          Major page faults:          102
                 Voluntary context switches:         1377
