 vasp.5.4.4.18Apr17-6-g9f103f2a35 (build May 12 2020 04:58:55) complex          
  
 MD_VERSION_INFO: Compiled 2020-05-12T11:58:55-UTC in devlin.sd.materialsdesign.
 com:/home/medea2/data/build/wwolf/vasp-gpu5.4.4/13047/x86_64/src/src/build/std 
 from svn 13047
 
 This VASP executable licensed from Materials Design, Inc.
 
 executed on                        Lin64 date 2023.03.24  21:50:56
 running on   16 total cores
 distrk:  each k-point on   16 cores,    1 groups
 distr:  one band on NCORES_PER_BAND=   1 cores,   16 groups


--------------------------------------------------------------------------------------------------------


 INCAR:
 POTCAR:    PAW_PBE Ni 02Aug2007                  
 POTCAR:    PAW_PBE O 08Apr2002                   

 ----------------------------------------------------------------------------- 
|                                                                             |
|           W    W    AA    RRRRR   N    N  II  N    N   GGGG   !!!           |
|           W    W   A  A   R    R  NN   N  II  NN   N  G    G  !!!           |
|           W    W  A    A  R    R  N N  N  II  N N  N  G       !!!           |
|           W WW W  AAAAAA  RRRRR   N  N N  II  N  N N  G  GGG   !            |
|           WW  WW  A    A  R   R   N   NN  II  N   NN  G    G                |
|           W    W  A    A  R    R  N    N  II  N    N   GGGG   !!!           |
|                                                                             |
|      For optimal performance we recommend to set                            |
|        NCORE= 4 - approx SQRT( number of cores)                             |
|      NCORE specifies how many cores store one orbital (NPAR=cpu/NCORE).     |
|      This setting can  greatly improve the performance of VASP for DFT.     |
|      The default,   NCORE=1            might be grossly inefficient         |
|      on modern multi-core architectures or massively parallel machines.     |
|      Do your own testing !!!!                                               |
|      Unfortunately you need to use the default for GW and RPA calculations. |
|      (for HF NCORE is supported but not extensively tested yet)             |
|                                                                             |
 ----------------------------------------------------------------------------- 

 POTCAR:    PAW_PBE Ni 02Aug2007                  
  local pseudopotential read in
  partial core-charges read in
  partial kinetic energy density read in
  atomic valenz-charges read in
  non local Contribution for L=           2  read in
    real space projection operators read in
  non local Contribution for L=           2  read in
    real space projection operators read in
  non local Contribution for L=           0  read in
    real space projection operators read in
  non local Contribution for L=           0  read in
    real space projection operators read in
  non local Contribution for L=           1  read in
    real space projection operators read in
  non local Contribution for L=           1  read in
    real space projection operators read in
    PAW grid and wavefunctions read in
 
   number of l-projection  operators is LMAX  =           6
   number of lm-projection operators is LMMAX =          18
 
 POTCAR:    PAW_PBE O 08Apr2002                   
  local pseudopotential read in
  partial core-charges read in
  partial kinetic energy density read in
  kinetic energy density of atom read in
  atomic valenz-charges read in
  non local Contribution for L=           0  read in
    real space projection operators read in
  non local Contribution for L=           0  read in
    real space projection operators read in
  non local Contribution for L=           1  read in
    real space projection operators read in
  non local Contribution for L=           1  read in
    real space projection operators read in
    PAW grid and wavefunctions read in
 
   number of l-projection  operators is LMAX  =           4
   number of lm-projection operators is LMMAX =           8
 
 Optimization of the real space projectors (new method)

 maximal supplied QI-value         = 16.25
 optimisation between [QCUT,QGAM] = [ 11.38, 22.75] = [ 36.24,144.96] Ry 
 Optimized for a Real-space Cutoff    1.47 Angstroem

   l    n(q)    QCUT    max X(q) W(low)/X(q) W(high)/X(q)  e(spline) 
   2      9    11.376    60.317    0.17E-03    0.16E-04    0.16E-06
   2      9    11.376    55.921    0.17E-03    0.16E-04    0.17E-06
   0     10    11.376    51.690    0.45E-04    0.60E-04    0.21E-06
   0     10    11.376    30.015    0.37E-04    0.55E-04    0.19E-06
   1     10    11.376    18.849    0.83E-04    0.11E-03    0.92E-07
   1     10    11.376    14.624    0.69E-04    0.92E-04    0.82E-07
 Optimization of the real space projectors (new method)

 maximal supplied QI-value         = 24.76
 optimisation between [QCUT,QGAM] = [ 11.39, 22.77] = [ 36.31,145.25] Ry 
 Optimized for a Real-space Cutoff    1.10 Angstroem

   l    n(q)    QCUT    max X(q) W(low)/X(q) W(high)/X(q)  e(spline) 
   0      7    11.387    20.381    0.22E-03    0.48E-03    0.18E-06
   0      7    11.387    15.268    0.22E-03    0.52E-03    0.19E-06
   1      7    11.387     5.964    0.22E-03    0.73E-03    0.24E-06
   1      7    11.387     5.382    0.19E-03    0.60E-03    0.21E-06

 ----------------------------------------------------------------------------- 
|                                                                             |
|  ADVICE TO THIS USER RUNNING 'VASP/VAMP'   (HEAR YOUR MASTER'S VOICE ...):  |
|                                                                             |
|      You enforced a specific xc-type in the INCAR file,                     |
|      a different type was found on the POTCAR file                          |
|          I HOPE YOU KNOW, WHAT YOU ARE  DOING                               |
|                                                                             |
 ----------------------------------------------------------------------------- 

  PAW_PBE Ni 02Aug2007                  :
 energy of atom  1       EATOM=-1077.6739
 kinetic energy error for atom=    0.0030 (will be added to EATOM!!)
  PAW_PBE O 08Apr2002                   :
 energy of atom  2       EATOM= -432.3788
 kinetic energy error for atom=    0.0224 (will be added to EATOM!!)
 
 
 POSCAR: NiO2_C2_m_scale_1_050_disp_0_10_round_2 
  positions in direct lattice
  No initial velocities read in
 exchange correlation table for  LEXCH =       14
   RHO(1)=    0.500       N(1)  =     2000
   RHO(2)=  100.500       N(2)  =     4000
 


--------------------------------------------------------------------------------------------------------


 ion  position               nearest neighbor table
   1  0.004  0.009  0.004-  19 1.97  22 2.07  27 2.26  46 2.27  51 2.37   9 2.56   7 2.62   3 2.72
                             5 3.08
   2  0.994  0.007  0.489-  21 1.75  20 1.92  53 2.11  44 2.16  52 2.30  29 2.35  10 2.67   4 2.75
                             8 2.87
   3  0.006  0.320  0.997-  23 1.74  19 1.76  26 1.83  46 2.06  43 2.18   9 2.66   1 2.72  11 2.86
                             5 2.98  13 3.01
   4  0.978  0.312  0.489-  25 1.85  21 1.96  45 1.98  24 1.98  44 2.07  48 2.09  14 2.73   2 2.75
                             6 2.85  10 2.86  12 2.89  16 3.08
   5  0.003  0.658  0.001-  27 1.74  23 1.86  30 2.14  47 2.16  54 2.40  50 2.42   7 2.97   3 2.98
                            11 3.07   1 3.08
   6  0.002  0.648  0.480-  29 1.61  28 1.69  48 1.90  25 1.95  49 2.10  52 2.18  12 2.64   4 2.85
                             8 2.89
   7  0.308  0.021  0.997-  31 1.86  22 1.87  27 1.92  34 2.29  39 2.44   9 2.49  15 2.62   1 2.62
                             5 2.97  13 2.99
   8  0.313  0.992  0.487-  29 1.75  33 1.79  32 1.85  20 1.85  41 1.97  28 2.29  16 2.70  10 2.82
                            14 2.84   2 2.87   6 2.89  12 2.99
   9  0.297  0.298  0.010-  35 1.77  19 1.78  22 1.86  31 2.06  26 2.21  38 2.45   7 2.49   1 2.56
                             3 2.66  15 2.77  11 2.80  17 2.90
  10  0.301  0.307  0.485-  21 1.67  33 1.82  20 1.83  24 1.89  37 2.00  36 2.11   2 2.67   8 2.82
                            16 2.85   4 2.86  18 2.86  12 2.97
  11  0.341  0.636  0.992-  39 1.87  35 1.94  42 2.01  26 2.05  23 2.05  30 2.27  17 2.54   9 2.80
                             3 2.86  13 3.01   5 3.07
  12  0.302  0.646  0.487-  28 1.60  25 1.74  24 1.88  41 1.91  40 1.95  37 2.02   6 2.64   4 2.89
                            18 2.90  10 2.97   8 2.99
  13  0.641  0.007  0.017-  43 1.85  39 1.90  51 2.10  46 2.13  34 2.28  15 2.74   7 2.99  11 3.01
                             3 3.01
  14  0.650  0.024  0.467-  44 1.71  45 1.77  32 1.80  41 1.94  40 2.24  53 2.27  16 2.56   4 2.73
                             8 2.84
  15  0.617  0.307  0.014-  31 1.62  43 1.82  47 1.89  50 2.21  38 2.22  34 2.24   7 2.62  13 2.74
                             9 2.77  17 2.79
  16  0.621  0.298  0.494-  33 1.67  49 1.74  36 1.75  32 1.84  45 1.94  48 2.15  14 2.56   8 2.70
                            10 2.85  18 2.93   4 3.08
  17  0.627  0.629  0.004-  35 1.66  51 1.68  47 1.92  42 2.13  54 2.16  38 2.23  11 2.54  15 2.79
                             9 2.90
  18  0.626  0.634  0.481-  52 1.72  37 1.72  40 1.82  53 1.86  36 1.94  49 2.00  10 2.86  12 2.90
                            16 2.93
  19  0.101  0.232  0.106-   3 1.76   9 1.78   1 1.97
  20  0.212  0.100  0.390-  10 1.83   8 1.85   2 1.92
  21  0.111  0.211  0.572-  10 1.67   2 1.75   4 1.96
  22  0.222  0.125  0.876-   9 1.86   7 1.87   1 2.07
  23  0.094  0.526  0.075-   3 1.74   5 1.86  11 2.05
  24  0.208  0.431  0.393-  12 1.88  10 1.89   4 1.98
  25  0.105  0.527  0.577-  12 1.74   4 1.85   6 1.95
  26  0.187  0.420  0.873-   3 1.83  11 2.05   9 2.21
  27  0.110  0.847  0.100-   5 1.74   7 1.92   1 2.26
  28  0.195  0.714  0.397-  12 1.60   6 1.69   8 2.29
  29  0.113  0.832  0.559-   6 1.61   8 1.75   2 2.35
  30  0.208  0.742  0.851-   5 2.14  11 2.27
  31  0.445  0.211  0.112-  15 1.62   7 1.86   9 2.06
  32  0.517  0.100  0.384-  14 1.80  16 1.84   8 1.85
  33  0.419  0.208  0.562-  16 1.67   8 1.79  10 1.82
  34  0.536  0.108  0.846-  15 2.24  13 2.28   7 2.29
  35  0.436  0.506  0.085-  17 1.66   9 1.77  11 1.94
  36  0.549  0.412  0.388-  16 1.75  18 1.94  10 2.11
  37  0.436  0.542  0.577-  18 1.72  10 2.00  12 2.02
  38  0.539  0.422  0.843-  15 2.22  17 2.23   9 2.45
  39  0.421  0.841  0.096-  11 1.87  13 1.90   7 2.44
  40  0.527  0.746  0.392-  18 1.82  12 1.95  14 2.24
  41  0.435  0.876  0.567-  12 1.91  14 1.94   8 1.97
  42  0.533  0.734  0.850-  11 2.01  17 2.13
  43  0.752  0.229  0.096-  15 1.82  13 1.85   3 2.18
  44  0.837  0.088  0.372-  14 1.71   4 2.07   2 2.16
  45  0.748  0.199  0.586-  14 1.77  16 1.94   4 1.98
  46  0.853  0.105  0.875-   3 2.06  13 2.13   1 2.27
  47  0.748  0.529  0.100-  15 1.89  17 1.92   5 2.16
  48  0.863  0.435  0.381-   6 1.90   4 2.09  16 2.15
  49  0.744  0.510  0.559-  16 1.74  18 2.00   6 2.10
  50  0.822  0.409  0.854-  15 2.21   5 2.42
  51  0.712  0.825  0.084-  17 1.68  13 2.10   1 2.37
  52  0.824  0.730  0.397-  18 1.72   6 2.18   2 2.30
  53  0.739  0.850  0.571-  18 1.86   2 2.11  14 2.27
  54  0.827  0.720  0.847-  17 2.16   5 2.40
 
  LATTYP: Found a hexagonal cell.
 ALAT       =     8.7810134983
 C/A-ratio  =     1.1065328053
  
  Lattice vectors:
  
 A1 = (   8.7810135000,   0.0000000000,   0.0000000000)
 A2 = (  -4.3905067500,   7.6045807600,   0.0000000000)
 A3 = (   0.0000000000,   0.0000000000,   9.7164795000)


Analysis of symmetry for initial positions (statically):
=====================================================================
 Subroutine PRICEL returns:
 Original cell was already a primitive cell.
 

 Routine SETGRP: Setting up the symmetry group for a 
 hexagonal supercell.


 Subroutine GETGRP returns: Found  1 space group operations
 (whereof  1 operations were pure point group operations)
 out of a pool of 24 trial point group operations.


The static configuration has the point symmetry C_1 .


Analysis of symmetry for dynamics (positions and initial velocities):
=====================================================================
 Subroutine PRICEL returns:
 Original cell was already a primitive cell.
 

 Routine SETGRP: Setting up the symmetry group for a 
 hexagonal supercell.


 Subroutine GETGRP returns: Found  1 space group operations
 (whereof  1 operations were pure point group operations)
 out of a pool of 24 trial point group operations.


The dynamic configuration has the point symmetry C_1 .


Analysis of structural, dynamic, and magnetic symmetry:
=====================================================================
 Subroutine PRICEL returns:
 Original cell was already a primitive cell.
 

 Routine SETGRP: Setting up the symmetry group for a 
 hexagonal supercell.


 Subroutine GETGRP returns: Found  1 space group operations
 (whereof  1 operations were pure point group operations)
 out of a pool of 24 trial point group operations.


The magnetic configuration has the point symmetry C_1 .


 Subroutine INISYM returns: Found  1 space group operations
 (whereof  1 operations are pure point group operations),
 and found     1 'primitive' translations

 
 
 KPOINTS: Automatic mesh                          

Automatic generation of k-mesh.
Space group operators:
 irot       det(A)        alpha          n_x          n_y          n_z        tau_x        tau_y        tau_z
    1     1.000000     0.000000     1.000000     0.000000     0.000000     0.000000     0.000000     0.000000
 
 Subroutine IBZKPT returns following result:
 ===========================================
 
 Found     26 irreducible k-points:
 
 Following reciprocal coordinates:
            Coordinates               Weight
  0.000000  0.000000  0.000000      1.000000
  0.250000  0.000000  0.000000      2.000000
  0.500000  0.000000  0.000000      1.000000
  0.000000  0.250000  0.000000      2.000000
  0.250000  0.250000  0.000000      2.000000
  0.500000  0.250000  0.000000      2.000000
 -0.250000  0.250000  0.000000      2.000000
  0.000000  0.500000  0.000000      1.000000
  0.250000  0.500000  0.000000      2.000000
  0.500000  0.500000  0.000000      1.000000
  0.000000  0.000000  0.333333      2.000000
  0.250000  0.000000  0.333333      2.000000
  0.500000  0.000000  0.333333      2.000000
 -0.250000  0.000000  0.333333      2.000000
  0.000000  0.250000  0.333333      2.000000
  0.250000  0.250000  0.333333      2.000000
  0.500000  0.250000  0.333333      2.000000
 -0.250000  0.250000  0.333333      2.000000
  0.000000  0.500000  0.333333      2.000000
  0.250000  0.500000  0.333333      2.000000
  0.500000  0.500000  0.333333      2.000000
 -0.250000  0.500000  0.333333      2.000000
  0.000000 -0.250000  0.333333      2.000000
  0.250000 -0.250000  0.333333      2.000000
  0.500000 -0.250000  0.333333      2.000000
 -0.250000 -0.250000  0.333333      2.000000
 
 Following cartesian coordinates:
            Coordinates               Weight
  0.000000  0.000000  0.000000      1.000000
  0.028471  0.016437  0.000000      2.000000
  0.056941  0.032875  0.000000      1.000000
  0.000000  0.032875  0.000000      2.000000
  0.028471  0.049312  0.000000      2.000000
  0.056941  0.065750  0.000000      2.000000
 -0.028471  0.016437  0.000000      2.000000
  0.000000  0.065750  0.000000      1.000000
  0.028471  0.082187  0.000000      2.000000
  0.056941  0.098625  0.000000      1.000000
  0.000000  0.000000  0.034306      2.000000
  0.028471  0.016437  0.034306      2.000000
  0.056941  0.032875  0.034306      2.000000
 -0.028471 -0.016437  0.034306      2.000000
  0.000000  0.032875  0.034306      2.000000
  0.028471  0.049312  0.034306      2.000000
  0.056941  0.065750  0.034306      2.000000
 -0.028471  0.016437  0.034306      2.000000
  0.000000  0.065750  0.034306      2.000000
  0.028471  0.082187  0.034306      2.000000
  0.056941  0.098625  0.034306      2.000000
 -0.028471  0.049312  0.034306      2.000000
  0.000000 -0.032875  0.034306      2.000000
  0.028471 -0.016437  0.034306      2.000000
  0.056941  0.000000  0.034306      2.000000
 -0.028471 -0.049312  0.034306      2.000000
 


--------------------------------------------------------------------------------------------------------




 Dimension of arrays:
   k-points           NKPTS =     26   k-points in BZ     NKDIM =     26   number of bands    NBANDS=    272
   number of dos      NEDOS =    301   number of ions     NIONS =     54
   non local maximal  LDIM  =      6   non local SUM 2l+1 LMDIM =     18
   total plane-waves  NPLWV = 294912
   max r-space proj   IRMAX =   6152   max aug-charges    IRDMAX=  14931
   dimension x,y,z NGX =    64 NGY =   64 NGZ =   72
   dimension x,y,z NGXF=   128 NGYF=  128 NGZF=  144
   support grid    NGXF=   128 NGYF=  128 NGZF=  144
   ions per type =              18  36
   NGX,Y,Z   is equivalent  to a cutoff of  12.12, 12.12, 12.32 a.u.
   NGXF,Y,Z  is equivalent  to a cutoff of  24.23, 24.23, 24.64 a.u.

 SYSTEM =  unknown system                          
 POSCAR =  NiO2_C2_m_scale_1_050_disp_0_10_round_2 

 Startparameter for this run:
   NWRITE =      1    write-flag & timer
   PREC   = accura    normal or accurate (medium, high low for compatibility)
   ISTART =      0    job   : 0-new  1-cont  2-samecut
   ICHARG =      2    charge: 1-file 2-atom 10-const
   ISPIN  =      2    spin polarized calculation?
   LNONCOLLINEAR =      F non collinear calculations
   LSORBIT =      F    spin-orbit coupling
   INIWAV =      1    electr: 0-lowe 1-rand  2-diag
   LASPH  =      F    aspherical Exc in radial PAW
   METAGGA=      F    non-selfconsistent MetaGGA calc.

 Electronic Relaxation 1
   ENCUT  =  500.0 eV  36.75 Ry    6.06 a.u.  16.01 16.01 17.72*2*pi/ulx,y,z
   ENINI  =  500.0     initial cutoff
   ENAUG  =  605.4 eV  augmentation charge cutoff
   NELM   =     80;   NELMIN=  2; NELMDL= -5     # of ELM steps 
   EDIFF  = 0.1E-04   stopping-criterion for ELM
   LREAL  =      T    real-space projection
   NLSPLINE    = F    spline interpolate recip. space projectors
   LCOMPAT=      F    compatible to vasp.4.4
   GGA_COMPAT  = T    GGA compatible to vasp.4.4-vasp.4.6
   LMAXPAW     = -100 max onsite density
   LMAXMIX     =    2 max onsite mixed and CHGCAR
   VOSKOWN=      1    Vosko Wilk Nusair interpolation
   ROPT   =   -0.00025  -0.00025
 Ionic relaxation
   EDIFFG = 0.1E-03   stopping-criterion for IOM
   NSW    =      0    number of steps for IOM
   NBLOCK =      1;   KBLOCK =      1    inner block; outer block 
   IBRION =     -1    ionic relax: 0-MD 1-quasi-New 2-CG
   NFREE  =      0    steps in history (QN), initial steepest desc. (CG)
   ISIF   =      2    stress and relaxation
   IWAVPR =     10    prediction:  0-non 1-charg 2-wave 3-comb
   ISYM   =      2    0-nonsym 1-usesym 2-fastsym
   LCORR  =      T    Harris-Foulkes like correction to forces

   POTIM  = 0.5000    time-step for ionic-motion
   TEIN   =    0.0    initial temperature
   TEBEG  =    0.0;   TEEND  =   0.0 temperature during run
   SMASS  =  -3.00    Nose mass-parameter (am)
   estimated Nose-frequenzy (Omega)   =  0.10E-29 period in steps =****** mass=  -0.176E-26a.u.
   SCALEE = 1.0000    scale energy and forces
   NPACO  =    256;   APACO  = 16.0  distance and # of slots for P.C.
   PSTRESS=    0.0 pullay stress

  Mass of Ions in am
   POMASS =  58.69 16.00
  Ionic Valenz
   ZVAL   =  10.00  6.00
  Atomic Wigner-Seitz radii
   RWIGS  =   1.15  0.73
  virtual crystal weights 
   VCA    =   1.00  1.00
   NELECT =     396.0000    total number of electrons
   NUPDOWN=      -1.0000    fix difference up-down

 DOS related values:
   EMIN   =  10.00;   EMAX   =-10.00  energy-range for DOS
   EFERMI =   0.00
   ISMEAR =     0;   SIGMA  =   0.05  broadening in eV -4-tet -1-fermi 0-gaus

 Electronic relaxation 2 (details)
   IALGO  =     38    algorithm
   LDIAG  =      T    sub-space diagonalisation (order eigenvalues)
   LSUBROT=      F    optimize rotation matrix (better conditioning)
   TURBO    =      0    0=normal 1=particle mesh
   IRESTART =      0    0=no restart 2=restart with 2 vectors
   NREBOOT  =      0    no. of reboots
   NMIN     =      0    reboot dimension
   EREF     =   0.00    reference energy to select bands
   IMIX   =      4    mixing-type and parameters
     AMIX     =   0.40;   BMIX     =  1.00
     AMIX_MAG =   1.60;   BMIX_MAG =  1.00
     AMIN     =   0.10
     WC   =   100.;   INIMIX=   1;  MIXPRE=   1;  MAXMIX= -45

 Intra band minimization:
   WEIMIN = 0.0000     energy-eigenvalue tresh-hold
   EBREAK =  0.92E-08  absolut break condition
   DEPER  =   0.30     relativ break condition  

   TIME   =   0.40     timestep for ELM

  volume/ion in A,a.u.               =      12.02        81.08
  Fermi-wavevector in a.u.,A,eV,Ry     =   1.388663  2.624193 26.237279  1.928386
  Thomas-Fermi vector in A             =   2.512768
 
 Write flags
   LWAVE        =      F    write WAVECAR
   LDOWNSAMPLE  =      F    k-point downsampling of WAVECAR
   LCHARG       =      T    write CHGCAR
   LVTOT        =      F    write LOCPOT, total local potential
   LVHAR        =      F    write LOCPOT, Hartree potential only
   LELF         =      F    write electronic localiz. function (ELF)
   LORBIT       =      0    0 simple, 1 ext, 2 COOP (PROOUT), +10 PAW based schemes


 Dipole corrections
   LMONO  =      F    monopole corrections only (constant potential shift)
   LDIPOL =      F    correct potential (dipole corrections)
   IDIPOL =      0    1-x, 2-y, 3-z, 4-all directions 
   EPSILON=  1.0000000 bulk dielectric constant

 Exchange correlation treatment:
   GGA     =    PS    GGA type
   LEXCH   =    14    internal setting for exchange type
   VOSKOWN=      1    Vosko Wilk Nusair interpolation
   LHFCALC =     F    Hartree Fock is set to
   LHFONE  =     F    Hartree Fock one center treatment
   AEXX    =    0.0000 exact exchange contribution

 Linear response parameters
   LEPSILON=     F    determine dielectric tensor
   LRPA    =     F    only Hartree local field effects (RPA)
   LNABLA  =     F    use nabla operator in PAW spheres
   LVEL    =     F    velocity operator in full k-point grid
   LINTERFAST=   F  fast interpolation
   KINTER  =     0    interpolate to denser k-point grid
   CSHIFT  =0.1000    complex shift for real part using Kramers Kronig
   OMEGAMAX=  -1.0    maximum frequency
   DEG_THRESHOLD= 0.2000000E-02 threshold for treating states as degnerate
   RTIME   =   -0.100 relaxation time in fs
  (WPLASMAI=    0.000 imaginary part of plasma frequency in eV, 0.658/RTIME)
   DFIELD  = 0.0000000 0.0000000 0.0000000 field for delta impulse in time
 
 Orbital magnetization related:
   ORBITALMAG=     F  switch on orbital magnetization
   LCHIMAG   =     F  perturbation theory with respect to B field
   DQ        =  0.001000  dq finite difference perturbation B field
   LLRAUG    =     F  two centre corrections for induced B field



--------------------------------------------------------------------------------------------------------


 Static calculation
 charge density and potential will be updated during run
 spin polarized calculation
 Variant of blocked Davidson
 Davidson routine will perform the subspace rotation
 perform sub-space diagonalisation
    after iterative eigenvector-optimisation
 modified Broyden-mixing scheme, WC =      100.0
 initial mixing is a Kerker type mixing with AMIX =  0.4000 and BMIX =      1.0000
 Hartree-type preconditioning will be used
 using additional bands           74
 real space projection scheme for non local part
 use partial core corrections
 calculate Harris-corrections to forces 
   (improved forces if not selfconsistent)
 use gradient corrections 
 use of overlap-Matrix (Vanderbilt PP)
 Gauss-broadening in eV      SIGMA  =   0.05


--------------------------------------------------------------------------------------------------------


  energy-cutoff  :      500.00
  volume of cell :      648.83
      direct lattice vectors                 reciprocal lattice vectors
     8.781013500  0.000000000  0.000000000     0.113882071  0.065749844  0.000000000
    -4.390506750  7.604580760  0.000000000     0.000000000  0.131499688  0.000000000
     0.000000000  0.000000000  9.716479500     0.000000000  0.000000000  0.102917934

  length of vectors
     8.781013500  8.781013498  9.716479500     0.131499688  0.131499688  0.102917934


 
 k-points in units of 2pi/SCALE and weight: Automatic mesh                          
   0.00000000  0.00000000  0.00000000       0.021
   0.02847052  0.01643746  0.00000000       0.042
   0.05694104  0.03287492  0.00000000       0.021
   0.00000000  0.03287492  0.00000000       0.042
   0.02847052  0.04931238  0.00000000       0.042
   0.05694104  0.06574984  0.00000000       0.042
  -0.02847052  0.01643746  0.00000000       0.042
   0.00000000  0.06574984  0.00000000       0.021
   0.02847052  0.08218731  0.00000000       0.042
   0.05694104  0.09862477  0.00000000       0.021
   0.00000000  0.00000000  0.03430598       0.042
   0.02847052  0.01643746  0.03430598       0.042
   0.05694104  0.03287492  0.03430598       0.042
  -0.02847052 -0.01643746  0.03430598       0.042
   0.00000000  0.03287492  0.03430598       0.042
   0.02847052  0.04931238  0.03430598       0.042
   0.05694104  0.06574984  0.03430598       0.042
  -0.02847052  0.01643746  0.03430598       0.042
   0.00000000  0.06574984  0.03430598       0.042
   0.02847052  0.08218731  0.03430598       0.042
   0.05694104  0.09862477  0.03430598       0.042
  -0.02847052  0.04931238  0.03430598       0.042
   0.00000000 -0.03287492  0.03430598       0.042
   0.02847052 -0.01643746  0.03430598       0.042
   0.05694104  0.00000000  0.03430598       0.042
  -0.02847052 -0.04931238  0.03430598       0.042
 
 k-points in reciprocal lattice and weights: Automatic mesh                          
   0.00000000  0.00000000  0.00000000       0.021
   0.25000000  0.00000000  0.00000000       0.042
   0.50000000  0.00000000  0.00000000       0.021
   0.00000000  0.25000000  0.00000000       0.042
   0.25000000  0.25000000  0.00000000       0.042
   0.50000000  0.25000000  0.00000000       0.042
  -0.25000000  0.25000000  0.00000000       0.042
   0.00000000  0.50000000  0.00000000       0.021
   0.25000000  0.50000000  0.00000000       0.042
   0.50000000  0.50000000  0.00000000       0.021
   0.00000000  0.00000000  0.33333333       0.042
   0.25000000  0.00000000  0.33333333       0.042
   0.50000000  0.00000000  0.33333333       0.042
  -0.25000000  0.00000000  0.33333333       0.042
   0.00000000  0.25000000  0.33333333       0.042
   0.25000000  0.25000000  0.33333333       0.042
   0.50000000  0.25000000  0.33333333       0.042
  -0.25000000  0.25000000  0.33333333       0.042
   0.00000000  0.50000000  0.33333333       0.042
   0.25000000  0.50000000  0.33333333       0.042
   0.50000000  0.50000000  0.33333333       0.042
  -0.25000000  0.50000000  0.33333333       0.042
   0.00000000 -0.25000000  0.33333333       0.042
   0.25000000 -0.25000000  0.33333333       0.042
   0.50000000 -0.25000000  0.33333333       0.042
  -0.25000000 -0.25000000  0.33333333       0.042
 
 position of ions in fractional coordinates (direct lattice) 
   0.00381332  0.00886713  0.00356762
   0.99409072  0.00703072  0.48883277
   0.00585501  0.31998754  0.99687445
   0.97784996  0.31225172  0.48929991
   0.00253385  0.65805498  0.00062240
   0.00159524  0.64755428  0.47972002
   0.30814516  0.02096035  0.99689926
   0.31262346  0.99167729  0.48717648
   0.29713233  0.29835239  0.00962218
   0.30088630  0.30732169  0.48503802
   0.34083807  0.63600024  0.99152425
   0.30158177  0.64612944  0.48749689
   0.64051762  0.00739323  0.01712891
   0.65015781  0.02364422  0.46688334
   0.61665243  0.30692773  0.01430725
   0.62060260  0.29811103  0.49384574
   0.62669516  0.62893125  0.00417591
   0.62589241  0.63439671  0.48099179
   0.10099463  0.23160648  0.10640611
   0.21185091  0.09992011  0.38987179
   0.11131972  0.21080498  0.57205144
   0.22167775  0.12486053  0.87564947
   0.09426999  0.52558916  0.07492380
   0.20763766  0.43144956  0.39254271
   0.10480133  0.52728953  0.57698077
   0.18683931  0.42030347  0.87291647
   0.11032927  0.84743726  0.09995010
   0.19471195  0.71374883  0.39723911
   0.11303035  0.83235202  0.55852050
   0.20807360  0.74208498  0.85120322
   0.44492196  0.21059671  0.11178952
   0.51693468  0.10048108  0.38435104
   0.41891207  0.20772342  0.56150090
   0.53643874  0.10752927  0.84552283
   0.43626009  0.50623458  0.08454666
   0.54868415  0.41168219  0.38837651
   0.43616896  0.54166911  0.57734856
   0.53897426  0.42185672  0.84285310
   0.42077426  0.84079357  0.09589595
   0.52678804  0.74599942  0.39162050
   0.43452058  0.87563851  0.56656780
   0.53344893  0.73400126  0.84952336
   0.75187858  0.22909626  0.09597445
   0.83715015  0.08812692  0.37207895
   0.74835246  0.19944743  0.58600200
   0.85257294  0.10453921  0.87451723
   0.74808492  0.52930827  0.10012850
   0.86312169  0.43470764  0.38137248
   0.74440648  0.51043019  0.55937175
   0.82227414  0.40938533  0.85391232
   0.71217300  0.82471834  0.08385752
   0.82435888  0.73027623  0.39670012
   0.73929683  0.84950845  0.57122720
   0.82657719  0.72034093  0.84679216
 
 position of ions in cartesian coordinates  (Angst):
  -0.00544638  0.06743081  0.03466471
   8.69825561  0.05346568  4.74973359
  -1.35349453  2.43337109  9.68611016
   7.21557042  2.37454342  4.75427254
  -2.86694506  5.00423224  0.00604754
  -2.82908361  4.92437882  4.66118974
   2.61380025  0.15939467  9.68635122
  -1.60881501  7.54129004  4.73364028
   1.29920482  2.26884484  0.09349371
   1.29278871  2.33705261  4.71286198
   0.20054035  4.83651519  9.63412505
  -0.18864207  4.91354351  4.73675354
   5.59193384  0.05622241  0.16643270
   5.60523440  0.17980438  4.53646240
   4.06726504  2.33405671  0.13901610
   4.14066132  2.26700940  4.79844201
   2.74169176  4.78275848  0.04057514
   2.71064666  4.82432102  4.67354687
  -0.13003460  1.76127018  1.03389279
   1.42156578  0.75985055  3.78818126
   0.05195928  1.60308350  5.55832609
   1.39835432  0.94951198  8.50823012
  -1.47981670  3.99688521  0.72799557
  -0.07101311  3.28099302  3.81413319
  -1.39480635  4.00981581  5.60622182
  -0.20470672  3.19623168  8.48167499
  -2.75187620  6.44440508  0.97116310
  -1.42395079  5.42776062  3.85976567
  -2.66192613  6.32968816  5.42685299
  -1.43103202  5.64324516  8.27069864
   2.98223946  1.60149969  1.08620058
   4.09804754  0.76411649  3.73453900
   2.76646146  1.57964952  5.45581198
   4.23836783  0.81771502  8.21550524
   1.60817940  3.84970175  0.82149589
   3.01050949  3.13067046  3.77365240
   1.45180364  4.11916649  5.60979545
   2.88057548  3.20804350  8.18956487
   0.00331461  6.39388261  0.93177103
   1.35041740  5.67301284  3.80517256
  -0.02896571  6.65886377  5.50504441
   1.46158477  5.58177186  8.25437631
   5.59640729  1.74218101  0.93253378
   6.96410493  0.67016828  3.61529749
   5.69561777  1.51671409  5.69387642
   7.02747439  0.79497687  8.49722874
   4.24501225  4.02516749  0.97289652
   5.67049638  3.30576936  3.70559788
   4.29559616  3.88160760  5.43512414
   5.42299127  3.11320380  8.29702155
   2.63266929  6.27163722  0.81479987
   4.03242374  5.55344457  3.85452858
   2.76200286  6.46015561  5.55031738
   4.09552375  5.47789078  8.22783866
 


--------------------------------------------------------------------------------------------------------


 k-point  1 :   0.0000 0.0000 0.0000  plane waves:   16385
 k-point  2 :   0.2500 0.0000 0.0000  plane waves:   16470
 k-point  3 :   0.5000 0.0000 0.0000  plane waves:   16488
 k-point  4 :   0.0000 0.2500 0.0000  plane waves:   16470
 k-point  5 :   0.2500 0.2500 0.0000  plane waves:   16468
 k-point  6 :   0.5000 0.2500 0.0000  plane waves:   16468
 k-point  7 :  -0.2500 0.2500 0.0000  plane waves:   16470
 k-point  8 :   0.0000 0.5000 0.0000  plane waves:   16488
 k-point  9 :   0.2500 0.5000 0.0000  plane waves:   16468
 k-point 10 :   0.5000 0.5000 0.0000  plane waves:   16488
 k-point 11 :   0.0000 0.0000 0.3333  plane waves:   16410
 k-point 12 :   0.2500 0.0000 0.3333  plane waves:   16466
 k-point 13 :   0.5000 0.0000 0.3333  plane waves:   16452
 k-point 14 :  -0.2500 0.0000 0.3333  plane waves:   16466
 k-point 15 :   0.0000 0.2500 0.3333  plane waves:   16466
 k-point 16 :   0.2500 0.2500 0.3333  plane waves:   16464
 k-point 17 :   0.5000 0.2500 0.3333  plane waves:   16464
 k-point 18 :  -0.2500 0.2500 0.3333  plane waves:   16466
 k-point 19 :   0.0000 0.5000 0.3333  plane waves:   16452
 k-point 20 :   0.2500 0.5000 0.3333  plane waves:   16464
 k-point 21 :   0.5000 0.5000 0.3333  plane waves:   16452
 k-point 22 :  -0.2500 0.5000 0.3333  plane waves:   16464
 k-point 23 :   0.0000-0.2500 0.3333  plane waves:   16466
 k-point 24 :   0.2500-0.2500 0.3333  plane waves:   16466
 k-point 25 :   0.5000-0.2500 0.3333  plane waves:   16464
 k-point 26 :  -0.2500-0.2500 0.3333  plane waves:   16464

 maximum and minimum number of plane-waves per node :     16488    16385

 maximum number of plane-waves:     16488
 maximum index in each direction: 
   IXMAX=   16   IYMAX=   16   IZMAX=   17
   IXMIN=  -16   IYMIN=  -16   IZMIN=  -18

 The following grids will avoid any aliasing or wrap around errors in the Hartre
 e energy
  - symmetry arguments have not been applied
  - exchange correlation energies might require even more grid points
  - we recommend to set PREC=Normal or Accurate and rely on VASP defaults
 WARNING: aliasing errors must be expected set NGX to    70 to avoid them
 WARNING: aliasing errors must be expected set NGY to    70 to avoid them
 NGZ is ok and might be reduce to    72

 serial   3D FFT for wavefunctions
 parallel 3D FFT for charge:
    minimum data exchange during FFTs selected (reduces bandwidth)


 total amount of memory used by VASP MPI-rank0   344387. kBytes
=======================================================================

   base      :      30000. kBytes
   nonlr-proj:      28688. kBytes
   fftplans  :       6224. kBytes
   grid      :      35651. kBytes
   one-center:       1679. kBytes
   wavefun   :     242145. kBytes
 
     INWAV:  cpu time    0.0000: real time    0.0000
 Broyden mixing: mesh for mixing (old mesh)
   NGX = 33   NGY = 33   NGZ = 35
  (NGX  =128   NGY  =128   NGZ  =144)
  gives a total of  38115 points

 initial charge density was supplied:
 charge density of overlapping atoms calculated
 number of electron     396.0000000 magnetization      45.0000000
 keeping initial charge density in first step


--------------------------------------------------------------------------------------------------------


 Maximum index for non-local projection operator         5932
 Maximum index for augmentation-charges          993 (set IRDMAX)


--------------------------------------------------------------------------------------------------------


 First call to EWALD:  gamma=   0.205
 Maximum number of real-space cells 3x 3x 3
 Maximum number of reciprocal cells 3x 3x 3

    FEWALD:  cpu time    0.0027: real time    0.0027


--------------------------------------- Iteration      1(   1)  ---------------------------------------


    POTLOK:  cpu time    0.1913: real time    0.2190
    SETDIJ:  cpu time    0.0218: real time    0.0218
     EDDAV:  cpu time   79.9154: real time   80.1048
    --------------------------------------------
      LOOP:  cpu time   80.1312: real time   80.3484

 eigenvalue-minimisations  : 28288
 total energy-change (2. order) : 0.4909735E+04  (-0.1703440E+05)
 number of electron     396.0000000 magnetization      45.0000000
 augmentation part      396.0000000 magnetization      45.0000000

 Free energy of the ion-electron system (eV)
  ---------------------------------------------------
  alpha Z        PSCENC =      1069.12875734
  Ewald energy   TEWEN  =    -21105.00470767
  -Hartree energ DENC   =    -14210.01711856
  -exchange      EXHF   =         0.00000000
  -V(xc)+E(xc)   XCENC  =      1585.85037652
  PAW double counting   =     29771.88967665   -31027.00397701
  entropy T*S    EENTRO =        -0.01476654
  eigenvalues    EBANDS =      3934.52499531
  atomic energy  EATOM  =     34890.38139807
  Solvation  Ediel_sol  =         0.00000000
  ---------------------------------------------------
  free energy    TOTEN  =      4909.73463412 eV

  energy without entropy =     4909.74940066  energy(sigma->0) =     4909.74201739


--------------------------------------------------------------------------------------------------------




--------------------------------------- Iteration      1(   2)  ---------------------------------------


     EDDAV:  cpu time   83.0389: real time   83.2352
    --------------------------------------------
      LOOP:  cpu time   83.0390: real time   83.2353

 eigenvalue-minimisations  : 29344
 total energy-change (2. order) :-0.4311941E+04  (-0.3879577E+04)
 number of electron     396.0000000 magnetization      45.0000000
 augmentation part      396.0000000 magnetization      45.0000000

 Free energy of the ion-electron system (eV)
  ---------------------------------------------------
  alpha Z        PSCENC =      1069.12875734
  Ewald energy   TEWEN  =    -21105.00470767
  -Hartree energ DENC   =    -14210.01711856
  -exchange      EXHF   =         0.00000000
  -V(xc)+E(xc)   XCENC  =      1585.85037652
  PAW double counting   =     29771.88967665   -31027.00397701
  entropy T*S    EENTRO =        -0.03222137
  eigenvalues    EBANDS =      -377.39835435
  atomic energy  EATOM  =     34890.38139807
  Solvation  Ediel_sol  =         0.00000000
  ---------------------------------------------------
  free energy    TOTEN  =       597.79382963 eV

  energy without entropy =      597.82605100  energy(sigma->0) =      597.80994031


--------------------------------------------------------------------------------------------------------




--------------------------------------- Iteration      1(   3)  ---------------------------------------


     EDDAV:  cpu time   81.6531: real time   81.8459
    --------------------------------------------
      LOOP:  cpu time   81.6530: real time   81.8459

 eigenvalue-minimisations  : 29696
 total energy-change (2. order) :-0.9647321E+03  (-0.8595340E+03)
 number of electron     396.0000000 magnetization      45.0000000
 augmentation part      396.0000000 magnetization      45.0000000

 Free energy of the ion-electron system (eV)
  ---------------------------------------------------
  alpha Z        PSCENC =      1069.12875734
  Ewald energy   TEWEN  =    -21105.00470767
  -Hartree energ DENC   =    -14210.01711856
  -exchange      EXHF   =         0.00000000
  -V(xc)+E(xc)   XCENC  =      1585.85037652
  PAW double counting   =     29771.88967665   -31027.00397701
  entropy T*S    EENTRO =        -0.07550323
  eigenvalues    EBANDS =     -1342.08714032
  atomic energy  EATOM  =     34890.38139807
  Solvation  Ediel_sol  =         0.00000000
  ---------------------------------------------------
  free energy    TOTEN  =      -366.93823820 eV

  energy without entropy =     -366.86273497  energy(sigma->0) =     -366.90048658


--------------------------------------------------------------------------------------------------------




--------------------------------------- Iteration      1(   4)  ---------------------------------------


     EDDAV:  cpu time   85.7096: real time   85.9121
    --------------------------------------------
      LOOP:  cpu time   85.7094: real time   85.9119

 eigenvalue-minimisations  : 32400
 total energy-change (2. order) :-0.9010903E+02  (-0.8752016E+02)
 number of electron     396.0000000 magnetization      45.0000000
 augmentation part      396.0000000 magnetization      45.0000000

 Free energy of the ion-electron system (eV)
  ---------------------------------------------------
  alpha Z        PSCENC =      1069.12875734
  Ewald energy   TEWEN  =    -21105.00470767
  -Hartree energ DENC   =    -14210.01711856
  -exchange      EXHF   =         0.00000000
  -V(xc)+E(xc)   XCENC  =      1585.85037652
  PAW double counting   =     29771.88967665   -31027.00397701
  entropy T*S    EENTRO =        -0.07701990
  eigenvalues    EBANDS =     -1432.19465473
  atomic energy  EATOM  =     34890.38139807
  Solvation  Ediel_sol  =         0.00000000
  ---------------------------------------------------
  free energy    TOTEN  =      -457.04726927 eV

  energy without entropy =     -456.97024938  energy(sigma->0) =     -457.00875933


--------------------------------------------------------------------------------------------------------




--------------------------------------- Iteration      1(   5)  ---------------------------------------


     EDDAV:  cpu time   83.9537: real time   84.1522
    CHARGE:  cpu time    3.5584: real time    3.5668
    MIXING:  cpu time    0.0040: real time    0.0040
    --------------------------------------------
      LOOP:  cpu time   87.5135: real time   87.7205

 eigenvalue-minimisations  : 31984
 total energy-change (2. order) :-0.2336187E+01  (-0.2324862E+01)
 number of electron     396.0000010 magnetization      49.0781855
 augmentation part      110.9271083 magnetization      35.3554220

 Broyden mixing:
  rms(total) = 0.13103E+02    rms(broyden)= 0.13102E+02
  rms(prec ) = 0.16327E+02
  weight for this iteration     100.00

 Free energy of the ion-electron system (eV)
  ---------------------------------------------------
  alpha Z        PSCENC =      1069.12875734
  Ewald energy   TEWEN  =    -21105.00470767
  -Hartree energ DENC   =    -14210.01711856
  -exchange      EXHF   =         0.00000000
  -V(xc)+E(xc)   XCENC  =      1585.85037652
  PAW double counting   =     29771.88967665   -31027.00397701
  entropy T*S    EENTRO =        -0.07678221
  eigenvalues    EBANDS =     -1434.53107947
  atomic energy  EATOM  =     34890.38139807
  Solvation  Ediel_sol  =         0.00000000
  ---------------------------------------------------
  free energy    TOTEN  =      -459.38345634 eV

  energy without entropy =     -459.30667412  energy(sigma->0) =     -459.34506523


--------------------------------------------------------------------------------------------------------




--------------------------------------- Iteration      1(   6)  ---------------------------------------


    POTLOK:  cpu time    0.1598: real time    0.1602
    SETDIJ:  cpu time    0.0210: real time    0.0211
     EDDAV:  cpu time  113.1272: real time  113.3943
    CHARGE:  cpu time    3.2827: real time    3.2905
    MIXING:  cpu time    0.0041: real time    0.0041
    --------------------------------------------
      LOOP:  cpu time  116.5948: real time  116.8701

 eigenvalue-minimisations  : 45488
 total energy-change (2. order) :-0.2176318E+03  (-0.1192004E+03)
 number of electron     396.0000018 magnetization      43.5164419
 augmentation part      157.6516037 magnetization      42.2584753

 Broyden mixing:
  rms(total) = 0.27491E+02    rms(broyden)= 0.27490E+02
  rms(prec ) = 0.31130E+02
  weight for this iteration     100.00

 eigenvalues of (default mixing * dielectric matrix)
  average eigenvalue GAMMA=   0.1957
  0.1957

 Free energy of the ion-electron system (eV)
  ---------------------------------------------------
  alpha Z        PSCENC =      1069.12875734
  Ewald energy   TEWEN  =    -21105.00470767
  -Hartree energ DENC   =    -13427.05299591
  -exchange      EXHF   =         0.00000000
  -V(xc)+E(xc)   XCENC  =      1600.91021986
  PAW double counting   =     32122.74091727   -33137.66482178
  entropy T*S    EENTRO =        -0.03625403
  eigenvalues    EBANDS =     -2690.41781409
  atomic energy  EATOM  =     34890.38139807
  Solvation  Ediel_sol  =         0.00000000
  ---------------------------------------------------
  free energy    TOTEN  =      -677.01530094 eV

  energy without entropy =     -676.97904691  energy(sigma->0) =     -676.99717392


--------------------------------------------------------------------------------------------------------




--------------------------------------- Iteration      1(   7)  ---------------------------------------


    POTLOK:  cpu time    0.1660: real time    0.1664
    SETDIJ:  cpu time    0.0220: real time    0.0221
     EDDAV:  cpu time   98.6551: real time   98.8880
    CHARGE:  cpu time    3.8051: real time    3.8141
    MIXING:  cpu time    0.0037: real time    0.0037
    --------------------------------------------
      LOOP:  cpu time  102.6519: real time  102.8943

 eigenvalue-minimisations  : 38112
 total energy-change (2. order) : 0.2676176E+03  (-0.4409675E+02)
 number of electron     396.0000010 magnetization      38.1918760
 augmentation part      146.5401851 magnetization      32.8051064

 Broyden mixing:
  rms(total) = 0.13377E+02    rms(broyden)= 0.13376E+02
  rms(prec ) = 0.16097E+02
  weight for this iteration     100.00

 eigenvalues of (default mixing * dielectric matrix)
  average eigenvalue GAMMA=   0.4648
  0.4648  0.4648

 Free energy of the ion-electron system (eV)
  ---------------------------------------------------
  alpha Z        PSCENC =      1069.12875734
  Ewald energy   TEWEN  =    -21105.00470767
  -Hartree energ DENC   =    -13717.55987396
  -exchange      EXHF   =         0.00000000
  -V(xc)+E(xc)   XCENC  =      1586.14931316
  PAW double counting   =     33471.60005742   -34629.20718708
  entropy T*S    EENTRO =        -0.06736033
  eigenvalues    EBANDS =     -1974.81813640
  atomic energy  EATOM  =     34890.38139807
  Solvation  Ediel_sol  =         0.00000000
  ---------------------------------------------------
  free energy    TOTEN  =      -409.39773945 eV

  energy without entropy =     -409.33037912  energy(sigma->0) =     -409.36405929


--------------------------------------------------------------------------------------------------------




--------------------------------------- Iteration      1(   8)  ---------------------------------------


    POTLOK:  cpu time    0.1645: real time    0.1649
    SETDIJ:  cpu time    0.0227: real time    0.0227
     EDDAV:  cpu time  117.2855: real time  117.5624
    CHARGE:  cpu time    3.6059: real time    3.6144
    MIXING:  cpu time    0.0041: real time    0.0041
    --------------------------------------------
      LOOP:  cpu time  121.0826: real time  121.3685

 eigenvalue-minimisations  : 46368
 total energy-change (2. order) :-0.3071937E+01  (-0.2485481E+02)
 number of electron     396.0000018 magnetization      32.7633869
 augmentation part      144.4654778 magnetization      29.1037539

 Broyden mixing:
  rms(total) = 0.12607E+02    rms(broyden)= 0.12605E+02
  rms(prec ) = 0.18819E+02
  weight for this iteration     100.00

 eigenvalues of (default mixing * dielectric matrix)
  average eigenvalue GAMMA=   0.4581
  0.5866  0.5866  0.2009

 Free energy of the ion-electron system (eV)
  ---------------------------------------------------
  alpha Z        PSCENC =      1069.12875734
  Ewald energy   TEWEN  =    -21105.00470767
  -Hartree energ DENC   =    -13757.09192341
  -exchange      EXHF   =         0.00000000
  -V(xc)+E(xc)   XCENC  =      1575.93706658
  PAW double counting   =     34211.56806254   -35460.21137840
  entropy T*S    EENTRO =        -0.03323712
  eigenvalues    EBANDS =     -1837.14371434
  atomic energy  EATOM  =     34890.38139807
  Solvation  Ediel_sol  =         0.00000000
  ---------------------------------------------------
  free energy    TOTEN  =      -412.46967641 eV

  energy without entropy =     -412.43643929  energy(sigma->0) =     -412.45305785


--------------------------------------------------------------------------------------------------------




--------------------------------------- Iteration      1(   9)  ---------------------------------------


    POTLOK:  cpu time    0.1610: real time    0.1614
    SETDIJ:  cpu time    0.0210: real time    0.0211
     EDDAV:  cpu time  100.6416: real time  100.8793
    CHARGE:  cpu time    3.6770: real time    3.6857
    MIXING:  cpu time    0.0050: real time    0.0050
    --------------------------------------------
      LOOP:  cpu time  104.5056: real time  104.7524

 eigenvalue-minimisations  : 38816
 total energy-change (2. order) : 0.6233904E+02  (-0.2511574E+02)
 number of electron     396.0000016 magnetization      30.6133873
 augmentation part      119.8676621 magnetization      23.1548589

 Broyden mixing:
  rms(total) = 0.10008E+02    rms(broyden)= 0.10006E+02
  rms(prec ) = 0.14312E+02
  weight for this iteration     100.00

 eigenvalues of (default mixing * dielectric matrix)
  average eigenvalue GAMMA=   0.4029
  0.6076  0.6076  0.1981  0.1981

 Free energy of the ion-electron system (eV)
  ---------------------------------------------------
  alpha Z        PSCENC =      1069.12875734
  Ewald energy   TEWEN  =    -21105.00470767
  -Hartree energ DENC   =    -13920.82781919
  -exchange      EXHF   =         0.00000000
  -V(xc)+E(xc)   XCENC  =      1573.74454396
  PAW double counting   =     35190.42089772   -36496.32458870
  entropy T*S    EENTRO =        -0.07989219
  eigenvalues    EBANDS =     -1551.56922265
  atomic energy  EATOM  =     34890.38139807
  Solvation  Ediel_sol  =         0.00000000
  ---------------------------------------------------
  free energy    TOTEN  =      -350.13063333 eV

  energy without entropy =     -350.05074113  energy(sigma->0) =     -350.09068723


--------------------------------------------------------------------------------------------------------




--------------------------------------- Iteration      1(  10)  ---------------------------------------


    POTLOK:  cpu time    0.1706: real time    0.1710
    SETDIJ:  cpu time    0.0222: real time    0.0223
     EDDAV:  cpu time   99.2582: real time   99.4925
    CHARGE:  cpu time    3.8460: real time    3.8551
    MIXING:  cpu time    0.0050: real time    0.0050
    --------------------------------------------
      LOOP:  cpu time  103.3020: real time  103.5459

 eigenvalue-minimisations  : 37872
 total energy-change (2. order) : 0.7664194E+01  (-0.1898982E+02)
 number of electron     396.0000013 magnetization      27.9700599
 augmentation part      120.5501711 magnetization      22.4806048

 Broyden mixing:
  rms(total) = 0.91977E+01    rms(broyden)= 0.91970E+01
  rms(prec ) = 0.13712E+02
  weight for this iteration     100.00

 eigenvalues of (default mixing * dielectric matrix)
  average eigenvalue GAMMA=   0.3594
  0.5883  0.5883  0.2672  0.2672  0.0863

 Free energy of the ion-electron system (eV)
  ---------------------------------------------------
  alpha Z        PSCENC =      1069.12875734
  Ewald energy   TEWEN  =    -21105.00470767
  -Hartree energ DENC   =    -13897.36186876
  -exchange      EXHF   =         0.00000000
  -V(xc)+E(xc)   XCENC  =      1571.99345941
  PAW double counting   =     35652.88567023   -36964.34548802
  entropy T*S    EENTRO =        -0.06789461
  eigenvalues    EBANDS =     -1560.07576572
  atomic energy  EATOM  =     34890.38139807
  Solvation  Ediel_sol  =         0.00000000
  ---------------------------------------------------
  free energy    TOTEN  =      -342.46643974 eV

  energy without entropy =     -342.39854513  energy(sigma->0) =     -342.43249243


--------------------------------------------------------------------------------------------------------




--------------------------------------- Iteration      1(  11)  ---------------------------------------


    POTLOK:  cpu time    0.1685: real time    0.1689
    SETDIJ:  cpu time    0.0221: real time    0.0221
     EDDAV:  cpu time  103.7710: real time  104.0160
    CHARGE:  cpu time    3.8095: real time    3.8185
    MIXING:  cpu time    0.0051: real time    0.0051
    --------------------------------------------
      LOOP:  cpu time  107.7763: real time  108.0308

 eigenvalue-minimisations  : 39136
 total energy-change (2. order) : 0.1541060E+02  (-0.5617404E+01)
 number of electron     396.0000017 magnetization      25.8125151
 augmentation part      123.5887147 magnetization      20.2457767

 Broyden mixing:
  rms(total) = 0.76197E+01    rms(broyden)= 0.76191E+01
  rms(prec ) = 0.10988E+02
  weight for this iteration     100.00

 eigenvalues of (default mixing * dielectric matrix)
  average eigenvalue GAMMA=   0.3327
  0.7443  0.4746  0.2922  0.2922  0.1158  0.0771

 Free energy of the ion-electron system (eV)
  ---------------------------------------------------
  alpha Z        PSCENC =      1069.12875734
  Ewald energy   TEWEN  =    -21105.00470767
  -Hartree energ DENC   =    -13852.98494644
  -exchange      EXHF   =         0.00000000
  -V(xc)+E(xc)   XCENC  =      1570.17418715
  PAW double counting   =     36104.98423664   -37415.39198951
  entropy T*S    EENTRO =        -0.06236402
  eigenvalues    EBANDS =     -1588.28040709
  atomic energy  EATOM  =     34890.38139807
  Solvation  Ediel_sol  =         0.00000000
  ---------------------------------------------------
  free energy    TOTEN  =      -327.05583553 eV

  energy without entropy =     -326.99347151  energy(sigma->0) =     -327.02465352


--------------------------------------------------------------------------------------------------------




--------------------------------------- Iteration      1(  12)  ---------------------------------------


    POTLOK:  cpu time    0.1584: real time    0.1588
    SETDIJ:  cpu time    0.0212: real time    0.0212
     EDDAV:  cpu time  107.7915: real time  108.0459
    CHARGE:  cpu time    3.8139: real time    3.8229
    MIXING:  cpu time    0.0056: real time    0.0056
    --------------------------------------------
      LOOP:  cpu time  111.7905: real time  112.0544

 eigenvalue-minimisations  : 40656
 total energy-change (2. order) : 0.1752242E+02  (-0.2459521E+01)
 number of electron     396.0000014 magnetization      23.9880584
 augmentation part      127.7738724 magnetization      19.0065219

 Broyden mixing:
  rms(total) = 0.36258E+01    rms(broyden)= 0.36248E+01
  rms(prec ) = 0.50281E+01
  weight for this iteration     100.00

 eigenvalues of (default mixing * dielectric matrix)
  average eigenvalue GAMMA=   0.3598
  0.7201  0.7201  0.3595  0.3595  0.1933  0.0829  0.0829

 Free energy of the ion-electron system (eV)
  ---------------------------------------------------
  alpha Z        PSCENC =      1069.12875734
  Ewald energy   TEWEN  =    -21105.00470767
  -Hartree energ DENC   =    -13816.41009722
  -exchange      EXHF   =         0.00000000
  -V(xc)+E(xc)   XCENC  =      1569.07782872
  PAW double counting   =     36432.29480001   -37740.84110194
  entropy T*S    EENTRO =        -0.06278230
  eigenvalues    EBANDS =     -1608.09751247
  atomic energy  EATOM  =     34890.38139807
  Solvation  Ediel_sol  =         0.00000000
  ---------------------------------------------------
  free energy    TOTEN  =      -309.53341746 eV

  energy without entropy =     -309.47063516  energy(sigma->0) =     -309.50202631


--------------------------------------------------------------------------------------------------------




--------------------------------------- Iteration      1(  13)  ---------------------------------------


    POTLOK:  cpu time    0.1643: real time    0.1647
    SETDIJ:  cpu time    0.0221: real time    0.0221
     EDDAV:  cpu time  100.4225: real time  100.6597
    CHARGE:  cpu time    3.8277: real time    3.8367
    MIXING:  cpu time    0.0056: real time    0.0056
    --------------------------------------------
      LOOP:  cpu time  104.4421: real time  104.6888

 eigenvalue-minimisations  : 37488
 total energy-change (2. order) :-0.4190828E+00  (-0.1679894E+01)
 number of electron     396.0000012 magnetization      22.0913285
 augmentation part      127.5428049 magnetization      17.7398891

 Broyden mixing:
  rms(total) = 0.49533E+01    rms(broyden)= 0.49530E+01
  rms(prec ) = 0.69553E+01
  weight for this iteration     100.00

 eigenvalues of (default mixing * dielectric matrix)
  average eigenvalue GAMMA=   0.3666
  0.8118  0.8118  0.4071  0.4071  0.2020  0.1321  0.0803  0.0803

 Free energy of the ion-electron system (eV)
  ---------------------------------------------------
  alpha Z        PSCENC =      1069.12875734
  Ewald energy   TEWEN  =    -21105.00470767
  -Hartree energ DENC   =    -13810.57543646
  -exchange      EXHF   =         0.00000000
  -V(xc)+E(xc)   XCENC  =      1568.85151887
  PAW double counting   =     36578.38256683   -37884.58349489
  entropy T*S    EENTRO =        -0.05138648
  eigenvalues    EBANDS =     -1616.48171592
  atomic energy  EATOM  =     34890.38139807
  Solvation  Ediel_sol  =         0.00000000
  ---------------------------------------------------
  free energy    TOTEN  =      -309.95250031 eV

  energy without entropy =     -309.90111384  energy(sigma->0) =     -309.92680708


--------------------------------------------------------------------------------------------------------




--------------------------------------- Iteration      1(  14)  ---------------------------------------


    POTLOK:  cpu time    0.1663: real time    0.1667
    SETDIJ:  cpu time    0.0220: real time    0.0221
     EDDAV:  cpu time   99.1807: real time   99.4149
    CHARGE:  cpu time    3.7397: real time    3.7486
    MIXING:  cpu time    0.0058: real time    0.0059
    --------------------------------------------
      LOOP:  cpu time  103.1146: real time  103.3581

 eigenvalue-minimisations  : 36416
 total energy-change (2. order) : 0.3440686E+01  (-0.3181385E+01)
 number of electron     396.0000014 magnetization      21.0679503
 augmentation part      128.1256720 magnetization      16.3810937

 Broyden mixing:
  rms(total) = 0.35115E+01    rms(broyden)= 0.35111E+01
  rms(prec ) = 0.48868E+01
  weight for this iteration     100.00

 eigenvalues of (default mixing * dielectric matrix)
  average eigenvalue GAMMA=   0.3612
  0.8600  0.8600  0.4323  0.4323  0.2194  0.1851  0.0857  0.0857  0.0905

 Free energy of the ion-electron system (eV)
  ---------------------------------------------------
  alpha Z        PSCENC =      1069.12875734
  Ewald energy   TEWEN  =    -21105.00470767
  -Hartree energ DENC   =    -13810.69446059
  -exchange      EXHF   =         0.00000000
  -V(xc)+E(xc)   XCENC  =      1568.55007403
  PAW double counting   =     36695.83142868   -38000.06323514
  entropy T*S    EENTRO =        -0.05404328
  eigenvalues    EBANDS =     -1614.58702602
  atomic energy  EATOM  =     34890.38139807
  Solvation  Ediel_sol  =         0.00000000
  ---------------------------------------------------
  free energy    TOTEN  =      -306.51181459 eV

  energy without entropy =     -306.45777131  energy(sigma->0) =     -306.48479295


--------------------------------------------------------------------------------------------------------




--------------------------------------- Iteration      1(  15)  ---------------------------------------


    POTLOK:  cpu time    0.1672: real time    0.1676
    SETDIJ:  cpu time    0.0210: real time    0.0211
     EDDAV:  cpu time   96.3148: real time   96.5422
    CHARGE:  cpu time    3.6642: real time    3.6729
    MIXING:  cpu time    0.0062: real time    0.0063
    --------------------------------------------
      LOOP:  cpu time  100.1735: real time  100.4099

 eigenvalue-minimisations  : 35504
 total energy-change (2. order) : 0.3993015E+01  (-0.1284963E+01)
 number of electron     396.0000016 magnetization      19.1844306
 augmentation part      128.7618775 magnetization      13.7124297

 Broyden mixing:
  rms(total) = 0.19933E+01    rms(broyden)= 0.19928E+01
  rms(prec ) = 0.26048E+01
  weight for this iteration     100.00

 eigenvalues of (default mixing * dielectric matrix)
  average eigenvalue GAMMA=   0.3858
  0.9840  0.9840  0.4669  0.4669  0.3751  0.2113  0.1154  0.0845  0.0845  0.0853

 Free energy of the ion-electron system (eV)
  ---------------------------------------------------
  alpha Z        PSCENC =      1069.12875734
  Ewald energy   TEWEN  =    -21105.00470767
  -Hartree energ DENC   =    -13808.12888397
  -exchange      EXHF   =         0.00000000
  -V(xc)+E(xc)   XCENC  =      1568.44009202
  PAW double counting   =     36747.72301563   -38050.42784983
  entropy T*S    EENTRO =        -0.06418303
  eigenvalues    EBANDS =     -1614.56643841
  atomic energy  EATOM  =     34890.38139807
  Solvation  Ediel_sol  =         0.00000000
  ---------------------------------------------------
  free energy    TOTEN  =      -302.51879986 eV

  energy without entropy =     -302.45461683  energy(sigma->0) =     -302.48670835


--------------------------------------------------------------------------------------------------------




--------------------------------------- Iteration      1(  16)  ---------------------------------------


    POTLOK:  cpu time    0.1647: real time    0.1651
    SETDIJ:  cpu time    0.0217: real time    0.0217
     EDDAV:  cpu time  100.1524: real time  100.3888
    CHARGE:  cpu time    3.7239: real time    3.7327
    MIXING:  cpu time    0.0071: real time    0.0071
    --------------------------------------------
      LOOP:  cpu time  104.0697: real time  104.3154

 eigenvalue-minimisations  : 37648
 total energy-change (2. order) :-0.3111894E+00  (-0.6725277E+00)
 number of electron     396.0000014 magnetization      16.7032845
 augmentation part      128.8194445 magnetization      11.4819663

 Broyden mixing:
  rms(total) = 0.21108E+01    rms(broyden)= 0.21104E+01
  rms(prec ) = 0.28758E+01
  weight for this iteration     100.00

 eigenvalues of (default mixing * dielectric matrix)
  average eigenvalue GAMMA=   0.3928
  1.0815  1.0815  0.4541  0.4541  0.4678  0.2409  0.1838  0.0849  0.0849  0.0954
  0.0922

 Free energy of the ion-electron system (eV)
  ---------------------------------------------------
  alpha Z        PSCENC =      1069.12875734
  Ewald energy   TEWEN  =    -21105.00470767
  -Hartree energ DENC   =    -13806.55856750
  -exchange      EXHF   =         0.00000000
  -V(xc)+E(xc)   XCENC  =      1568.31717294
  PAW double counting   =     36898.97161489   -38201.20472037
  entropy T*S    EENTRO =        -0.04822827
  eigenvalues    EBANDS =     -1616.81270870
  atomic energy  EATOM  =     34890.38139807
  Solvation  Ediel_sol  =         0.00000000
  ---------------------------------------------------
  free energy    TOTEN  =      -302.82998927 eV

  energy without entropy =     -302.78176100  energy(sigma->0) =     -302.80587514


--------------------------------------------------------------------------------------------------------




--------------------------------------- Iteration      1(  17)  ---------------------------------------


    POTLOK:  cpu time    0.1649: real time    0.1653
    SETDIJ:  cpu time    0.0210: real time    0.0210
     EDDAV:  cpu time  100.4059: real time  100.6429
    CHARGE:  cpu time    3.7076: real time    3.7163
    MIXING:  cpu time    0.0069: real time    0.0070
    --------------------------------------------
      LOOP:  cpu time  104.3062: real time  104.5525

 eigenvalue-minimisations  : 37792
 total energy-change (2. order) :-0.2449190E+00  (-0.7562946E+00)
 number of electron     396.0000012 magnetization      15.2290945
 augmentation part      129.8181520 magnetization       9.5105188

 Broyden mixing:
  rms(total) = 0.19095E+01    rms(broyden)= 0.19090E+01
  rms(prec ) = 0.25565E+01
  weight for this iteration     100.00

 eigenvalues of (default mixing * dielectric matrix)
  average eigenvalue GAMMA=   0.3893
  1.1000  1.1000  0.4497  0.4497  0.4408  0.4408  0.2051  0.1301  0.1043  0.0844
  0.0844  0.0826

 Free energy of the ion-electron system (eV)
  ---------------------------------------------------
  alpha Z        PSCENC =      1069.12875734
  Ewald energy   TEWEN  =    -21105.00470767
  -Hartree energ DENC   =    -13801.23472484
  -exchange      EXHF   =         0.00000000
  -V(xc)+E(xc)   XCENC  =      1568.18721855
  PAW double counting   =     37148.47252377   -38450.82609523
  entropy T*S    EENTRO =        -0.03748847
  eigenvalues    EBANDS =     -1622.14178976
  atomic energy  EATOM  =     34890.38139807
  Solvation  Ediel_sol  =         0.00000000
  ---------------------------------------------------
  free energy    TOTEN  =      -303.07490824 eV

  energy without entropy =     -303.03741977  energy(sigma->0) =     -303.05616401


--------------------------------------------------------------------------------------------------------




--------------------------------------- Iteration      1(  18)  ---------------------------------------


    POTLOK:  cpu time    0.1655: real time    0.1659
    SETDIJ:  cpu time    0.0222: real time    0.0222
     EDDAV:  cpu time   94.6142: real time   94.8375
    CHARGE:  cpu time    3.6125: real time    3.6211
    MIXING:  cpu time    0.0067: real time    0.0067
    --------------------------------------------
      LOOP:  cpu time   98.4210: real time   98.6534

 eigenvalue-minimisations  : 35280
 total energy-change (2. order) : 0.6359568E+00  (-0.4050771E+00)
 number of electron     396.0000014 magnetization      13.5504228
 augmentation part      130.2303611 magnetization       7.7207543

 Broyden mixing:
  rms(total) = 0.11271E+01    rms(broyden)= 0.11267E+01
  rms(prec ) = 0.14119E+01
  weight for this iteration     100.00

 eigenvalues of (default mixing * dielectric matrix)
  average eigenvalue GAMMA=   0.4072
  1.0422  1.0422  0.7304  0.7304  0.4275  0.4275  0.2303  0.1931  0.1153  0.0849
  0.0849  0.0992  0.0858

 Free energy of the ion-electron system (eV)
  ---------------------------------------------------
  alpha Z        PSCENC =      1069.12875734
  Ewald energy   TEWEN  =    -21105.00470767
  -Hartree energ DENC   =    -13797.67610205
  -exchange      EXHF   =         0.00000000
  -V(xc)+E(xc)   XCENC  =      1568.15902750
  PAW double counting   =     37317.30572169   -38620.30419630
  entropy T*S    EENTRO =        -0.05049959
  eigenvalues    EBANDS =     -1624.37835042
  atomic energy  EATOM  =     34890.38139807
  Solvation  Ediel_sol  =         0.00000000
  ---------------------------------------------------
  free energy    TOTEN  =      -302.43895143 eV

  energy without entropy =     -302.38845184  energy(sigma->0) =     -302.41370164


--------------------------------------------------------------------------------------------------------




--------------------------------------- Iteration      1(  19)  ---------------------------------------


    POTLOK:  cpu time    0.1511: real time    0.1515
    SETDIJ:  cpu time    0.0209: real time    0.0210
     EDDAV:  cpu time   96.3909: real time   96.6185
    CHARGE:  cpu time    2.4441: real time    2.4499
    MIXING:  cpu time    0.0058: real time    0.0058
    --------------------------------------------
      LOOP:  cpu time   99.0129: real time   99.2467

 eigenvalue-minimisations  : 40672
 total energy-change (2. order) :-0.4811903E+00  (-0.2657295E+00)
 number of electron     396.0000014 magnetization      12.7947539
 augmentation part      130.3665453 magnetization       6.5528021

 Broyden mixing:
  rms(total) = 0.12126E+01    rms(broyden)= 0.12122E+01
  rms(prec ) = 0.16131E+01
  weight for this iteration     100.00

 eigenvalues of (default mixing * dielectric matrix)
  average eigenvalue GAMMA=   0.4390
  1.4803  0.9301  0.9301  0.7489  0.4371  0.4371  0.3336  0.2098  0.1690  0.1153
  0.0848  0.0848  0.1004  0.0850

 Free energy of the ion-electron system (eV)
  ---------------------------------------------------
  alpha Z        PSCENC =      1069.12875734
  Ewald energy   TEWEN  =    -21105.00470767
  -Hartree energ DENC   =    -13796.71455429
  -exchange      EXHF   =         0.00000000
  -V(xc)+E(xc)   XCENC  =      1568.20430128
  PAW double counting   =     37538.96070267   -38843.73762581
  entropy T*S    EENTRO =        -0.04993780
  eigenvalues    EBANDS =     -1624.08847546
  atomic energy  EATOM  =     34890.38139807
  Solvation  Ediel_sol  =         0.00000000
  ---------------------------------------------------
  free energy    TOTEN  =      -302.92014168 eV

  energy without entropy =     -302.87020388  energy(sigma->0) =     -302.89517278


--------------------------------------------------------------------------------------------------------




--------------------------------------- Iteration      1(  20)  ---------------------------------------


    POTLOK:  cpu time    0.1317: real time    0.1320
    SETDIJ:  cpu time    0.0179: real time    0.0179
     EDDAV:  cpu time   75.1727: real time   75.3545
    CHARGE:  cpu time    2.7776: real time    2.8372
    MIXING:  cpu time    0.0073: real time    0.0109
    --------------------------------------------
      LOOP:  cpu time   78.1073: real time   78.3526

 eigenvalue-minimisations  : 37344
 total energy-change (2. order) :-0.5033700E-01  (-0.2355275E+00)
 number of electron     396.0000013 magnetization      12.1241930
 augmentation part      130.2410781 magnetization       6.2824221

 Broyden mixing:
  rms(total) = 0.93446E+00    rms(broyden)= 0.93414E+00
  rms(prec ) = 0.12966E+01
  weight for this iteration     100.00

 eigenvalues of (default mixing * dielectric matrix)
  average eigenvalue GAMMA=   0.4593
  1.7213  0.9920  0.9920  0.8117  0.4376  0.4376  0.4365  0.2447  0.1988  0.1481
  0.0848  0.0848  0.1143  0.1003  0.0850

 Free energy of the ion-electron system (eV)
  ---------------------------------------------------
  alpha Z        PSCENC =      1069.12875734
  Ewald energy   TEWEN  =    -21105.00470767
  -Hartree energ DENC   =    -13799.78603361
  -exchange      EXHF   =         0.00000000
  -V(xc)+E(xc)   XCENC  =      1568.35942611
  PAW double counting   =     37691.53702040   -38999.31506172
  entropy T*S    EENTRO =        -0.04322843
  eigenvalues    EBANDS =     -1618.22804916
  atomic energy  EATOM  =     34890.38139807
  Solvation  Ediel_sol  =         0.00000000
  ---------------------------------------------------
  free energy    TOTEN  =      -302.97047868 eV

  energy without entropy =     -302.92725026  energy(sigma->0) =     -302.94886447


--------------------------------------------------------------------------------------------------------




--------------------------------------- Iteration      1(  21)  ---------------------------------------


    POTLOK:  cpu time    0.1508: real time    0.1512
    SETDIJ:  cpu time    0.0208: real time    0.0209
     EDDAV:  cpu time   97.8175: real time   98.0484
    CHARGE:  cpu time    3.7021: real time    3.7109
    MIXING:  cpu time    0.0105: real time    0.0389
    --------------------------------------------
      LOOP:  cpu time  101.7018: real time  101.9703

 eigenvalue-minimisations  : 36256
 total energy-change (2. order) : 0.9157562E-01  (-0.1467657E+00)
 number of electron     396.0000013 magnetization      11.6857130
 augmentation part      130.1153324 magnetization       5.5281977

 Broyden mixing:
  rms(total) = 0.75600E+00    rms(broyden)= 0.75579E+00
  rms(prec ) = 0.10273E+01
  weight for this iteration     100.00

 eigenvalues of (default mixing * dielectric matrix)
  average eigenvalue GAMMA=   0.4728
  1.9368  1.0517  1.0517  0.8046  0.5698  0.4383  0.4383  0.2893  0.2073  0.1812
  0.0848  0.0848  0.1257  0.1150  0.1007  0.0850

 Free energy of the ion-electron system (eV)
  ---------------------------------------------------
  alpha Z        PSCENC =      1069.12875734
  Ewald energy   TEWEN  =    -21105.00470767
  -Hartree energ DENC   =    -13801.59715027
  -exchange      EXHF   =         0.00000000
  -V(xc)+E(xc)   XCENC  =      1568.46901341
  PAW double counting   =     37797.76650603   -39107.19868809
  entropy T*S    EENTRO =        -0.03964984
  eigenvalues    EBANDS =     -1614.78438205
  atomic energy  EATOM  =     34890.38139807
  Solvation  Ediel_sol  =         0.00000000
  ---------------------------------------------------
  free energy    TOTEN  =      -302.87890306 eV

  energy without entropy =     -302.83925323  energy(sigma->0) =     -302.85907815


--------------------------------------------------------------------------------------------------------




--------------------------------------- Iteration      1(  22)  ---------------------------------------


    POTLOK:  cpu time    0.1648: real time    0.1652
    SETDIJ:  cpu time    0.0222: real time    0.0222
     EDDAV:  cpu time  103.3219: real time  103.5658
    CHARGE:  cpu time    3.7599: real time    3.7688
    MIXING:  cpu time    0.0082: real time    0.0082
    --------------------------------------------
      LOOP:  cpu time  107.2769: real time  107.5303

 eigenvalue-minimisations  : 38160
 total energy-change (2. order) : 0.7629509E-01  (-0.6954732E-01)
 number of electron     396.0000013 magnetization      11.2646932
 augmentation part      130.1086011 magnetization       5.5861602

 Broyden mixing:
  rms(total) = 0.52651E+00    rms(broyden)= 0.52635E+00
  rms(prec ) = 0.71838E+00
  weight for this iteration     100.00

 eigenvalues of (default mixing * dielectric matrix)
  average eigenvalue GAMMA=   0.4755
  2.1034  1.0456  0.9690  0.9690  0.5298  0.4378  0.4378  0.3964  0.2295  0.1997
  0.1732  0.0848  0.0848  0.0850  0.1002  0.1188  0.1188

 Free energy of the ion-electron system (eV)
  ---------------------------------------------------
  alpha Z        PSCENC =      1069.12875734
  Ewald energy   TEWEN  =    -21105.00470767
  -Hartree energ DENC   =    -13802.58097136
  -exchange      EXHF   =         0.00000000
  -V(xc)+E(xc)   XCENC  =      1568.60761763
  PAW double counting   =     37883.05715838   -39193.40184421
  entropy T*S    EENTRO =        -0.04128430
  eigenvalues    EBANDS =     -1612.94873184
  atomic energy  EATOM  =     34890.38139807
  Solvation  Ediel_sol  =         0.00000000
  ---------------------------------------------------
  free energy    TOTEN  =      -302.80260797 eV

  energy without entropy =     -302.76132368  energy(sigma->0) =     -302.78196582


--------------------------------------------------------------------------------------------------------




--------------------------------------- Iteration      1(  23)  ---------------------------------------


    POTLOK:  cpu time    0.1649: real time    0.1653
    SETDIJ:  cpu time    0.0218: real time    0.0219
     EDDAV:  cpu time  107.4079: real time  107.6615
    CHARGE:  cpu time    3.5278: real time    3.5362
    MIXING:  cpu time    0.0086: real time    0.0086
    --------------------------------------------
      LOOP:  cpu time  111.1310: real time  111.3934

 eigenvalue-minimisations  : 39984
 total energy-change (2. order) :-0.1467223E-01  (-0.5450794E-01)
 number of electron     396.0000013 magnetization      11.2523115
 augmentation part      130.2096377 magnetization       5.1545239

 Broyden mixing:
  rms(total) = 0.51460E+00    rms(broyden)= 0.51442E+00
  rms(prec ) = 0.70367E+00
  weight for this iteration     100.00

 eigenvalues of (default mixing * dielectric matrix)
  average eigenvalue GAMMA=   0.4652
  2.0325  1.0571  0.9664  0.9664  0.5501  0.5501  0.4374  0.4374  0.2581  0.2044
  0.1908  0.1402  0.0848  0.0848  0.0850  0.1003  0.1140  0.1140

 Free energy of the ion-electron system (eV)
  ---------------------------------------------------
  alpha Z        PSCENC =      1069.12875734
  Ewald energy   TEWEN  =    -21105.00470767
  -Hartree energ DENC   =    -13803.40244682
  -exchange      EXHF   =         0.00000000
  -V(xc)+E(xc)   XCENC  =      1568.66416405
  PAW double counting   =     37935.18608629   -39245.73566975
  entropy T*S    EENTRO =        -0.03964677
  eigenvalues    EBANDS =     -1611.99521493
  atomic energy  EATOM  =     34890.38139807
  Solvation  Ediel_sol  =         0.00000000
  ---------------------------------------------------
  free energy    TOTEN  =      -302.81728020 eV

  energy without entropy =     -302.77763343  energy(sigma->0) =     -302.79745681


--------------------------------------------------------------------------------------------------------




--------------------------------------- Iteration      1(  24)  ---------------------------------------


    POTLOK:  cpu time    0.1582: real time    0.1586
    SETDIJ:  cpu time    0.0224: real time    0.0225
     EDDAV:  cpu time   99.1466: real time   99.3806
    CHARGE:  cpu time    3.6856: real time    3.6943
    MIXING:  cpu time    0.0088: real time    0.0088
    --------------------------------------------
      LOOP:  cpu time  103.0216: real time  103.2648

 eigenvalue-minimisations  : 37280
 total energy-change (2. order) : 0.3379927E-01  (-0.4149955E-01)
 number of electron     396.0000013 magnetization      11.1779331
 augmentation part      130.1445319 magnetization       5.3479468

 Broyden mixing:
  rms(total) = 0.35154E+00    rms(broyden)= 0.35139E+00
  rms(prec ) = 0.47526E+00
  weight for this iteration     100.00

 eigenvalues of (default mixing * dielectric matrix)
  average eigenvalue GAMMA=   0.4716
  2.0099  1.2384  0.9417  0.9417  0.6684  0.6684  0.4360  0.4360  0.3036  0.2311
  0.2037  0.1726  0.0848  0.0848  0.0850  0.1306  0.0999  0.1118  0.1118

 Free energy of the ion-electron system (eV)
  ---------------------------------------------------
  alpha Z        PSCENC =      1069.12875734
  Ewald energy   TEWEN  =    -21105.00470767
  -Hartree energ DENC   =    -13804.06071776
  -exchange      EXHF   =         0.00000000
  -V(xc)+E(xc)   XCENC  =      1568.70038974
  PAW double counting   =     37946.97639622   -39257.44652019
  entropy T*S    EENTRO =        -0.04013849
  eigenvalues    EBANDS =     -1611.41833820
  atomic energy  EATOM  =     34890.38139807
  Solvation  Ediel_sol  =         0.00000000
  ---------------------------------------------------
  free energy    TOTEN  =      -302.78348093 eV

  energy without entropy =     -302.74334244  energy(sigma->0) =     -302.76341169


--------------------------------------------------------------------------------------------------------




--------------------------------------- Iteration      1(  25)  ---------------------------------------


    POTLOK:  cpu time    0.1654: real time    0.1658
    SETDIJ:  cpu time    0.0221: real time    0.0221
     EDDAV:  cpu time  103.5256: real time  103.7700
    CHARGE:  cpu time    3.7128: real time    3.7215
    MIXING:  cpu time    0.0095: real time    0.0095
    --------------------------------------------
      LOOP:  cpu time  107.4353: real time  107.6890

 eigenvalue-minimisations  : 38064
 total energy-change (2. order) : 0.1806548E-01  (-0.1677396E-01)
 number of electron     396.0000013 magnetization      11.1389514
 augmentation part      130.1564259 magnetization       5.1518469

 Broyden mixing:
  rms(total) = 0.21268E+00    rms(broyden)= 0.21259E+00
  rms(prec ) = 0.28487E+00
  weight for this iteration     100.00

 eigenvalues of (default mixing * dielectric matrix)
  average eigenvalue GAMMA=   0.4931
  2.1751  1.1999  1.1999  0.9246  0.9246  0.6415  0.4368  0.4368  0.4030  0.2633
  0.2103  0.1929  0.1570  0.0848  0.0848  0.0850  0.1236  0.1145  0.0995  0.1043

 Free energy of the ion-electron system (eV)
  ---------------------------------------------------
  alpha Z        PSCENC =      1069.12875734
  Ewald energy   TEWEN  =    -21105.00470767
  -Hartree energ DENC   =    -13804.82013914
  -exchange      EXHF   =         0.00000000
  -V(xc)+E(xc)   XCENC  =      1568.72688741
  PAW double counting   =     37955.86206359   -39266.24540373
  entropy T*S    EENTRO =        -0.04090983
  eigenvalues    EBANDS =     -1610.75336148
  atomic energy  EATOM  =     34890.38139807
  Solvation  Ediel_sol  =         0.00000000
  ---------------------------------------------------
[...]
  in kB      -53.4590427    -54.3031748    -62.5227694      8.6052778     12.0615121    -32.8939954
  external PRESSURE =     -56.7616623 kB  Pullay stress =       0.0000000 kB


 VOLUME and BASIS-vectors are now :
 -----------------------------------------------------------------------------
  energy-cutoff  :      500.00
  volume of cell :      648.83
      direct lattice vectors                 reciprocal lattice vectors
     8.781013500  0.000000000  0.000000000     0.113882071  0.065749844  0.000000000
    -4.390506750  7.604580760  0.000000000     0.000000000  0.131499688  0.000000000
     0.000000000  0.000000000  9.716479500     0.000000000  0.000000000  0.102917934

  length of vectors
     8.781013500  8.781013498  9.716479500     0.131499688  0.131499688  0.102917934


 FORCES acting on ions
    electron-ion (+dipol)            ewald-force                    non-local-force                 convergence-correction
 -----------------------------------------------------------------------------------------------
   0.121E+03 0.265E+03 0.300E+02   -.123E+03 -.264E+03 -.313E+02   0.153E+01 -.120E+01 0.715E+00   -.173E+00 -.171E-01 0.247E-01
   0.746E+02 0.229E+03 -.658E+02   -.766E+02 -.232E+03 0.643E+02   0.558E+00 -.820E+00 -.159E+00   -.174E-01 0.649E-03 -.361E-02
   0.213E+03 0.865E+02 0.873E+02   -.215E+03 -.873E+02 -.905E+02   -.749E+00 -.150E+00 0.469E+00   -.605E-01 0.136E+00 0.355E-01
   0.393E+02 0.888E+02 -.505E+02   -.408E+02 -.874E+02 0.491E+02   0.844E+00 -.605E+00 -.367E+00   -.533E-02 0.788E-02 -.110E-01
   0.108E+03 -.215E+02 0.116E+03   -.106E+03 0.210E+02 -.117E+03   -.200E+01 -.745E+00 -.140E+01   0.391E-02 -.229E+00 -.272E-01
   0.234E+03 0.830E+00 -.123E+02   -.240E+03 -.815E+01 0.993E+01   0.600E+00 0.114E+01 0.119E+01   -.637E-02 -.253E-01 0.422E-03
   -.843E+02 0.255E+03 0.938E+02   0.848E+02 -.258E+03 -.946E+02   0.936E+00 0.100E+01 -.857E-01   0.761E-02 -.526E-01 0.322E-01
   0.462E+02 0.145E+03 -.532E+02   -.448E+02 -.148E+03 0.533E+02   0.107E+01 0.433E+00 -.207E+01   -.140E-02 -.529E-02 -.283E-02
   -.614E+01 0.131E+02 0.403E+02   0.598E+01 -.119E+02 -.417E+02   0.197E+01 -.932E+00 -.145E+01   -.116E+00 0.198E+00 0.659E-01
   0.181E+02 -.756E+02 -.806E+01   -.153E+02 0.808E+02 0.572E+01   0.526E+00 -.547E+00 -.163E+00   -.148E-01 0.158E-01 -.113E-01
   0.984E+02 -.130E+03 0.634E+02   -.101E+03 0.132E+03 -.659E+02   0.495E+00 -.166E+01 0.135E+00   -.673E-01 -.139E+00 -.139E-01
   -.146E+03 -.593E+02 -.105E+03   0.156E+03 0.592E+02 0.108E+03   -.162E+01 -.577E+00 -.573E+00   -.337E-02 -.187E-01 0.188E-02
   -.747E+02 0.813E+02 0.360E+02   0.758E+02 -.816E+02 -.365E+02   0.133E+00 -.122E+01 -.156E+01   0.147E+00 0.544E-01 0.115E-01
   -.119E+03 0.172E+03 0.225E+02   0.120E+03 -.178E+03 -.215E+02   -.330E+00 -.120E+01 0.155E+00   0.204E-01 0.131E-01 -.276E-02
   -.135E+03 -.566E+02 0.119E+03   0.142E+03 0.616E+02 -.122E+03   -.224E+01 -.179E+01 -.175E+01   0.137E+00 0.238E+00 0.328E-01
   -.169E+03 -.405E+02 -.122E+03   0.174E+03 0.444E+02 0.121E+03   -.510E+00 -.467E+00 -.176E+01   0.235E-01 0.288E-01 -.110E-01
   -.164E+03 -.150E+03 0.106E+03   0.169E+03 0.152E+03 -.110E+03   -.162E+01 -.180E+01 -.181E+01   0.835E-01 -.315E-01 -.537E-02
   -.613E+02 -.988E+02 -.366E+02   0.625E+02 0.997E+02 0.367E+02   0.822E+00 0.652E-01 0.368E+00   0.818E-02 -.235E-02 0.429E-02
   0.622E+02 0.923E+02 -.348E+03   -.639E+02 -.944E+02 0.379E+03   0.164E+01 0.421E+00 -.300E+02   -.794E-01 0.790E-01 -.172E-02
   0.703E+02 0.993E+02 0.376E+03   -.699E+02 -.101E+03 -.403E+03   -.173E+01 0.881E+00 0.264E+02   -.188E-01 0.756E-02 0.167E-01
   0.862E+02 0.570E+02 -.425E+03   -.924E+02 -.553E+02 0.455E+03   0.290E+01 -.259E+01 -.282E+02   -.157E-01 0.149E-02 -.149E-01
   0.540E+02 0.103E+03 0.395E+03   -.560E+02 -.103E+03 -.424E+03   0.160E+01 -.134E+01 0.303E+02   -.970E-01 0.664E-01 -.762E-01
   0.403E+02 -.752E+02 -.249E+03   -.390E+02 0.811E+02 0.272E+03   -.442E+00 -.441E+01 -.224E+02   -.608E-01 -.428E-01 -.716E-01
   0.134E+02 0.233E+02 0.360E+03   -.142E+02 -.228E+02 -.383E+03   0.407E+00 -.178E+01 0.238E+02   -.111E-01 0.140E-02 -.141E-01
   0.551E+02 0.365E+02 -.437E+03   -.594E+02 -.384E+02 0.466E+03   0.231E+01 0.870E+00 -.268E+02   -.456E-02 -.308E-02 0.118E-01
   0.113E+02 -.119E+02 0.362E+03   -.770E+01 0.131E+02 -.385E+03   -.270E+01 -.972E+00 0.255E+02   -.740E-01 0.208E-01 0.447E-01
   0.524E+02 -.854E+01 -.256E+03   -.519E+02 0.116E+02 0.279E+03   -.110E+01 -.119E+01 -.249E+02   -.715E-01 -.179E+00 0.352E-01
   0.385E+02 -.105E+03 0.430E+03   -.405E+02 0.117E+03 -.463E+03   0.127E+00 -.734E+01 0.275E+02   -.379E-03 -.269E-01 0.228E-02
   0.137E+03 -.685E+02 -.382E+03   -.143E+03 0.757E+02 0.410E+03   0.362E+01 -.250E+01 -.234E+02   -.940E-02 -.183E-01 -.297E-03
   0.287E+02 -.555E+02 0.227E+03   -.266E+02 0.576E+02 -.239E+03   -.221E+01 -.222E+01 0.155E+02   -.333E-01 -.122E+00 -.180E-02
   0.397E+02 0.785E+02 -.332E+03   -.467E+02 -.819E+02 0.364E+03   0.334E+01 0.129E+01 -.312E+02   0.349E-01 0.145E+00 0.847E-01
   -.107E+02 0.604E+02 0.397E+03   0.652E+01 -.596E+02 -.425E+03   0.443E+01 -.813E+00 0.283E+02   0.148E-01 0.198E-01 0.170E-01
   0.536E+02 0.329E+02 -.427E+03   -.600E+02 -.335E+02 0.456E+03   0.417E+01 -.809E+00 -.250E+02   0.685E-02 0.195E-01 -.249E-01
   -.317E+02 0.798E+02 0.243E+03   0.336E+02 -.803E+02 -.258E+03   -.234E+01 0.320E+00 0.180E+02   0.881E-01 0.473E-01 -.564E-01
   0.459E+02 -.322E+02 -.310E+03   -.504E+02 0.302E+02 0.341E+03   0.845E+00 0.202E+01 -.285E+02   0.475E-02 0.131E-01 -.453E-02
   0.395E+02 -.585E+02 0.364E+03   -.425E+02 0.610E+02 -.390E+03   0.167E-01 -.229E+01 0.246E+02   0.127E-01 0.937E-02 -.187E-02
   0.357E+02 -.904E+01 -.391E+03   -.409E+02 0.726E+01 0.416E+03   0.281E+01 -.423E-02 -.244E+02   -.152E-02 0.421E-02 0.211E-02
   -.555E+01 -.121E+02 0.266E+03   0.439E+01 0.116E+02 -.281E+03   0.136E+01 0.572E+00 0.178E+02   0.344E-01 0.786E-01 0.589E-02
   0.660E+02 -.229E+02 -.212E+03   -.745E+02 0.233E+02 0.231E+03   0.887E+01 0.685E+00 -.206E+02   0.438E-01 -.737E-01 0.298E-01
   -.759E+01 -.832E+02 0.322E+03   0.528E+01 0.898E+02 -.342E+03   0.116E+01 -.612E+01 0.195E+02   0.503E-02 -.901E-02 0.674E-02
   -.456E+02 0.371E+01 -.365E+03   0.492E+02 -.385E+01 0.386E+03   -.462E+01 0.921E+00 -.216E+02   0.580E-02 -.175E-01 -.747E-02
   -.129E+02 -.120E+03 0.275E+03   0.154E+02 0.126E+03 -.292E+03   -.266E+01 -.695E+01 0.201E+02   0.275E-01 -.305E-01 -.496E-02
   -.109E+03 -.186E+02 -.227E+03   0.117E+03 0.245E+02 0.249E+03   -.714E+01 -.683E+01 -.215E+02   0.595E-01 0.826E-01 -.565E-02
   -.111E+03 0.392E+02 0.342E+03   0.120E+03 -.397E+02 -.366E+03   -.709E+01 0.253E+01 0.247E+02   0.649E-02 0.114E-01 -.243E-02
   -.725E+02 -.739E+01 -.418E+03   0.745E+02 0.971E+01 0.445E+03   -.162E+01 -.133E+01 -.284E+02   0.991E-02 0.202E-01 -.806E-02
   -.972E+01 0.865E+02 0.278E+03   0.795E+01 -.897E+02 -.296E+03   0.219E+01 0.331E+01 0.214E+02   0.337E-03 0.495E-01 0.123E-01
   -.103E+03 -.110E+03 -.227E+03   0.109E+03 0.114E+03 0.248E+03   -.611E+01 -.374E+01 -.224E+02   0.524E-01 0.182E-01 -.570E-01
   -.877E+01 0.111E+02 0.325E+03   0.478E+01 -.147E+02 -.344E+03   0.519E+01 0.213E+01 0.200E+02   0.169E-02 0.252E-03 -.205E-01
   -.648E+02 -.130E+03 -.352E+03   0.684E+02 0.141E+03 0.371E+03   -.383E+01 -.839E+01 -.173E+02   0.769E-02 -.191E-02 0.900E-02
   -.560E+02 -.384E+02 0.222E+03   0.572E+02 0.375E+02 -.234E+03   -.154E+01 0.126E+01 0.143E+02   0.402E-01 0.632E-01 0.427E-01
   -.753E+02 -.152E+03 -.211E+03   0.766E+02 0.163E+03 0.229E+03   -.101E+01 -.815E+01 -.185E+02   0.230E-01 -.347E-01 -.101E-01
   -.954E+02 -.127E+03 0.291E+03   0.104E+03 0.133E+03 -.311E+03   -.530E+01 -.350E+01 0.185E+02   0.567E-03 -.748E-02 -.480E-02
   -.399E+02 -.872E+02 -.332E+03   0.360E+02 0.927E+02 0.351E+03   0.418E+01 -.374E+01 -.184E+02   0.799E-02 -.227E-02 0.427E-02
   -.623E+02 -.103E+03 0.216E+03   0.624E+02 0.105E+03 -.229E+03   -.105E+00 -.159E+01 0.148E+02   0.131E-01 -.546E-01 0.224E-01
 -----------------------------------------------------------------------------------------------
   -.418E-01 0.721E+02 0.524E+02   0.895E-12 0.455E-12 -.654E-12   0.441E-01 -.725E+02 -.525E+02   -.105E-01 0.307E+00 0.784E-01
 
 
 POSITION                                       TOTAL-FORCE (eV/Angst)
 -----------------------------------------------------------------------------------
     -0.00545      0.06743      0.03466        -0.773801     -0.568917     -0.536817
      8.69826      0.05347      4.74973        -1.454680     -4.520375     -1.603993
     -1.35349      2.43337      9.68611        -3.334485     -0.824669     -2.656936
      7.21557      2.37454      4.75427        -0.641653      0.722339     -1.835783
     -2.86695      5.00423      0.00605        -0.583430     -1.494674     -2.192255
     -2.82908      4.92438      4.66119        -5.398860     -6.204983     -1.197626
      2.61380      0.15939      9.68635         1.415856     -2.106100     -0.875190
     -1.60882      7.54129      4.73364         2.433972     -2.075314     -2.040415
      1.29920      2.26884      0.09349         1.689861      0.480786     -2.817926
      1.29279      2.33705      4.71286         3.242047      4.606797     -2.509104
      0.20054      4.83652      9.63413        -2.477145      0.672052     -2.330970
     -0.18864      4.91354      4.73675         8.545118     -0.689389      1.856486
      5.59193      0.05622      0.16643         1.366477     -1.502066     -1.998740
      5.60523      0.17980      4.53646         0.331351     -6.677501      1.145170
      4.06727      2.33406      0.13902         4.768184      3.450732     -5.203311
      4.14066      2.26701      4.79844         4.786057      3.542748     -3.147303
      2.74169      4.78276      0.04058         3.953479      0.161138     -6.058626
      2.71065      4.82432      4.67355         2.069995      0.985338      0.439754
     -0.13003      1.76127      1.03389        -0.153036     -1.643246      0.502472
      1.42157      0.75985      3.78818        -1.333938     -1.201194     -0.210871
      0.05196      1.60308      5.55833        -3.250597     -0.852641      2.388065
      1.39835      0.94951      8.50823        -0.498165     -0.970175      2.132638
     -1.47982      3.99689      0.72800         0.797339      1.459341      0.267029
     -0.07101      3.28099      3.81413        -0.425340     -1.287557      0.377165
     -1.39481      4.00982      5.60622        -1.984230     -1.010460      1.554294
     -0.20471      3.19623      8.48167         0.873848      0.313947      1.996927
     -2.75188      6.44441      0.97116        -0.691169      1.659249     -1.216078
     -1.42395      5.42776      3.85977        -1.876111      3.867342     -5.443219
     -2.66193      6.32969      5.42685        -2.350118      4.612481      4.099605
     -1.43103      5.64325      8.27070        -0.226408     -0.226358      2.801111
      2.98224      1.60150      1.08620        -3.642927     -2.042359      1.780932
      4.09805      0.76412      3.73454         0.276614     -0.052702     -0.132408
      2.76646      1.57965      5.45581        -2.200959     -1.368165      4.100330
      4.23837      0.81772      8.21551        -0.340997     -0.156790      2.865456
      1.60818      3.84970      0.82150        -3.616399      0.006770      2.053646
      3.01051      3.13067      3.77365        -3.006032      0.297728     -0.668242
      1.45180      4.11917      5.60980        -2.347218     -1.779159      0.326997
      2.88058      3.20804      8.18956         0.225950      0.200299      2.991932
      0.00331      6.39388      0.93177         0.443113      0.988837     -1.372857
      1.35042      5.67301      3.80517        -1.142610      0.418969     -0.508203
     -0.02897      6.65886      5.50504        -1.090938      0.760651     -0.041917
      1.46158      5.58177      8.25438        -0.196141     -0.832644      3.255961
      5.59641      1.74218      0.93253         0.710824     -0.885120     -0.455473
      6.96410      0.67017      3.61530         2.193217      2.085037      0.974195
      5.69562      1.51671      5.69388         0.376329      1.018539     -0.609787
      7.02747      0.79498      8.49723         0.416070      0.183034      3.424336
      4.24501      4.02517      0.97290        -0.116887      0.209138     -1.328244
      5.67050      3.30577      3.70560         1.203074     -1.453661      1.737957
      4.29560      3.88161      5.43512        -0.152663      2.225205      2.185430
      5.42299      3.11320      8.29702        -0.255846      0.364507      2.338556
      2.63267      6.27164      0.81480         0.233537      3.338544      0.281059
      4.03242      5.55344      3.85453         2.910825      2.259463     -1.017490
      2.76200      6.46016      5.55032         0.274139      1.777381     -0.185449
      4.09552      5.47789      8.22784         0.025505     -0.242173      2.317732
 -----------------------------------------------------------------------------------
    total drift:                               -0.008165     -0.006710      0.011896


--------------------------------------------------------------------------------------------------------



  FREE ENERGIE OF THE ION-ELECTRON SYSTEM (eV)
  ---------------------------------------------------
  free  energy   TOTEN  =      -302.7769840066 eV

  energy  without entropy=     -302.7382670054  energy(sigma->0) =     -302.75762551
 


--------------------------------------------------------------------------------------------------------


    POTLOK:  cpu time    0.1871: real time    0.1876


--------------------------------------------------------------------------------------------------------


     LOOP+:  cpu time 7919.3972: real time 7939.1741
    4ORBIT:  cpu time    0.0000: real time    0.0000

volume of typ            1:    17.7 %

volume of typ            2:     9.0 %
 
total charge     
 
# of ion       s       p       d       tot
------------------------------------------
    1        0.191   0.168   7.864   8.222
    2        0.239   0.249   7.854   8.342
    3        0.289   0.352   7.829   8.469
    4        0.251   0.295   7.811   8.356
    5        0.244   0.258   7.813   8.315
    6        0.321   0.436   7.860   8.618
    7        0.244   0.259   7.864   8.367
    8        0.304   0.395   7.843   8.541
    9        0.280   0.347   7.872   8.499
   10        0.311   0.420   7.845   8.576
   11        0.243   0.279   7.797   8.319
   12        0.333   0.473   7.850   8.656
   13        0.235   0.237   7.795   8.267
   14        0.304   0.387   7.826   8.517
   15        0.298   0.376   7.839   8.514
   16        0.334   0.479   7.857   8.670
   17        0.310   0.400   7.824   8.533
   18        0.322   0.469   7.808   8.599
   19        1.284   2.727   0.011   4.022
   20        1.284   2.724   0.008   4.017
   21        1.281   2.766   0.013   4.060
   22        1.294   2.669   0.008   3.972
   23        1.284   2.714   0.009   4.007
   24        1.291   2.693   0.007   3.990
   25        1.290   2.723   0.010   4.023
   26        1.302   2.636   0.006   3.944
   27        1.287   2.688   0.008   3.982
   28        1.294   2.776   0.016   4.086
   29        1.281   2.781   0.013   4.075
   30        1.312   2.553   0.002   3.867
   31        1.290   2.739   0.013   4.042
   32        1.287   2.734   0.010   4.031
   33        1.281   2.786   0.014   4.080
   34        1.318   2.542   0.002   3.862
   35        1.279   2.772   0.013   4.065
   36        1.295   2.696   0.008   3.998
   37        1.286   2.718   0.008   4.011
   38        1.320   2.539   0.002   3.862
   39        1.291   2.657   0.005   3.953
   40        1.293   2.671   0.006   3.969
   41        1.287   2.690   0.006   3.983
   42        1.314   2.564   0.003   3.881
   43        1.287   2.687   0.007   3.981
   44        1.291   2.684   0.007   3.982
   45        1.288   2.698   0.008   3.995
   46        1.303   2.596   0.003   3.902
   47        1.294   2.651   0.005   3.951
   48        1.297   2.646   0.004   3.947
   49        1.292   2.692   0.007   3.992
   50        1.317   2.536   0.002   3.855
   51        1.290   2.683   0.007   3.981
   52        1.295   2.667   0.006   3.969
   53        1.300   2.628   0.004   3.932
   54        1.317   2.535   0.002   3.854
--------------------------------------------------
tot          51.65  102.54  141.31  295.50
 
magnetization (x)
 
# of ion       s       p       d       tot
------------------------------------------
    1       -0.004   0.005   1.384   1.386
    2       -0.000  -0.002  -0.060  -0.062
    3       -0.004  -0.007  -0.054  -0.065
    4       -0.001  -0.001  -0.018  -0.019
    5       -0.006  -0.006   0.593   0.581
    6       -0.002  -0.005  -0.255  -0.262
    7       -0.005   0.000   0.568   0.564
    8        0.001   0.001  -0.007  -0.005
    9       -0.001   0.001   0.531   0.531
   10        0.000  -0.000  -0.003  -0.003
   11       -0.004  -0.005  -0.059  -0.068
   12        0.000   0.000  -0.006  -0.005
   13       -0.003   0.002   0.838   0.837
   14       -0.000  -0.002   0.018   0.016
   15       -0.006  -0.017   0.028   0.005
   16       -0.001  -0.001   0.011   0.009
   17       -0.004  -0.016  -0.019  -0.040
   18       -0.001  -0.003   0.013   0.010
   19        0.004   0.159  -0.000   0.163
   20       -0.000  -0.009  -0.000  -0.010
   21       -0.001  -0.017   0.000  -0.017
   22        0.006   0.241  -0.000   0.247
   23        0.003   0.076   0.000   0.079
   24        0.000   0.002  -0.000   0.002
   25       -0.003  -0.075  -0.000  -0.077
   26        0.003   0.120  -0.000   0.122
   27        0.006   0.186   0.000   0.192
   28       -0.001  -0.038  -0.000  -0.039
   29       -0.002  -0.108   0.000  -0.110
   30        0.011   0.617  -0.000   0.628
   31        0.002   0.050  -0.000   0.053
   32       -0.001  -0.022   0.000  -0.022
   33       -0.000   0.009  -0.000   0.009
   34        0.014   0.769  -0.000   0.783
   35       -0.001  -0.055   0.000  -0.056
   36       -0.000  -0.001  -0.000  -0.001
   37        0.000   0.003   0.000   0.004
   38        0.011   0.625   0.000   0.636
   39        0.004   0.137   0.000   0.140
   40        0.000   0.008  -0.000   0.008
   41       -0.000  -0.003   0.000  -0.003
   42        0.007   0.434  -0.000   0.441
   43        0.003   0.165  -0.000   0.168
   44        0.002   0.112  -0.000   0.114
   45        0.000   0.001  -0.000   0.001
   46        0.006   0.321  -0.000   0.327
   47        0.001  -0.004   0.000  -0.002
   48        0.001   0.080  -0.000   0.082
   49        0.003   0.188  -0.000   0.191
   50        0.013   0.669   0.000   0.682
   51        0.007   0.231  -0.000   0.238
   52        0.002   0.133  -0.000   0.134
   53        0.002   0.114  -0.000   0.116
   54        0.016   0.828   0.000   0.844
--------------------------------------------------
tot           0.08    5.89    3.50    9.47
 

 total amount of memory used by VASP MPI-rank0   344387. kBytes
=======================================================================

   base      :      30000. kBytes
   nonlr-proj:      28688. kBytes
   fftplans  :       6224. kBytes
   grid      :      35651. kBytes
   one-center:       1679. kBytes
   wavefun   :     242145. kBytes
 
  
  
 General timing and accounting informations for this job:
 ========================================================
  
                  Total CPU time used (sec):     7978.792
                            User time (sec):     7965.568
                          System time (sec):       13.225
                         Elapsed time (sec):     8002.933
  
                   Maximum memory used (kb):      429624.
                   Average memory used (kb):           0.
  
                          Minor page faults:        44898
                          Major page faults:           28
                 Voluntary context switches:         1225
