 vasp.5.4.4.18Apr17-6-g9f103f2a35 (build May 12 2020 04:58:55) complex          
  
 MD_VERSION_INFO: Compiled 2020-05-12T11:58:55-UTC in devlin.sd.materialsdesign.
 com:/home/medea2/data/build/wwolf/vasp-gpu5.4.4/13047/x86_64/src/src/build/std 
 from svn 13047
 
 This VASP executable licensed from Materials Design, Inc.
 
 executed on                        Lin64 date 2023.03.24  23:41:01
 running on   16 total cores
 distrk:  each k-point on   16 cores,    1 groups
 distr:  one band on NCORES_PER_BAND=   1 cores,   16 groups


--------------------------------------------------------------------------------------------------------


 INCAR:
 POTCAR:    PAW_PBE Ni 02Aug2007                  
 POTCAR:    PAW_PBE O 08Apr2002                   

 ----------------------------------------------------------------------------- 
|                                                                             |
|           W    W    AA    RRRRR   N    N  II  N    N   GGGG   !!!           |
|           W    W   A  A   R    R  NN   N  II  NN   N  G    G  !!!           |
|           W    W  A    A  R    R  N N  N  II  N N  N  G       !!!           |
|           W WW W  AAAAAA  RRRRR   N  N N  II  N  N N  G  GGG   !            |
|           WW  WW  A    A  R   R   N   NN  II  N   NN  G    G                |
|           W    W  A    A  R    R  N    N  II  N    N   GGGG   !!!           |
|                                                                             |
|      For optimal performance we recommend to set                            |
|        NCORE= 4 - approx SQRT( number of cores)                             |
|      NCORE specifies how many cores store one orbital (NPAR=cpu/NCORE).     |
|      This setting can  greatly improve the performance of VASP for DFT.     |
|      The default,   NCORE=1            might be grossly inefficient         |
|      on modern multi-core architectures or massively parallel machines.     |
|      Do your own testing !!!!                                               |
|      Unfortunately you need to use the default for GW and RPA calculations. |
|      (for HF NCORE is supported but not extensively tested yet)             |
|                                                                             |
 ----------------------------------------------------------------------------- 

 POTCAR:    PAW_PBE Ni 02Aug2007                  
  local pseudopotential read in
  partial core-charges read in
  partial kinetic energy density read in
  atomic valenz-charges read in
  non local Contribution for L=           2  read in
    real space projection operators read in
  non local Contribution for L=           2  read in
    real space projection operators read in
  non local Contribution for L=           0  read in
    real space projection operators read in
  non local Contribution for L=           0  read in
    real space projection operators read in
  non local Contribution for L=           1  read in
    real space projection operators read in
  non local Contribution for L=           1  read in
    real space projection operators read in
    PAW grid and wavefunctions read in
 
   number of l-projection  operators is LMAX  =           6
   number of lm-projection operators is LMMAX =          18
 
 POTCAR:    PAW_PBE O 08Apr2002                   
  local pseudopotential read in
  partial core-charges read in
  partial kinetic energy density read in
  kinetic energy density of atom read in
  atomic valenz-charges read in
  non local Contribution for L=           0  read in
    real space projection operators read in
  non local Contribution for L=           0  read in
    real space projection operators read in
  non local Contribution for L=           1  read in
    real space projection operators read in
  non local Contribution for L=           1  read in
    real space projection operators read in
    PAW grid and wavefunctions read in
 
   number of l-projection  operators is LMAX  =           4
   number of lm-projection operators is LMMAX =           8
 
 Optimization of the real space projectors (new method)

 maximal supplied QI-value         = 16.25
 optimisation between [QCUT,QGAM] = [ 11.38, 22.75] = [ 36.24,144.96] Ry 
 Optimized for a Real-space Cutoff    1.47 Angstroem

   l    n(q)    QCUT    max X(q) W(low)/X(q) W(high)/X(q)  e(spline) 
   2      9    11.376    60.317    0.17E-03    0.16E-04    0.16E-06
   2      9    11.376    55.921    0.17E-03    0.16E-04    0.17E-06
   0     10    11.376    51.690    0.45E-04    0.60E-04    0.21E-06
   0     10    11.376    30.015    0.37E-04    0.55E-04    0.19E-06
   1     10    11.376    18.849    0.83E-04    0.11E-03    0.92E-07
   1     10    11.376    14.624    0.69E-04    0.92E-04    0.82E-07
 Optimization of the real space projectors (new method)

 maximal supplied QI-value         = 24.76
 optimisation between [QCUT,QGAM] = [ 11.39, 22.77] = [ 36.31,145.25] Ry 
 Optimized for a Real-space Cutoff    1.10 Angstroem

   l    n(q)    QCUT    max X(q) W(low)/X(q) W(high)/X(q)  e(spline) 
   0      7    11.387    20.381    0.22E-03    0.48E-03    0.18E-06
   0      7    11.387    15.268    0.22E-03    0.52E-03    0.19E-06
   1      7    11.387     5.964    0.22E-03    0.73E-03    0.24E-06
   1      7    11.387     5.382    0.19E-03    0.60E-03    0.21E-06

 ----------------------------------------------------------------------------- 
|                                                                             |
|  ADVICE TO THIS USER RUNNING 'VASP/VAMP'   (HEAR YOUR MASTER'S VOICE ...):  |
|                                                                             |
|      You enforced a specific xc-type in the INCAR file,                     |
|      a different type was found on the POTCAR file                          |
|          I HOPE YOU KNOW, WHAT YOU ARE  DOING                               |
|                                                                             |
 ----------------------------------------------------------------------------- 

  PAW_PBE Ni 02Aug2007                  :
 energy of atom  1       EATOM=-1077.6739
 kinetic energy error for atom=    0.0030 (will be added to EATOM!!)
  PAW_PBE O 08Apr2002                   :
 energy of atom  2       EATOM= -432.3788
 kinetic energy error for atom=    0.0224 (will be added to EATOM!!)
 
 
 POSCAR: NiO2_C2_m_scale_0_975_disp_0_20_round_2 
  positions in direct lattice
  No initial velocities read in
 exchange correlation table for  LEXCH =       14
   RHO(1)=    0.500       N(1)  =     2000
   RHO(2)=  100.500       N(2)  =     4000
 


--------------------------------------------------------------------------------------------------------


 ion  position               nearest neighbor table
   1  0.997  0.010  0.997-  54 1.46  46 1.66  19 1.70  22 1.76  51 1.96  27 2.00  13 2.09   3 2.64
                             5 2.76   7 2.82  17 2.85   9 2.90
   2  0.986  0.994  0.521-  53 1.59  44 1.71  20 1.77  29 1.84  52 1.87  21 1.90  14 2.02  18 2.49
                            10 2.71   8 2.77   6 2.88   4 2.94
   3  0.017  0.342  0.998-  26 1.48  19 1.51  43 1.55  50 1.72  46 1.78  23 1.82  13 2.33  11 2.47
                             1 2.64  15 2.69   5 2.78   9 2.85
   4  0.056  0.384  0.541-  25 1.26  21 1.71  24 1.86  45 1.98  48 2.02  12 2.16  44 2.33   6 2.42
                            10 2.59  16 2.65  14 2.80   2 2.94
   5  0.993  0.670  0.982-  47 1.34  23 1.63  50 1.76  54 1.77  27 2.08  30 2.09  15 2.61  17 2.65
                            11 2.72   1 2.76   3 2.78   7 2.97
   6  0.024  0.662  0.507-  25 1.39  48 1.76  52 1.77  49 1.83  28 1.84   4 2.42  12 2.43  16 2.55
                             8 2.74   2 2.88  18 2.94
   7  0.355  0.036  0.995-  22 1.38  27 1.52  30 1.60  39 1.75  31 1.79  34 2.33   9 2.48  15 2.59
                             1 2.82   5 2.97  11 3.01
   8  0.332  0.017  0.474-  20 1.67  32 1.77  28 1.82  41 1.85  33 2.20  29 2.23  10 2.45   6 2.74
                             2 2.77  16 2.94  12 2.95
   9  0.369  0.347  0.992-  38 1.49  22 1.71  31 1.88  35 1.96  19 1.98  26 2.22  17 2.43   7 2.48
                            15 2.62  11 2.76   3 2.85   1 2.90
  10  0.331  0.312  0.519-  33 1.57  21 1.59  24 1.94  20 1.95  36 1.96  37 2.38   8 2.45   4 2.59
                             2 2.71  12 2.81  18 2.99  16 3.02
  11  0.311  0.649  0.034-  35 1.56  23 1.62  26 1.74  39 1.87  42 2.14  30 2.28   3 2.47   5 2.72
                             9 2.76  17 2.89   7 3.01
  12  0.314  0.647  0.499-  28 1.66  40 1.78  37 1.91  24 2.02  25 2.03   4 2.16  41 2.26   6 2.43
                            10 2.81  18 2.87   8 2.95
  13  0.756  0.037  0.996-  46 1.25  51 1.84  34 1.88  43 1.91  42 1.92   1 2.09   3 2.33  15 2.79
                            17 2.85
  14  0.749  0.015  0.523-  44 1.51  53 1.65  45 1.85  40 1.98   2 2.02  41 2.15  32 2.16  18 2.43
                             4 2.80  16 2.84
  15  0.685  0.339  0.984-  50 1.62  47 1.82  31 1.96  38 1.99  34 2.00  43 2.14   7 2.59   5 2.61
                             9 2.62  17 2.65   3 2.69  13 2.79
  16  0.716  0.344  0.504-  48 1.60  45 1.61  49 1.90  36 1.92  32 2.14  33 2.19  25 2.46   6 2.55
                             4 2.65  14 2.84   8 2.94  18 3.00  10 3.02
  17  0.659  0.650  0.974-  38 1.19  42 1.36  47 1.73  54 1.91  35 2.14  51 2.22   9 2.43   5 2.65
                            15 2.65  13 2.85   1 2.85  11 2.89
  18  0.681  0.690  0.547-  37 1.48  49 1.51  53 1.58  52 1.96  36 1.99  40 2.06  14 2.43   2 2.49
                            12 2.87   6 2.94  10 2.99  16 3.00
  19  0.105  0.235  0.065-   3 1.51   1 1.70   9 1.98
  20  0.186  0.083  0.402-   8 1.67   2 1.77  10 1.95
  21  0.137  0.240  0.604-  10 1.59   4 1.71   2 1.90
  22  0.240  0.109  0.957-   7 1.38  27 1.71   9 1.71   1 1.76
  23  0.092  0.573  0.078-  11 1.62   5 1.63   3 1.82
  24  0.210  0.403  0.383-   4 1.86  10 1.94  12 2.02
  25  0.048  0.527  0.584-   4 1.26   6 1.39  48 1.93  12 2.03  16 2.46
  26  0.190  0.462  0.911-   3 1.48  11 1.74   9 2.22
  27  0.173  0.929  0.081-   7 1.52  22 1.71   1 2.00   5 2.08
  28  0.248  0.779  0.403-  12 1.66   8 1.82   6 1.84
  29  0.131  0.961  0.660-   2 1.84   8 2.23
  30  0.260  0.851  0.892-   7 1.60   5 2.09  11 2.28
  31  0.467  0.234  0.119-   7 1.79   9 1.88  15 1.96
  32  0.555  0.072  0.401-   8 1.77  16 2.14  14 2.16
  33  0.452  0.261  0.624-  10 1.57  16 2.19   8 2.20
  34  0.629  0.113  0.862-  13 1.88  15 2.00   7 2.33
  35  0.420  0.564  0.117-  11 1.56   9 1.96  17 2.14
  36  0.579  0.458  0.423-  16 1.92  10 1.96  18 1.99
  37  0.496  0.625  0.618-  18 1.48  12 1.91  10 2.38
  38  0.561  0.489  0.938-  17 1.19   9 1.49  15 1.99
  39  0.405  0.894  0.110-   7 1.75  11 1.87
  40  0.541  0.792  0.420-  12 1.78  14 1.98  18 2.06
  41  0.469  0.944  0.593-   8 1.85  14 2.15  12 2.26
  42  0.595  0.773  0.953-  17 1.36  13 1.92  11 2.14
  43  0.855  0.261  0.114-   3 1.55  13 1.91  15 2.14
  44  0.902  0.103  0.406-  14 1.51   2 1.71   4 2.33
  45  0.791  0.237  0.610-  16 1.61  14 1.85   4 1.98
  46  0.895  0.116  0.912-  13 1.25   1 1.66   3 1.78
  47  0.819  0.586  0.041-   5 1.34  17 1.73  15 1.82
  48  0.903  0.451  0.404-  16 1.60   6 1.76  25 1.93   4 2.02
  49  0.788  0.588  0.580-  18 1.51   6 1.83  16 1.90  52 1.93
  50  0.895  0.438  0.913-  15 1.62   3 1.72   5 1.76
  51  0.784  0.888  0.135-  13 1.84   1 1.96  17 2.22
  52  0.904  0.766  0.421-   6 1.77   2 1.87  49 1.93  18 1.96
  53  0.807  0.886  0.628-  18 1.58   2 1.59  14 1.65
  54  0.916  0.827  0.921-   1 1.46   5 1.77  17 1.91
 
  LATTYP: Found a hexagonal cell.
 ALAT       =     8.1537982509
 C/A-ratio  =     1.1065328050
  
  Lattice vectors:
  
 A1 = (   8.1537982500,   0.0000000000,   0.0000000000)
 A2 = (  -4.0768991200,   7.0613964200,   0.0000000000)
 A3 = (   0.0000000000,   0.0000000000,   9.0224452500)


Analysis of symmetry for initial positions (statically):
=====================================================================
 Subroutine PRICEL returns:
 Original cell was already a primitive cell.
 

 Routine SETGRP: Setting up the symmetry group for a 
 hexagonal supercell.


 Subroutine GETGRP returns: Found  1 space group operations
 (whereof  1 operations were pure point group operations)
 out of a pool of 24 trial point group operations.


The static configuration has the point symmetry C_1 .


Analysis of symmetry for dynamics (positions and initial velocities):
=====================================================================
 Subroutine PRICEL returns:
 Original cell was already a primitive cell.
 

 Routine SETGRP: Setting up the symmetry group for a 
 hexagonal supercell.


 Subroutine GETGRP returns: Found  1 space group operations
 (whereof  1 operations were pure point group operations)
 out of a pool of 24 trial point group operations.


The dynamic configuration has the point symmetry C_1 .


Analysis of structural, dynamic, and magnetic symmetry:
=====================================================================
 Subroutine PRICEL returns:
 Original cell was already a primitive cell.
 

 Routine SETGRP: Setting up the symmetry group for a 
 hexagonal supercell.


 Subroutine GETGRP returns: Found  1 space group operations
 (whereof  1 operations were pure point group operations)
 out of a pool of 24 trial point group operations.


The magnetic configuration has the point symmetry C_1 .


 Subroutine INISYM returns: Found  1 space group operations
 (whereof  1 operations are pure point group operations),
 and found     1 'primitive' translations

 
 
 KPOINTS: Automatic mesh                          

Automatic generation of k-mesh.
Space group operators:
 irot       det(A)        alpha          n_x          n_y          n_z        tau_x        tau_y        tau_z
    1     1.000000     0.000001     1.000000     0.000000     0.000000     0.000000     0.000000     0.000000
 
 Subroutine IBZKPT returns following result:
 ===========================================
 
 Found     26 irreducible k-points:
 
 Following reciprocal coordinates:
            Coordinates               Weight
  0.000000  0.000000  0.000000      1.000000
  0.250000 -0.000000  0.000000      2.000000
  0.500000 -0.000000  0.000000      1.000000
  0.000000  0.250000  0.000000      2.000000
  0.250000  0.250000  0.000000      2.000000
  0.500000  0.250000  0.000000      2.000000
 -0.250000  0.250000  0.000000      2.000000
  0.000000  0.500000  0.000000      1.000000
  0.250000  0.500000  0.000000      2.000000
  0.500000  0.500000  0.000000      1.000000
  0.000000  0.000000  0.333333      2.000000
  0.250000 -0.000000  0.333333      2.000000
  0.500000 -0.000000  0.333333      2.000000
 -0.250000  0.000000  0.333333      2.000000
  0.000000  0.250000  0.333333      2.000000
  0.250000  0.250000  0.333333      2.000000
  0.500000  0.250000  0.333333      2.000000
 -0.250000  0.250000  0.333333      2.000000
  0.000000  0.500000  0.333333      2.000000
  0.250000  0.500000  0.333333      2.000000
  0.500000  0.500000  0.333333      2.000000
 -0.250000  0.500000  0.333333      2.000000
  0.000000 -0.250000  0.333333      2.000000
  0.250000 -0.250000  0.333333      2.000000
  0.500000 -0.250000  0.333333      2.000000
 -0.250000 -0.250000  0.333333      2.000000
 
 Following cartesian coordinates:
            Coordinates               Weight
  0.000000  0.000000  0.000000      1.000000
  0.030661  0.017702  0.000000      2.000000
  0.061321  0.035404  0.000000      1.000000
  0.000000  0.035404  0.000000      2.000000
  0.030661  0.053106  0.000000      2.000000
  0.061321  0.070808  0.000000      2.000000
 -0.030661  0.017702  0.000000      2.000000
  0.000000  0.070808  0.000000      1.000000
  0.030661  0.088509  0.000000      2.000000
  0.061321  0.106211  0.000000      1.000000
  0.000000  0.000000  0.036945      2.000000
  0.030661  0.017702  0.036945      2.000000
  0.061321  0.035404  0.036945      2.000000
 -0.030661 -0.017702  0.036945      2.000000
  0.000000  0.035404  0.036945      2.000000
  0.030661  0.053106  0.036945      2.000000
  0.061321  0.070808  0.036945      2.000000
 -0.030661  0.017702  0.036945      2.000000
  0.000000  0.070808  0.036945      2.000000
  0.030661  0.088509  0.036945      2.000000
  0.061321  0.106211  0.036945      2.000000
 -0.030661  0.053106  0.036945      2.000000
  0.000000 -0.035404  0.036945      2.000000
  0.030661 -0.017702  0.036945      2.000000
  0.061321 -0.000000  0.036945      2.000000
 -0.030661 -0.053106  0.036945      2.000000
 


--------------------------------------------------------------------------------------------------------




 Dimension of arrays:
   k-points           NKPTS =     26   k-points in BZ     NKDIM =     26   number of bands    NBANDS=    272
   number of dos      NEDOS =    301   number of ions     NIONS =     54
   non local maximal  LDIM  =      6   non local SUM 2l+1 LMDIM =     18
   total plane-waves  NPLWV = 252000
   max r-space proj   IRMAX =   6562   max aug-charges    IRDMAX=  15922
   dimension x,y,z NGX =    60 NGY =   60 NGZ =   70
   dimension x,y,z NGXF=   120 NGYF=  120 NGZF=  140
   support grid    NGXF=   120 NGYF=  120 NGZF=  140
   ions per type =              18  36
   NGX,Y,Z   is equivalent  to a cutoff of  12.23, 12.23, 12.90 a.u.
   NGXF,Y,Z  is equivalent  to a cutoff of  24.47, 24.47, 25.80 a.u.

 SYSTEM =  unknown system                          
 POSCAR =  NiO2_C2_m_scale_0_975_disp_0_20_round_2 

 Startparameter for this run:
   NWRITE =      1    write-flag & timer
   PREC   = accura    normal or accurate (medium, high low for compatibility)
   ISTART =      0    job   : 0-new  1-cont  2-samecut
   ICHARG =      2    charge: 1-file 2-atom 10-const
   ISPIN  =      2    spin polarized calculation?
   LNONCOLLINEAR =      F non collinear calculations
   LSORBIT =      F    spin-orbit coupling
   INIWAV =      1    electr: 0-lowe 1-rand  2-diag
   LASPH  =      F    aspherical Exc in radial PAW
   METAGGA=      F    non-selfconsistent MetaGGA calc.

 Electronic Relaxation 1
   ENCUT  =  500.0 eV  36.75 Ry    6.06 a.u.  14.87 14.87 16.45*2*pi/ulx,y,z
   ENINI  =  500.0     initial cutoff
   ENAUG  =  605.4 eV  augmentation charge cutoff
   NELM   =     80;   NELMIN=  2; NELMDL= -5     # of ELM steps 
   EDIFF  = 0.1E-04   stopping-criterion for ELM
   LREAL  =      T    real-space projection
   NLSPLINE    = F    spline interpolate recip. space projectors
   LCOMPAT=      F    compatible to vasp.4.4
   GGA_COMPAT  = T    GGA compatible to vasp.4.4-vasp.4.6
   LMAXPAW     = -100 max onsite density
   LMAXMIX     =    2 max onsite mixed and CHGCAR
   VOSKOWN=      1    Vosko Wilk Nusair interpolation
   ROPT   =   -0.00025  -0.00025
 Ionic relaxation
   EDIFFG = 0.1E-03   stopping-criterion for IOM
   NSW    =      0    number of steps for IOM
   NBLOCK =      1;   KBLOCK =      1    inner block; outer block 
   IBRION =     -1    ionic relax: 0-MD 1-quasi-New 2-CG
   NFREE  =      0    steps in history (QN), initial steepest desc. (CG)
   ISIF   =      2    stress and relaxation
   IWAVPR =     10    prediction:  0-non 1-charg 2-wave 3-comb
   ISYM   =      2    0-nonsym 1-usesym 2-fastsym
   LCORR  =      T    Harris-Foulkes like correction to forces

   POTIM  = 0.5000    time-step for ionic-motion
   TEIN   =    0.0    initial temperature
   TEBEG  =    0.0;   TEEND  =   0.0 temperature during run
   SMASS  =  -3.00    Nose mass-parameter (am)
   estimated Nose-frequenzy (Omega)   =  0.10E-29 period in steps =****** mass=  -0.152E-26a.u.
   SCALEE = 1.0000    scale energy and forces
   NPACO  =    256;   APACO  = 16.0  distance and # of slots for P.C.
   PSTRESS=    0.0 pullay stress

  Mass of Ions in am
   POMASS =  58.69 16.00
  Ionic Valenz
   ZVAL   =  10.00  6.00
  Atomic Wigner-Seitz radii
   RWIGS  =   1.15  0.73
  virtual crystal weights 
   VCA    =   1.00  1.00
   NELECT =     396.0000    total number of electrons
   NUPDOWN=      -1.0000    fix difference up-down

 DOS related values:
   EMIN   =  10.00;   EMAX   =-10.00  energy-range for DOS
   EFERMI =   0.00
   ISMEAR =     0;   SIGMA  =   0.05  broadening in eV -4-tet -1-fermi 0-gaus

 Electronic relaxation 2 (details)
   IALGO  =     38    algorithm
   LDIAG  =      T    sub-space diagonalisation (order eigenvalues)
   LSUBROT=      F    optimize rotation matrix (better conditioning)
   TURBO    =      0    0=normal 1=particle mesh
   IRESTART =      0    0=no restart 2=restart with 2 vectors
   NREBOOT  =      0    no. of reboots
   NMIN     =      0    reboot dimension
   EREF     =   0.00    reference energy to select bands
   IMIX   =      4    mixing-type and parameters
     AMIX     =   0.40;   BMIX     =  1.00
     AMIX_MAG =   1.60;   BMIX_MAG =  1.00
     AMIN     =   0.10
     WC   =   100.;   INIMIX=   1;  MIXPRE=   1;  MAXMIX= -45

 Intra band minimization:
   WEIMIN = 0.0000     energy-eigenvalue tresh-hold
   EBREAK =  0.92E-08  absolut break condition
   DEPER  =   0.30     relativ break condition  

   TIME   =   0.40     timestep for ELM

  volume/ion in A,a.u.               =       9.62        64.92
  Fermi-wavevector in a.u.,A,eV,Ry     =   1.495483  2.826054 30.429034  2.236471
  Thomas-Fermi vector in A             =   2.607622
 
 Write flags
   LWAVE        =      F    write WAVECAR
   LDOWNSAMPLE  =      F    k-point downsampling of WAVECAR
   LCHARG       =      T    write CHGCAR
   LVTOT        =      F    write LOCPOT, total local potential
   LVHAR        =      F    write LOCPOT, Hartree potential only
   LELF         =      F    write electronic localiz. function (ELF)
   LORBIT       =      0    0 simple, 1 ext, 2 COOP (PROOUT), +10 PAW based schemes


 Dipole corrections
   LMONO  =      F    monopole corrections only (constant potential shift)
   LDIPOL =      F    correct potential (dipole corrections)
   IDIPOL =      0    1-x, 2-y, 3-z, 4-all directions 
   EPSILON=  1.0000000 bulk dielectric constant

 Exchange correlation treatment:
   GGA     =    PS    GGA type
   LEXCH   =    14    internal setting for exchange type
   VOSKOWN=      1    Vosko Wilk Nusair interpolation
   LHFCALC =     F    Hartree Fock is set to
   LHFONE  =     F    Hartree Fock one center treatment
   AEXX    =    0.0000 exact exchange contribution

 Linear response parameters
   LEPSILON=     F    determine dielectric tensor
   LRPA    =     F    only Hartree local field effects (RPA)
   LNABLA  =     F    use nabla operator in PAW spheres
   LVEL    =     F    velocity operator in full k-point grid
   LINTERFAST=   F  fast interpolation
   KINTER  =     0    interpolate to denser k-point grid
   CSHIFT  =0.1000    complex shift for real part using Kramers Kronig
   OMEGAMAX=  -1.0    maximum frequency
   DEG_THRESHOLD= 0.2000000E-02 threshold for treating states as degnerate
   RTIME   =   -0.100 relaxation time in fs
  (WPLASMAI=    0.000 imaginary part of plasma frequency in eV, 0.658/RTIME)
   DFIELD  = 0.0000000 0.0000000 0.0000000 field for delta impulse in time
 
 Orbital magnetization related:
   ORBITALMAG=     F  switch on orbital magnetization
   LCHIMAG   =     F  perturbation theory with respect to B field
   DQ        =  0.001000  dq finite difference perturbation B field
   LLRAUG    =     F  two centre corrections for induced B field



--------------------------------------------------------------------------------------------------------


 Static calculation
 charge density and potential will be updated during run
 spin polarized calculation
 Variant of blocked Davidson
 Davidson routine will perform the subspace rotation
 perform sub-space diagonalisation
    after iterative eigenvector-optimisation
 modified Broyden-mixing scheme, WC =      100.0
 initial mixing is a Kerker type mixing with AMIX =  0.4000 and BMIX =      1.0000
 Hartree-type preconditioning will be used
 using additional bands           74
 real space projection scheme for non local part
 use partial core corrections
 calculate Harris-corrections to forces 
   (improved forces if not selfconsistent)
 use gradient corrections 
 use of overlap-Matrix (Vanderbilt PP)
 Gauss-broadening in eV      SIGMA  =   0.05


--------------------------------------------------------------------------------------------------------


  energy-cutoff  :      500.00
  volume of cell :      519.49
      direct lattice vectors                 reciprocal lattice vectors
     8.153798250  0.000000000  0.000000000     0.122642230  0.070807524  0.000000000
    -4.076899120  7.061396420  0.000000000     0.000000000  0.141615049  0.000000000
     0.000000000  0.000000000  9.022445250     0.000000000  0.000000000  0.110834699

  length of vectors
     8.153798250  8.153798246  9.022445250     0.141615049  0.141615049  0.110834699


 
 k-points in units of 2pi/SCALE and weight: Automatic mesh                          
   0.00000000  0.00000000  0.00000000       0.021
   0.03066056  0.01770188  0.00000000       0.042
   0.06132111  0.03540376  0.00000000       0.021
   0.00000000  0.03540376  0.00000000       0.042
   0.03066056  0.05310564  0.00000000       0.042
   0.06132111  0.07080752  0.00000000       0.042
  -0.03066056  0.01770188  0.00000000       0.042
   0.00000000  0.07080752  0.00000000       0.021
   0.03066056  0.08850941  0.00000000       0.042
   0.06132111  0.10621129  0.00000000       0.021
   0.00000000  0.00000000  0.03694490       0.042
   0.03066056  0.01770188  0.03694490       0.042
   0.06132111  0.03540376  0.03694490       0.042
  -0.03066056 -0.01770188  0.03694490       0.042
   0.00000000  0.03540376  0.03694490       0.042
   0.03066056  0.05310564  0.03694490       0.042
   0.06132111  0.07080752  0.03694490       0.042
  -0.03066056  0.01770188  0.03694490       0.042
   0.00000000  0.07080752  0.03694490       0.042
   0.03066056  0.08850941  0.03694490       0.042
   0.06132111  0.10621129  0.03694490       0.042
  -0.03066056  0.05310564  0.03694490       0.042
   0.00000000 -0.03540376  0.03694490       0.042
   0.03066056 -0.01770188  0.03694490       0.042
   0.06132111 -0.00000000  0.03694490       0.042
  -0.03066056 -0.05310564  0.03694490       0.042
 
 k-points in reciprocal lattice and weights: Automatic mesh                          
   0.00000000  0.00000000  0.00000000       0.021
   0.25000000 -0.00000000  0.00000000       0.042
   0.50000000 -0.00000000  0.00000000       0.021
   0.00000000  0.25000000  0.00000000       0.042
   0.25000000  0.25000000  0.00000000       0.042
   0.50000000  0.25000000  0.00000000       0.042
  -0.25000000  0.25000000  0.00000000       0.042
   0.00000000  0.50000000  0.00000000       0.021
   0.25000000  0.50000000  0.00000000       0.042
   0.50000000  0.50000000  0.00000000       0.021
   0.00000000  0.00000000  0.33333333       0.042
   0.25000000 -0.00000000  0.33333333       0.042
   0.50000000 -0.00000000  0.33333333       0.042
  -0.25000000  0.00000000  0.33333333       0.042
   0.00000000  0.25000000  0.33333333       0.042
   0.25000000  0.25000000  0.33333333       0.042
   0.50000000  0.25000000  0.33333333       0.042
  -0.25000000  0.25000000  0.33333333       0.042
   0.00000000  0.50000000  0.33333333       0.042
   0.25000000  0.50000000  0.33333333       0.042
   0.50000000  0.50000000  0.33333333       0.042
  -0.25000000  0.50000000  0.33333333       0.042
   0.00000000 -0.25000000  0.33333333       0.042
   0.25000000 -0.25000000  0.33333333       0.042
   0.50000000 -0.25000000  0.33333333       0.042
  -0.25000000 -0.25000000  0.33333333       0.042
 
 position of ions in fractional coordinates (direct lattice) 
   0.99714385  0.00960956  0.99654398
   0.98553897  0.99431856  0.52069414
   0.01692998  0.34229837  0.99805419
   0.05614412  0.38426416  0.54141436
   0.99304432  0.66987867  0.98241697
   0.02366836  0.66159826  0.50727167
   0.35541400  0.03645901  0.99452734
   0.33217921  0.01659667  0.47434339
   0.36891907  0.34732182  0.99217967
   0.33130843  0.31245240  0.51914337
   0.31088620  0.64940806  0.03431726
   0.31377026  0.64739439  0.49920431
   0.75551185  0.03679219  0.99583081
   0.74896350  0.01464299  0.52260400
   0.68543919  0.33885107  0.98438776
   0.71609916  0.34417048  0.50355605
   0.65922789  0.65031943  0.97400164
   0.68147458  0.69038566  0.54699293
   0.10498686  0.23458997  0.06452678
   0.18563376  0.08315017  0.40243531
   0.13668634  0.23954708  0.60391718
   0.24031265  0.10934413  0.95749237
   0.09159247  0.57325177  0.07840701
   0.21015910  0.40319721  0.38332715
   0.04830139  0.52736856  0.58429579
   0.18958744  0.46227270  0.91116459
   0.17275729  0.92876608  0.08149343
   0.24826799  0.77881700  0.40315938
   0.13089149  0.96067202  0.66029327
   0.26014006  0.85139008  0.89169394
   0.46739215  0.23422597  0.11872936
   0.55498757  0.07198855  0.40062535
   0.45232322  0.26144770  0.62431131
   0.62920152  0.11291313  0.86191011
   0.42030760  0.56446135  0.11684501
   0.57933738  0.45819875  0.42263299
   0.49554536  0.62457829  0.61751224
   0.56052744  0.48887702  0.93832357
   0.40524251  0.89378777  0.10996838
   0.54145959  0.79244225  0.42022927
   0.46924384  0.94378967  0.59347062
   0.59458031  0.77313095  0.95288200
   0.85501213  0.26061897  0.11430060
   0.90184614  0.10302111  0.40631665
   0.79070469  0.23721874  0.61017209
   0.89526891  0.11646440  0.91154629
   0.81863429  0.58625644  0.04107002
   0.90305141  0.45082007  0.40351782
   0.78785492  0.58769298  0.58038768
   0.89526349  0.43840387  0.91317625
   0.78445650  0.88771558  0.13497547
   0.90416024  0.76620352  0.42057399
   0.80731922  0.88580702  0.62757876
   0.91566970  0.82669786  0.92130628
 
 position of ions in cartesian coordinates  (Angst):
   8.09133257  0.06785691  8.99126350
   3.98214947  7.02127752  4.69793437
  -1.25747228  2.41710448  9.00488929
  -1.10881839  2.71344156  4.88488142
   5.36605528  4.73027884  8.86380332
  -2.50428233  4.67180758  4.57683087
   2.74933435  0.25745152  8.97306847
   2.64085931  0.11719567  4.27973727
   1.59209565  2.45257706  8.95188675
   1.42758518  2.20635026  4.68394263
  -0.11266779  4.58572775  0.30962560
  -0.08094222  4.57150843  4.50404356
   6.01029315  0.25980424  8.98482896
   6.04719928  0.10339996  4.71516598
   4.20747124  2.39276173  8.88158467
   4.43577975  2.43032420  4.54330689
   2.72392450  4.59216329  8.78787647
   2.74197355  4.87508683  4.93521376
  -0.10035797  1.65653277  0.58218934
   1.17462537  0.58715631  3.63095055
   0.13790356  1.69153689  5.44880969
   1.51367588  0.77212225  8.63892249
  -1.59026312  4.04795800  0.70742295
   0.06980055  2.84713534  3.45854822
  -1.75618863  3.72395846  5.27177678
  -0.33878143  3.26429079  8.22093263
  -2.37785753  6.55838547  0.73527001
  -1.15083124  5.49953558  3.63748343
  -2.84930011  6.78368596  5.95745988
  -1.34990190  6.01200286  8.04525975
   2.85610564  1.65396243  1.07122915
   4.23176662  0.50833969  3.61462029
   2.62225638  1.84618585  5.63281461
   4.67004681  0.79732437  7.77653678
   1.12585139  3.98588536  1.05422771
   2.85577003  3.23552301  3.81318301
   1.49423421  4.41039490  5.57147038
   2.57732537  3.45215444  8.46597304
  -0.33961690  6.31138976  0.99218369
   1.18424515  5.59574887  3.79149558
  -0.02161567  6.66447300  5.35455618
   1.69611100  5.45938412  8.59732567
   5.90907916  1.84033386  1.03127091
   6.93346481  0.72747290  3.66596973
   5.48012965  1.67509556  5.50524428
   6.82502846  0.82240130  8.22437649
   4.28487048  4.13978913  0.37055201
   5.52535106  3.18341923  3.64071744
   4.02804507  4.14993311  5.23651607
   5.51246953  3.09574352  8.23908272
   2.77717317  6.26851162  1.21780879
   4.24860573  5.41046679  3.79460580
   2.97137218  6.25503452  5.66229500
   4.09582222  5.83764131  8.31243547
 


--------------------------------------------------------------------------------------------------------


 k-point  1 :   0.0000 0.0000 0.0000  plane waves:   13143
 k-point  2 :   0.2500-0.0000 0.0000  plane waves:   13176
 k-point  3 :   0.5000-0.0000 0.0000  plane waves:   13192
 k-point  4 :   0.0000 0.2500 0.0000  plane waves:   13176
 k-point  5 :   0.2500 0.2500 0.0000  plane waves:   13219
 k-point  6 :   0.5000 0.2500 0.0000  plane waves:   13219
 k-point  7 :  -0.2500 0.2500 0.0000  plane waves:   13176
 k-point  8 :   0.0000 0.5000 0.0000  plane waves:   13192
 k-point  9 :   0.2500 0.5000 0.0000  plane waves:   13219
 k-point 10 :   0.5000 0.5000 0.0000  plane waves:   13192
 k-point 11 :   0.0000 0.0000 0.3333  plane waves:   13173
 k-point 12 :   0.2500-0.0000 0.3333  plane waves:   13192
 k-point 13 :   0.5000-0.0000 0.3333  plane waves:   13188
 k-point 14 :  -0.2500 0.0000 0.3333  plane waves:   13192
 k-point 15 :   0.0000 0.2500 0.3333  plane waves:   13192
 k-point 16 :   0.2500 0.2500 0.3333  plane waves:   13183
 k-point 17 :   0.5000 0.2500 0.3333  plane waves:   13183
 k-point 18 :  -0.2500 0.2500 0.3333  plane waves:   13192
 k-point 19 :   0.0000 0.5000 0.3333  plane waves:   13188
 k-point 20 :   0.2500 0.5000 0.3333  plane waves:   13183
 k-point 21 :   0.5000 0.5000 0.3333  plane waves:   13188
 k-point 22 :  -0.2500 0.5000 0.3333  plane waves:   13183
 k-point 23 :   0.0000-0.2500 0.3333  plane waves:   13192
 k-point 24 :   0.2500-0.2500 0.3333  plane waves:   13192
 k-point 25 :   0.5000-0.2500 0.3333  plane waves:   13183
 k-point 26 :  -0.2500-0.2500 0.3333  plane waves:   13183

 maximum and minimum number of plane-waves per node :     13219    13143

 maximum number of plane-waves:     13219
 maximum index in each direction: 
   IXMAX=   15   IYMAX=   15   IZMAX=   16
   IXMIN=  -15   IYMIN=  -15   IZMIN=  -16

 The following grids will avoid any aliasing or wrap around errors in the Hartre
 e energy
  - symmetry arguments have not been applied
  - exchange correlation energies might require even more grid points
  - we recommend to set PREC=Normal or Accurate and rely on VASP defaults
 WARNING: aliasing errors must be expected set NGX to    64 to avoid them
 WARNING: aliasing errors must be expected set NGY to    64 to avoid them
 NGZ is ok and might be reduce to    70

 serial   3D FFT for wavefunctions
 parallel 3D FFT for charge:
    minimum data exchange during FFTs selected (reduces bandwidth)


 total amount of memory used by VASP MPI-rank0   294978. kBytes
=======================================================================

   base      :      30000. kBytes
   nonlr-proj:      30641. kBytes
   fftplans  :       5529. kBytes
   grid      :      31150. kBytes
   one-center:       1679. kBytes
   wavefun   :     195979. kBytes
 
     INWAV:  cpu time    0.0000: real time    0.0000
 Broyden mixing: mesh for mixing (old mesh)
   NGX = 29   NGY = 29   NGZ = 33
  (NGX  =120   NGY  =120   NGZ  =140)
  gives a total of  27753 points

 initial charge density was supplied:
 charge density of overlapping atoms calculated
 number of electron     396.0000000 magnetization      45.0000000
 keeping initial charge density in first step


--------------------------------------------------------------------------------------------------------


 Maximum index for non-local projection operator         6347
 Maximum index for augmentation-charges         1318 (set IRDMAX)


--------------------------------------------------------------------------------------------------------


 First call to EWALD:  gamma=   0.220
 Maximum number of real-space cells 3x 3x 3
 Maximum number of reciprocal cells 3x 3x 3

    FEWALD:  cpu time    0.0027: real time    0.0027


--------------------------------------- Iteration      1(   1)  ---------------------------------------


    POTLOK:  cpu time    0.1549: real time    0.1650
    SETDIJ:  cpu time    0.0240: real time    0.0272
     EDDAV:  cpu time   85.0400: real time   85.2415
    --------------------------------------------
      LOOP:  cpu time   85.2222: real time   85.4399

 eigenvalue-minimisations  : 28288
 total energy-change (2. order) : 0.5454072E+04  (-0.1712480E+05)
 number of electron     396.0000000 magnetization      45.0000000
 augmentation part      396.0000000 magnetization      45.0000000

 Free energy of the ion-electron system (eV)
  ---------------------------------------------------
  alpha Z        PSCENC =      1335.31602646
  Ewald energy   TEWEN  =    -21199.73786952
  -Hartree energ DENC   =    -14703.93964434
  -exchange      EXHF   =         0.00000000
  -V(xc)+E(xc)   XCENC  =      1624.06043516
  PAW double counting   =     29771.88967665   -31027.00397701
  entropy T*S    EENTRO =        -0.01043713
  eigenvalues    EBANDS =      4763.11638516
  atomic energy  EATOM  =     34890.38139807
  Solvation  Ediel_sol  =         0.00000000
  ---------------------------------------------------
  free energy    TOTEN  =      5454.07199350 eV

  energy without entropy =     5454.08243063  energy(sigma->0) =     5454.07721207


--------------------------------------------------------------------------------------------------------




--------------------------------------- Iteration      1(   2)  ---------------------------------------


     EDDAV:  cpu time   87.1989: real time   87.4088
    --------------------------------------------
      LOOP:  cpu time   87.1986: real time   87.4057

 eigenvalue-minimisations  : 28848
 total energy-change (2. order) :-0.4646895E+04  (-0.4158401E+04)
 number of electron     396.0000000 magnetization      45.0000000
 augmentation part      396.0000000 magnetization      45.0000000

 Free energy of the ion-electron system (eV)
  ---------------------------------------------------
  alpha Z        PSCENC =      1335.31602646
  Ewald energy   TEWEN  =    -21199.73786952
  -Hartree energ DENC   =    -14703.93964434
  -exchange      EXHF   =         0.00000000
  -V(xc)+E(xc)   XCENC  =      1624.06043516
  PAW double counting   =     29771.88967665   -31027.00397701
  entropy T*S    EENTRO =        -0.02662164
  eigenvalues    EBANDS =       116.23708094
  atomic energy  EATOM  =     34890.38139807
  Solvation  Ediel_sol  =         0.00000000
  ---------------------------------------------------
  free energy    TOTEN  =       807.17650477 eV

  energy without entropy =      807.20312641  energy(sigma->0) =      807.18981559


--------------------------------------------------------------------------------------------------------




--------------------------------------- Iteration      1(   3)  ---------------------------------------


     EDDAV:  cpu time   87.9394: real time   88.1480
    --------------------------------------------
      LOOP:  cpu time   87.9393: real time   88.1478

 eigenvalue-minimisations  : 29616
 total energy-change (2. order) :-0.1074908E+04  (-0.9544310E+03)
 number of electron     396.0000000 magnetization      45.0000000
 augmentation part      396.0000000 magnetization      45.0000000

 Free energy of the ion-electron system (eV)
  ---------------------------------------------------
  alpha Z        PSCENC =      1335.31602646
  Ewald energy   TEWEN  =    -21199.73786952
  -Hartree energ DENC   =    -14703.93964434
  -exchange      EXHF   =         0.00000000
  -V(xc)+E(xc)   XCENC  =      1624.06043516
  PAW double counting   =     29771.88967665   -31027.00397701
  entropy T*S    EENTRO =        -0.05344042
  eigenvalues    EBANDS =      -958.64422312
  atomic energy  EATOM  =     34890.38139807
  Solvation  Ediel_sol  =         0.00000000
  ---------------------------------------------------
  free energy    TOTEN  =      -267.73161807 eV

  energy without entropy =     -267.67817765  energy(sigma->0) =     -267.70489786


--------------------------------------------------------------------------------------------------------




--------------------------------------- Iteration      1(   4)  ---------------------------------------


     EDDAV:  cpu time   94.3478: real time   94.5714
    --------------------------------------------
      LOOP:  cpu time   94.3478: real time   94.5713

 eigenvalue-minimisations  : 32000
 total energy-change (2. order) :-0.1024001E+03  (-0.9964532E+02)
 number of electron     396.0000000 magnetization      45.0000000
 augmentation part      396.0000000 magnetization      45.0000000

 Free energy of the ion-electron system (eV)
  ---------------------------------------------------
  alpha Z        PSCENC =      1335.31602646
  Ewald energy   TEWEN  =    -21199.73786952
  -Hartree energ DENC   =    -14703.93964434
  -exchange      EXHF   =         0.00000000
  -V(xc)+E(xc)   XCENC  =      1624.06043516
  PAW double counting   =     29771.88967665   -31027.00397701
  entropy T*S    EENTRO =        -0.04698727
  eigenvalues    EBANDS =     -1061.05075336
  atomic energy  EATOM  =     34890.38139807
  Solvation  Ediel_sol  =         0.00000000
  ---------------------------------------------------
  free energy    TOTEN  =      -370.13169516 eV

  energy without entropy =     -370.08470789  energy(sigma->0) =     -370.10820152


--------------------------------------------------------------------------------------------------------




--------------------------------------- Iteration      1(   5)  ---------------------------------------


     EDDAV:  cpu time   92.5105: real time   92.7297
    CHARGE:  cpu time    3.3815: real time    3.3933
    MIXING:  cpu time    0.0042: real time    0.0088
    --------------------------------------------
      LOOP:  cpu time   95.8935: real time   96.1291

 eigenvalue-minimisations  : 31792
 total energy-change (2. order) :-0.2289438E+01  (-0.2281454E+01)
 number of electron     395.9999947 magnetization      39.9090662
 augmentation part      114.4478315 magnetization      30.9711513

 Broyden mixing:
  rms(total) = 0.20981E+02    rms(broyden)= 0.20980E+02
  rms(prec ) = 0.23009E+02
  weight for this iteration     100.00

 Free energy of the ion-electron system (eV)
  ---------------------------------------------------
  alpha Z        PSCENC =      1335.31602646
  Ewald energy   TEWEN  =    -21199.73786952
  -Hartree energ DENC   =    -14703.93964434
  -exchange      EXHF   =         0.00000000
  -V(xc)+E(xc)   XCENC  =      1624.06043516
  PAW double counting   =     29771.88967665   -31027.00397701
  entropy T*S    EENTRO =        -0.04659971
  eigenvalues    EBANDS =     -1063.34057916
  atomic energy  EATOM  =     34890.38139807
  Solvation  Ediel_sol  =         0.00000000
  ---------------------------------------------------
  free energy    TOTEN  =      -372.42113340 eV

  energy without entropy =     -372.37453369  energy(sigma->0) =     -372.39783354


--------------------------------------------------------------------------------------------------------




--------------------------------------- Iteration      1(   6)  ---------------------------------------


    POTLOK:  cpu time    0.1577: real time    0.1580
    SETDIJ:  cpu time    0.0236: real time    0.0237
     EDDAV:  cpu time  121.9422: real time  122.2420
    CHARGE:  cpu time    2.4335: real time    2.4393
    MIXING:  cpu time    0.0051: real time    0.0291
    --------------------------------------------
      LOOP:  cpu time  124.5622: real time  124.8922

 eigenvalue-minimisations  : 44016
 total energy-change (2. order) :-0.1073493E+03  (-0.1055616E+03)
 number of electron     395.9999960 magnetization      33.7085952
 augmentation part      152.0601340 magnetization      30.7019359

 Broyden mixing:
  rms(total) = 0.27000E+02    rms(broyden)= 0.26999E+02
  rms(prec ) = 0.29437E+02
  weight for this iteration     100.00

 eigenvalues of (default mixing * dielectric matrix)
  average eigenvalue GAMMA=   0.2741
  0.2741

 Free energy of the ion-electron system (eV)
  ---------------------------------------------------
  alpha Z        PSCENC =      1335.31602646
  Ewald energy   TEWEN  =    -21199.73786952
  -Hartree energ DENC   =    -14092.33284473
  -exchange      EXHF   =         0.00000000
  -V(xc)+E(xc)   XCENC  =      1625.05188776
  PAW double counting   =     36549.46659926   -37632.85290235
  entropy T*S    EENTRO =        -0.03085425
  eigenvalues    EBANDS =     -1955.03191966
  atomic energy  EATOM  =     34890.38139807
  Solvation  Ediel_sol  =         0.00000000
  ---------------------------------------------------
  free energy    TOTEN  =      -479.77047896 eV

  energy without entropy =     -479.73962471  energy(sigma->0) =     -479.75505183


--------------------------------------------------------------------------------------------------------




--------------------------------------- Iteration      1(   7)  ---------------------------------------


    POTLOK:  cpu time    0.1585: real time    0.1588
    SETDIJ:  cpu time    0.0239: real time    0.0240
     EDDAV:  cpu time  108.0567: real time  108.3274
    CHARGE:  cpu time    3.4901: real time    3.4984
    MIXING:  cpu time    0.0048: real time    0.0175
    --------------------------------------------
      LOOP:  cpu time  111.7340: real time  112.0262

 eigenvalue-minimisations  : 37808
 total energy-change (2. order) : 0.2049751E+03  (-0.3747751E+02)
 number of electron     395.9999964 magnetization      24.5163838
 augmentation part      138.2711170 magnetization      19.1999115

 Broyden mixing:
  rms(total) = 0.95693E+01    rms(broyden)= 0.95677E+01
  rms(prec ) = 0.11405E+02
  weight for this iteration     100.00

 eigenvalues of (default mixing * dielectric matrix)
  average eigenvalue GAMMA=   0.6308
  0.6477  0.6139

 Free energy of the ion-electron system (eV)
  ---------------------------------------------------
  alpha Z        PSCENC =      1335.31602646
  Ewald energy   TEWEN  =    -21199.73786952
  -Hartree energ DENC   =    -14397.09734147
  -exchange      EXHF   =         0.00000000
  -V(xc)+E(xc)   XCENC  =      1621.99439434
  PAW double counting   =     39057.64653361   -40305.35793504
  entropy T*S    EENTRO =        -0.03787073
  eigenvalues    EBANDS =     -1277.90274908
  atomic energy  EATOM  =     34890.38139807
  Solvation  Ediel_sol  =         0.00000000
  ---------------------------------------------------
  free energy    TOTEN  =      -274.79541336 eV

  energy without entropy =     -274.75754263  energy(sigma->0) =     -274.77647799


--------------------------------------------------------------------------------------------------------




--------------------------------------- Iteration      1(   8)  ---------------------------------------


    POTLOK:  cpu time    0.1604: real time    0.1608
    SETDIJ:  cpu time    0.0239: real time    0.0240
     EDDAV:  cpu time  114.4737: real time  114.7450
    CHARGE:  cpu time    3.4655: real time    3.4737
    MIXING:  cpu time    0.0040: real time    0.0040
    --------------------------------------------
      LOOP:  cpu time  118.1274: real time  118.4073

 eigenvalue-minimisations  : 40960
 total energy-change (2. order) :-0.1110388E+03  (-0.3091714E+02)
 number of electron     395.9999953 magnetization      18.5550769
 augmentation part      128.1879336 magnetization      15.5965311

 Broyden mixing:
  rms(total) = 0.20337E+02    rms(broyden)= 0.20336E+02
  rms(prec ) = 0.25235E+02
  weight for this iteration     100.00

 eigenvalues of (default mixing * dielectric matrix)
  average eigenvalue GAMMA=   0.5764
  1.0957  0.4513  0.1823

 Free energy of the ion-electron system (eV)
  ---------------------------------------------------
  alpha Z        PSCENC =      1335.31602646
  Ewald energy   TEWEN  =    -21199.73786952
  -Hartree energ DENC   =    -14411.68572279
  -exchange      EXHF   =         0.00000000
  -V(xc)+E(xc)   XCENC  =      1616.11353253
  PAW double counting   =     42105.29353402   -43476.38472129
  entropy T*S    EENTRO =        -0.03163655
  eigenvalues    EBANDS =     -1245.09870912
  atomic energy  EATOM  =     34890.38139807
  Solvation  Ediel_sol  =         0.00000000
  ---------------------------------------------------
  free energy    TOTEN  =      -385.83416819 eV

  energy without entropy =     -385.80253163  energy(sigma->0) =     -385.81834991


--------------------------------------------------------------------------------------------------------




--------------------------------------- Iteration      1(   9)  ---------------------------------------


    POTLOK:  cpu time    0.1597: real time    0.1601
    SETDIJ:  cpu time    0.0239: real time    0.0240
     EDDAV:  cpu time  106.7747: real time  107.0278
    CHARGE:  cpu time    3.3342: real time    3.3421
    MIXING:  cpu time    0.0043: real time    0.0056
    --------------------------------------------
      LOOP:  cpu time  110.2969: real time  110.5596

 eigenvalue-minimisations  : 37888
 total energy-change (2. order) : 0.7085036E+02  (-0.3444079E+02)
 number of electron     395.9999950 magnetization      14.1874435
 augmentation part      123.7214733 magnetization      11.6192511

 Broyden mixing:
  rms(total) = 0.12310E+02    rms(broyden)= 0.12309E+02
  rms(prec ) = 0.17053E+02
  weight for this iteration     100.00

 eigenvalues of (default mixing * dielectric matrix)
  average eigenvalue GAMMA=   0.5654
  1.3898  0.3717  0.2501  0.2501

 Free energy of the ion-electron system (eV)
  ---------------------------------------------------
  alpha Z        PSCENC =      1335.31602646
  Ewald energy   TEWEN  =    -21199.73786952
  -Hartree energ DENC   =    -14454.11766430
  -exchange      EXHF   =         0.00000000
  -V(xc)+E(xc)   XCENC  =      1614.46151830
  PAW double counting   =     44502.93168970   -45929.77404276
  entropy T*S    EENTRO =        -0.04614394
  eigenvalues    EBANDS =     -1074.39871864
  atomic energy  EATOM  =     34890.38139807
  Solvation  Ediel_sol  =         0.00000000
  ---------------------------------------------------
  free energy    TOTEN  =      -314.98380663 eV

  energy without entropy =     -314.93766269  energy(sigma->0) =     -314.96073466


--------------------------------------------------------------------------------------------------------




--------------------------------------- Iteration      1(  10)  ---------------------------------------


    POTLOK:  cpu time    0.1583: real time    0.1587
    SETDIJ:  cpu time    0.0237: real time    0.0237
     EDDAV:  cpu time  109.5688: real time  109.8284
    CHARGE:  cpu time    2.8872: real time    2.8941
    MIXING:  cpu time    0.0038: real time    0.0038
    --------------------------------------------
      LOOP:  cpu time  112.6417: real time  112.9086

 eigenvalue-minimisations  : 38992
 total energy-change (2. order) : 0.1242328E+02  (-0.3516343E+02)
 number of electron     395.9999942 magnetization       8.8726053
 augmentation part      122.7504469 magnetization       7.3543185

 Broyden mixing:
  rms(total) = 0.10627E+02    rms(broyden)= 0.10626E+02
  rms(prec ) = 0.15051E+02
  weight for this iteration     100.00

 eigenvalues of (default mixing * dielectric matrix)
  average eigenvalue GAMMA=   0.5774
  1.7198  0.3734  0.3734  0.2893  0.1311

 Free energy of the ion-electron system (eV)
  ---------------------------------------------------
  alpha Z        PSCENC =      1335.31602646
  Ewald energy   TEWEN  =    -21199.73786952
  -Hartree energ DENC   =    -14434.47430108
  -exchange      EXHF   =         0.00000000
  -V(xc)+E(xc)   XCENC  =      1613.63269840
  PAW double counting   =     46182.92157940   -47625.12361708
  entropy T*S    EENTRO =        -0.03527462
  eigenvalues    EBANDS =     -1065.44116309
  atomic energy  EATOM  =     34890.38139807
  Solvation  Ediel_sol  =         0.00000000
  ---------------------------------------------------
  free energy    TOTEN  =      -302.56052306 eV

  energy without entropy =     -302.52524844  energy(sigma->0) =     -302.54288575


--------------------------------------------------------------------------------------------------------




--------------------------------------- Iteration      1(  11)  ---------------------------------------


    POTLOK:  cpu time    0.1396: real time    0.1400
    SETDIJ:  cpu time    0.0226: real time    0.0226
     EDDAV:  cpu time  109.3297: real time  109.5890
    CHARGE:  cpu time    3.3564: real time    3.3644
    MIXING:  cpu time    0.0045: real time    0.0045
    --------------------------------------------
      LOOP:  cpu time  112.8528: real time  113.1204

 eigenvalue-minimisations  : 39104
 total energy-change (2. order) : 0.2269673E+02  (-0.2562857E+02)
 number of electron     395.9999960 magnetization       6.7262443
 augmentation part      125.7620780 magnetization       4.9259204

 Broyden mixing:
  rms(total) = 0.91102E+01    rms(broyden)= 0.91093E+01
  rms(prec ) = 0.13230E+02
  weight for this iteration     100.00

 eigenvalues of (default mixing * dielectric matrix)
  average eigenvalue GAMMA=   0.5485
  1.8412  0.4017  0.4017  0.3617  0.1423  0.1423

 Free energy of the ion-electron system (eV)
  ---------------------------------------------------
  alpha Z        PSCENC =      1335.31602646
  Ewald energy   TEWEN  =    -21199.73786952
  -Hartree energ DENC   =    -14370.56853847
  -exchange      EXHF   =         0.00000000
  -V(xc)+E(xc)   XCENC  =      1612.70826406
  PAW double counting   =     48064.88981601   -49507.07772418
  entropy T*S    EENTRO =        -0.05435974
  eigenvalues    EBANDS =     -1105.72080856
  atomic energy  EATOM  =     34890.38139807
  Solvation  Ediel_sol  =         0.00000000
  ---------------------------------------------------
  free energy    TOTEN  =      -279.86379587 eV

  energy without entropy =     -279.80943613  energy(sigma->0) =     -279.83661600


--------------------------------------------------------------------------------------------------------




--------------------------------------- Iteration      1(  12)  ---------------------------------------


    POTLOK:  cpu time    0.1560: real time    0.1564
    SETDIJ:  cpu time    0.0237: real time    0.0238
     EDDAV:  cpu time  104.0216: real time  104.2680
    CHARGE:  cpu time    2.3990: real time    2.4047
    MIXING:  cpu time    0.0045: real time    0.0045
    --------------------------------------------
      LOOP:  cpu time  106.6048: real time  106.8574

 eigenvalue-minimisations  : 36224
 total energy-change (2. order) : 0.3807906E+02  (-0.1008035E+02)
 number of electron     395.9999953 magnetization       6.1603181
 augmentation part      129.9689302 magnetization       4.4742172

 Broyden mixing:
  rms(total) = 0.47692E+01    rms(broyden)= 0.47681E+01
  rms(prec ) = 0.63178E+01
  weight for this iteration     100.00

 eigenvalues of (default mixing * dielectric matrix)
  average eigenvalue GAMMA=   0.5278
  1.7503  0.4910  0.4910  0.4921  0.1966  0.1368  0.1368

 Free energy of the ion-electron system (eV)
  ---------------------------------------------------
  alpha Z        PSCENC =      1335.31602646
  Ewald energy   TEWEN  =    -21199.73786952
  -Hartree energ DENC   =    -14333.93524219
  -exchange      EXHF   =         0.00000000
  -V(xc)+E(xc)   XCENC  =      1612.24463550
  PAW double counting   =     48746.22129998   -50178.22559502
  entropy T*S    EENTRO =        -0.05945719
  eigenvalues    EBANDS =     -1113.98993117
  atomic energy  EATOM  =     34890.38139807
  Solvation  Ediel_sol  =         0.00000000
  ---------------------------------------------------
  free energy    TOTEN  =      -241.78473507 eV

  energy without entropy =     -241.72527788  energy(sigma->0) =     -241.75500648


--------------------------------------------------------------------------------------------------------




--------------------------------------- Iteration      1(  13)  ---------------------------------------


    POTLOK:  cpu time    0.1562: real time    0.1566
    SETDIJ:  cpu time    0.0236: real time    0.0237
     EDDAV:  cpu time  117.9386: real time  118.2181
    CHARGE:  cpu time    2.8839: real time    2.8908
    MIXING:  cpu time    0.0048: real time    0.0048
    --------------------------------------------
      LOOP:  cpu time  121.0072: real time  121.2940

 eigenvalue-minimisations  : 42544
 total energy-change (2. order) : 0.1914340E+01  (-0.3757445E+01)
 number of electron     395.9999951 magnetization       4.9736102
 augmentation part      129.4183267 magnetization       3.3538691

 Broyden mixing:
  rms(total) = 0.47033E+01    rms(broyden)= 0.47026E+01
  rms(prec ) = 0.58846E+01
  weight for this iteration     100.00

 eigenvalues of (default mixing * dielectric matrix)
  average eigenvalue GAMMA=   0.5044
  1.8469  0.5713  0.5713  0.3715  0.2504  0.1453  0.1453  0.1333

 Free energy of the ion-electron system (eV)
  ---------------------------------------------------
  alpha Z        PSCENC =      1335.31602646
  Ewald energy   TEWEN  =    -21199.73786952
  -Hartree energ DENC   =    -14344.48808490
  -exchange      EXHF   =         0.00000000
  -V(xc)+E(xc)   XCENC  =      1612.24550658
  PAW double counting   =     48755.88929095   -50179.85112450
  entropy T*S    EENTRO =        -0.04919961
  eigenvalues    EBANDS =     -1109.57633892
  atomic energy  EATOM  =     34890.38139807
  Solvation  Ediel_sol  =         0.00000000
  ---------------------------------------------------
  free energy    TOTEN  =      -239.87039538 eV

  energy without entropy =     -239.82119577  energy(sigma->0) =     -239.84579557


--------------------------------------------------------------------------------------------------------




--------------------------------------- Iteration      1(  14)  ---------------------------------------


    POTLOK:  cpu time    0.1556: real time    0.1560
    SETDIJ:  cpu time    0.0232: real time    0.0233
     EDDAV:  cpu time  114.5854: real time  114.8569
    CHARGE:  cpu time    2.3182: real time    2.3237
    MIXING:  cpu time    0.0047: real time    0.0047
    --------------------------------------------
      LOOP:  cpu time  117.0871: real time  117.3646

 eigenvalue-minimisations  : 42912
 total energy-change (2. order) : 0.3257006E+01  (-0.2970538E+01)
 number of electron     395.9999956 magnetization       4.0930040
 augmentation part      129.5010707 magnetization       2.4452266

 Broyden mixing:
  rms(total) = 0.26853E+01    rms(broyden)= 0.26845E+01
  rms(prec ) = 0.31975E+01
  weight for this iteration     100.00

 eigenvalues of (default mixing * dielectric matrix)
  average eigenvalue GAMMA=   0.5008
  1.9212  0.6342  0.6342  0.3482  0.3482  0.2090  0.1456  0.1456  0.1205

 Free energy of the ion-electron system (eV)
  ---------------------------------------------------
  alpha Z        PSCENC =      1335.31602646
  Ewald energy   TEWEN  =    -21199.73786952
  -Hartree energ DENC   =    -14356.28066415
  -exchange      EXHF   =         0.00000000
  -V(xc)+E(xc)   XCENC  =      1612.30951252
  PAW double counting   =     49091.92902826   -50514.95028375
  entropy T*S    EENTRO =        -0.04253586
  eigenvalues    EBANDS =     -1095.53800145
  atomic energy  EATOM  =     34890.38139807
  Solvation  Ediel_sol  =         0.00000000
  ---------------------------------------------------
  free energy    TOTEN  =      -236.61338943 eV

  energy without entropy =     -236.57085358  energy(sigma->0) =     -236.59212151


--------------------------------------------------------------------------------------------------------




--------------------------------------- Iteration      1(  15)  ---------------------------------------


    POTLOK:  cpu time    0.1520: real time    0.1523
    SETDIJ:  cpu time    0.0231: real time    0.0232
     EDDAV:  cpu time  101.8427: real time  102.0841
    CHARGE:  cpu time    3.2648: real time    3.2898
    MIXING:  cpu time    0.0051: real time    0.0051
    --------------------------------------------
      LOOP:  cpu time  105.2877: real time  105.5545

 eigenvalue-minimisations  : 37328
 total energy-change (2. order) : 0.2145354E+00  (-0.1269208E+01)
 number of electron     395.9999956 magnetization       3.2521094
 augmentation part      129.9193785 magnetization       1.8476282

 Broyden mixing:
  rms(total) = 0.25443E+01    rms(broyden)= 0.25439E+01
  rms(prec ) = 0.29919E+01
  weight for this iteration     100.00

 eigenvalues of (default mixing * dielectric matrix)
  average eigenvalue GAMMA=   0.5044
  1.9100  0.7357  0.7357  0.4096  0.4096  0.2750  0.1545  0.1545  0.1375  0.1222

 Free energy of the ion-electron system (eV)
  ---------------------------------------------------
  alpha Z        PSCENC =      1335.31602646
  Ewald energy   TEWEN  =    -21199.73786952
  -Hartree energ DENC   =    -14354.46215506
  -exchange      EXHF   =         0.00000000
  -V(xc)+E(xc)   XCENC  =      1612.16422305
  PAW double counting   =     49399.48393368   -50822.58634378
  entropy T*S    EENTRO =        -0.05045494
  eigenvalues    EBANDS =     -1096.90761198
  atomic energy  EATOM  =     34890.38139807
  Solvation  Ediel_sol  =         0.00000000
  ---------------------------------------------------
  free energy    TOTEN  =      -236.39885402 eV

  energy without entropy =     -236.34839908  energy(sigma->0) =     -236.37362655


--------------------------------------------------------------------------------------------------------




--------------------------------------- Iteration      1(  16)  ---------------------------------------


    POTLOK:  cpu time    0.1545: real time    0.1549
    SETDIJ:  cpu time    0.0231: real time    0.0232
     EDDAV:  cpu time   92.1694: real time   92.3878
    CHARGE:  cpu time    2.3273: real time    2.3502
    MIXING:  cpu time    0.0085: real time    0.0588
    --------------------------------------------
      LOOP:  cpu time   94.6828: real time   94.9749

 eigenvalue-minimisations  : 33104
 total energy-change (2. order) :-0.7703141E-01  (-0.8199960E+00)
 number of electron     395.9999955 magnetization       2.5906147
 augmentation part      130.1554270 magnetization       1.2872735

 Broyden mixing:
  rms(total) = 0.25329E+01    rms(broyden)= 0.25326E+01
  rms(prec ) = 0.29724E+01
  weight for this iteration     100.00

 eigenvalues of (default mixing * dielectric matrix)
  average eigenvalue GAMMA=   0.5135
  1.9450  0.8116  0.8116  0.4756  0.4756  0.3879  0.1954  0.1510  0.1379  0.1379
  0.1190

 Free energy of the ion-electron system (eV)
  ---------------------------------------------------
  alpha Z        PSCENC =      1335.31602646
  Ewald energy   TEWEN  =    -21199.73786952
  -Hartree energ DENC   =    -14349.47241889
  -exchange      EXHF   =         0.00000000
  -V(xc)+E(xc)   XCENC  =      1611.99282513
  PAW double counting   =     49640.61330475   -51059.91227868
  entropy T*S    EENTRO =        -0.04773332
  eigenvalues    EBANDS =     -1105.60913943
  atomic energy  EATOM  =     34890.38139807
  Solvation  Ediel_sol  =         0.00000000
  ---------------------------------------------------
  free energy    TOTEN  =      -236.47588543 eV

  energy without entropy =     -236.42815211  energy(sigma->0) =     -236.45201877


--------------------------------------------------------------------------------------------------------




--------------------------------------- Iteration      1(  17)  ---------------------------------------


    POTLOK:  cpu time    0.1400: real time    0.1404
    SETDIJ:  cpu time    0.0207: real time    0.0208
     EDDAV:  cpu time   95.9602: real time   96.1878
    CHARGE:  cpu time    2.9264: real time    2.9514
    MIXING:  cpu time    0.0079: real time    0.2599
    --------------------------------------------
      LOOP:  cpu time   99.0553: real time   99.5602

 eigenvalue-minimisations  : 33744
 total energy-change (2. order) : 0.1144026E+00  (-0.6920572E+00)
 number of electron     395.9999955 magnetization       2.0893432
 augmentation part      130.2898843 magnetization       0.8455280

 Broyden mixing:
  rms(total) = 0.22034E+01    rms(broyden)= 0.22031E+01
  rms(prec ) = 0.26374E+01
  weight for this iteration     100.00

 eigenvalues of (default mixing * dielectric matrix)
  average eigenvalue GAMMA=   0.5283
  1.9863  0.9896  0.9896  0.4736  0.4736  0.4858  0.2135  0.1919  0.1462  0.1462
  0.1281  0.1154

 Free energy of the ion-electron system (eV)
  ---------------------------------------------------
  alpha Z        PSCENC =      1335.31602646
  Ewald energy   TEWEN  =    -21199.73786952
  -Hartree energ DENC   =    -14349.37920472
  -exchange      EXHF   =         0.00000000
  -V(xc)+E(xc)   XCENC  =      1611.85091122
  PAW double counting   =     49864.81606521   -51282.64159865
  entropy T*S    EENTRO =        -0.05024223
  eigenvalues    EBANDS =     -1106.91696864
  atomic energy  EATOM  =     34890.38139807
  Solvation  Ediel_sol  =         0.00000000
  ---------------------------------------------------
  free energy    TOTEN  =      -236.36148280 eV

  energy without entropy =     -236.31124057  energy(sigma->0) =     -236.33636169


--------------------------------------------------------------------------------------------------------




--------------------------------------- Iteration      1(  18)  ---------------------------------------


    POTLOK:  cpu time    0.1729: real time    0.1733
    SETDIJ:  cpu time    0.0254: real time    0.0255
     EDDAV:  cpu time  106.3906: real time  106.6427
    CHARGE:  cpu time    3.2815: real time    3.2893
    MIXING:  cpu time    0.0062: real time    0.0094
    --------------------------------------------
      LOOP:  cpu time  109.8766: real time  110.1401

 eigenvalue-minimisations  : 38800
 total energy-change (2. order) : 0.2114554E+00  (-0.7689009E+00)
 number of electron     395.9999956 magnetization       1.8211172
 augmentation part      130.2122294 magnetization       0.5800474

 Broyden mixing:
  rms(total) = 0.18157E+01    rms(broyden)= 0.18154E+01
  rms(prec ) = 0.24109E+01
  weight for this iteration     100.00

 eigenvalues of (default mixing * dielectric matrix)
  average eigenvalue GAMMA=   0.5363
  1.8030  1.2136  1.2136  0.6287  0.4435  0.4435  0.3239  0.2249  0.1514  0.1514
  0.1304  0.1304  0.1131

 Free energy of the ion-electron system (eV)
  ---------------------------------------------------
  alpha Z        PSCENC =      1335.31602646
  Ewald energy   TEWEN  =    -21199.73786952
  -Hartree energ DENC   =    -14353.62885592
  -exchange      EXHF   =         0.00000000
  -V(xc)+E(xc)   XCENC  =      1611.71712182
  PAW double counting   =     50043.12150189   -51459.23968938
  entropy T*S    EENTRO =        -0.04856899
  eigenvalues    EBANDS =     -1104.03109179
  atomic energy  EATOM  =     34890.38139807
  Solvation  Ediel_sol  =         0.00000000
  ---------------------------------------------------
  free energy    TOTEN  =      -236.15002736 eV

  energy without entropy =     -236.10145837  energy(sigma->0) =     -236.12574286


--------------------------------------------------------------------------------------------------------




--------------------------------------- Iteration      1(  19)  ---------------------------------------


    POTLOK:  cpu time    0.1571: real time    0.1575
    SETDIJ:  cpu time    0.0237: real time    0.0237
     EDDAV:  cpu time   99.7879: real time  100.0244
    CHARGE:  cpu time    3.2313: real time    3.2674
    MIXING:  cpu time    0.0062: real time    0.0096
    --------------------------------------------
      LOOP:  cpu time  103.2062: real time  103.4826

 eigenvalue-minimisations  : 36400
 total energy-change (2. order) :-0.6099393E-01  (-0.8864597E+00)
 number of electron     395.9999954 magnetization       1.5836005
 augmentation part      129.9975328 magnetization       0.5299828

 Broyden mixing:
  rms(total) = 0.17305E+01    rms(broyden)= 0.17301E+01
  rms(prec ) = 0.23167E+01
  weight for this iteration     100.00

 eigenvalues of (default mixing * dielectric matrix)
  average eigenvalue GAMMA=   0.5594
  1.8997  1.8997  0.8000  0.8000  0.5405  0.4139  0.4139  0.2353  0.1787  0.1442
  0.1442  0.1320  0.1232  0.1066

 Free energy of the ion-electron system (eV)
  ---------------------------------------------------
  alpha Z        PSCENC =      1335.31602646
  Ewald energy   TEWEN  =    -21199.73786952
  -Hartree energ DENC   =    -14358.33895508
  -exchange      EXHF   =         0.00000000
  -V(xc)+E(xc)   XCENC  =      1611.60060411
  PAW double counting   =     50131.13519232   -51542.79993625
  entropy T*S    EENTRO =        -0.04738952
  eigenvalues    EBANDS =     -1103.72009189
  atomic energy  EATOM  =     34890.38139807
  Solvation  Ediel_sol  =         0.00000000
  ---------------------------------------------------
  free energy    TOTEN  =      -236.21102129 eV

  energy without entropy =     -236.16363177  energy(sigma->0) =     -236.18732653


--------------------------------------------------------------------------------------------------------




--------------------------------------- Iteration      1(  20)  ---------------------------------------


    POTLOK:  cpu time    0.1531: real time    0.1534
    SETDIJ:  cpu time    0.0232: real time    0.0232
     EDDAV:  cpu time  103.3677: real time  103.6128
    CHARGE:  cpu time    2.5468: real time    2.5656
    MIXING:  cpu time    0.0058: real time    0.0147
    --------------------------------------------
      LOOP:  cpu time  106.0965: real time  106.3697

 eigenvalue-minimisations  : 38288
 total energy-change (2. order) : 0.4623217E+00  (-0.5067516E+00)
 number of electron     395.9999955 magnetization       1.5347830
 augmentation part      129.9918905 magnetization       0.2490788

 Broyden mixing:
  rms(total) = 0.11885E+01    rms(broyden)= 0.11881E+01
  rms(prec ) = 0.15043E+01
  weight for this iteration     100.00

 eigenvalues of (default mixing * dielectric matrix)
  average eigenvalue GAMMA=   0.5567
  1.9868  1.9868  0.8691  0.6882  0.6882  0.4187  0.4187  0.2837  0.1838  0.1838
  0.1448  0.1448  0.1267  0.1210  0.1050

 Free energy of the ion-electron system (eV)
  ---------------------------------------------------
  alpha Z        PSCENC =      1335.31602646
  Ewald energy   TEWEN  =    -21199.73786952
  -Hartree energ DENC   =    -14361.88276378
  -exchange      EXHF   =         0.00000000
  -V(xc)+E(xc)   XCENC  =      1611.56540028
  PAW double counting   =     50218.39612185   -51626.48891270
  entropy T*S    EENTRO =        -0.04735995
  eigenvalues    EBANDS =     -1103.25074031
  atomic energy  EATOM  =     34890.38139807
  Solvation  Ediel_sol  =         0.00000000
  ---------------------------------------------------
  free energy    TOTEN  =      -235.74869960 eV

  energy without entropy =     -235.70133965  energy(sigma->0) =     -235.72501963


--------------------------------------------------------------------------------------------------------




--------------------------------------- Iteration      1(  21)  ---------------------------------------


    POTLOK:  cpu time    0.1383: real time    0.1386
    SETDIJ:  cpu time    0.0221: real time    0.0221
     EDDAV:  cpu time  100.3096: real time  100.5477
    CHARGE:  cpu time    3.1697: real time    3.2050
    MIXING:  cpu time    0.0079: real time    0.0292
    --------------------------------------------
      LOOP:  cpu time  103.6475: real time  103.9426

 eigenvalue-minimisations  : 38096
 total energy-change (2. order) : 0.2179099E+00  (-0.2016399E+00)
 number of electron     395.9999956 magnetization       1.5303978
 augmentation part      130.2828836 magnetization       0.4068162

 Broyden mixing:
  rms(total) = 0.83981E+00    rms(broyden)= 0.83959E+00
  rms(prec ) = 0.10912E+01
  weight for this iteration     100.00

 eigenvalues of (default mixing * dielectric matrix)
  average eigenvalue GAMMA=   0.5530
  2.0420  2.0420  0.9326  0.7047  0.7047  0.4378  0.4378  0.3469  0.2082  0.2082
  0.1469  0.1469  0.1330  0.1330  0.1182  0.1044

 Free energy of the ion-electron system (eV)
  ---------------------------------------------------
  alpha Z        PSCENC =      1335.31602646
  Ewald energy   TEWEN  =    -21199.73786952
  -Hartree energ DENC   =    -14360.62527008
  -exchange      EXHF   =         0.00000000
  -V(xc)+E(xc)   XCENC  =      1611.58647555
  PAW double counting   =     50267.03351686   -51673.75934061
  entropy T*S    EENTRO =        -0.04966410
  eigenvalues    EBANDS =     -1105.67606231
  atomic energy  EATOM  =     34890.38139807
  Solvation  Ediel_sol  =         0.00000000
  ---------------------------------------------------
  free energy    TOTEN  =      -235.53078967 eV

  energy without entropy =     -235.48112557  energy(sigma->0) =     -235.50595762


--------------------------------------------------------------------------------------------------------




--------------------------------------- Iteration      1(  22)  ---------------------------------------


    POTLOK:  cpu time    0.1583: real time    0.1587
    SETDIJ:  cpu time    0.0237: real time    0.0237
     EDDAV:  cpu time   96.4691: real time   96.6977
    CHARGE:  cpu time    2.9788: real time    2.9859
    MIXING:  cpu time    0.0065: real time    0.0065
    --------------------------------------------
      LOOP:  cpu time   99.6363: real time   99.8723

 eigenvalue-minimisations  : 35984
 total energy-change (2. order) : 0.9056590E-01  (-0.1171835E+00)
 number of electron     395.9999955 magnetization       1.5466018
 augmentation part      130.3908030 magnetization       0.2284692

 Broyden mixing:
  rms(total) = 0.64968E+00    rms(broyden)= 0.64952E+00
  rms(prec ) = 0.80382E+00
  weight for this iteration     100.00

 eigenvalues of (default mixing * dielectric matrix)
  average eigenvalue GAMMA=   0.5413
  2.0657  2.0657  0.9224  0.7312  0.7312  0.4522  0.4522  0.3919  0.2314  0.2314
  0.1593  0.1462  0.1462  0.1301  0.1275  0.1134  0.1038

 Free energy of the ion-electron system (eV)
  ---------------------------------------------------
  alpha Z        PSCENC =      1335.31602646
  Ewald energy   TEWEN  =    -21199.73786952
  -Hartree energ DENC   =    -14359.83516477
  -exchange      EXHF   =         0.00000000
  -V(xc)+E(xc)   XCENC  =      1611.62213439
  PAW double counting   =     50298.31729693   -51704.65660202
  entropy T*S    EENTRO =        -0.04747074
  eigenvalues    EBANDS =     -1106.79997257
  atomic energy  EATOM  =     34890.38139807
  Solvation  Ediel_sol  =         0.00000000
  ---------------------------------------------------
  free energy    TOTEN  =      -235.44022377 eV

  energy without entropy =     -235.39275304  energy(sigma->0) =     -235.41648840


--------------------------------------------------------------------------------------------------------




--------------------------------------- Iteration      1(  23)  ---------------------------------------


    POTLOK:  cpu time    0.1546: real time    0.1550
    SETDIJ:  cpu time    0.0229: real time    0.0230
     EDDAV:  cpu time  107.4708: real time  107.7255
    CHARGE:  cpu time    3.1108: real time    3.1182
    MIXING:  cpu time    0.0064: real time    0.0064
    --------------------------------------------
      LOOP:  cpu time  110.7656: real time  111.0282

 eigenvalue-minimisations  : 41088
 total energy-change (2. order) : 0.6657314E-01  (-0.4226400E-01)
 number of electron     395.9999956 magnetization       1.6427735
 augmentation part      130.4204272 magnetization       0.3666764

 Broyden mixing:
  rms(total) = 0.47721E+00    rms(broyden)= 0.47713E+00
  rms(prec ) = 0.55012E+00
  weight for this iteration     100.00

 eigenvalues of (default mixing * dielectric matrix)
  average eigenvalue GAMMA=   0.5288
  2.1001  2.1001  0.8702  0.7588  0.7588  0.4600  0.4600  0.4179  0.2564  0.2564
  0.1664  0.1664  0.1422  0.1422  0.1234  0.1234  0.1125  0.1026

 Free energy of the ion-electron system (eV)
  ---------------------------------------------------
  alpha Z        PSCENC =      1335.31602646
  Ewald energy   TEWEN  =    -21199.73786952
  -Hartree energ DENC   =    -14360.78931075
  -exchange      EXHF   =         0.00000000
  -V(xc)+E(xc)   XCENC  =      1611.66905036
  PAW double counting   =     50321.60174633   -51728.03875043
  entropy T*S    EENTRO =        -0.04920450
  eigenvalues    EBANDS =     -1105.72673665
  atomic energy  EATOM  =     34890.38139807
  Solvation  Ediel_sol  =         0.00000000
  ---------------------------------------------------
  free energy    TOTEN  =      -235.37365063 eV

  energy without entropy =     -235.32444613  energy(sigma->0) =     -235.34904838


--------------------------------------------------------------------------------------------------------




--------------------------------------- Iteration      1(  24)  ---------------------------------------


    POTLOK:  cpu time    0.1490: real time    0.1493
    SETDIJ:  cpu time    0.0228: real time    0.0229
     EDDAV:  cpu time  110.0721: real time  110.3331
    CHARGE:  cpu time    3.2250: real time    3.2584
    MIXING:  cpu time    0.0073: real time    0.0104
    --------------------------------------------
      LOOP:  cpu time  113.4762: real time  113.7741

 eigenvalue-minimisations  : 42464
 total energy-change (2. order) : 0.1900152E-01  (-0.1147226E-01)
 number of electron     395.9999956 magnetization       1.8156094
 augmentation part      130.3506260 magnetization       0.5031449

 Broyden mixing:
  rms(total) = 0.41995E+00    rms(broyden)= 0.41993E+00
  rms(prec ) = 0.47283E+00
  weight for this iteration     100.00

 eigenvalues of (default mixing * dielectric matrix)
  average eigenvalue GAMMA=   0.5422
  2.1529  2.1529  0.8436  0.8436  0.8286  0.5363  0.5363  0.3883  0.3883  0.3214
  0.2039  0.2039  0.1459  0.1459  0.1464  0.1258  0.1258  0.1102  0.1025

 Free energy of the ion-electron system (eV)
  ---------------------------------------------------
  alpha Z        PSCENC =      1335.31602646
  Ewald energy   TEWEN  =    -21199.73786952
  -Hartree energ DENC   =    -14361.76541038
  -exchange      EXHF   =         0.00000000
  -V(xc)+E(xc)   XCENC  =      1611.70974778
  PAW double counting   =     50309.21684898   -51715.62651792
  entropy T*S    EENTRO =        -0.04823197
  eigenvalues    EBANDS =     -1104.80064061
  atomic energy  EATOM  =     34890.38139807
  Solvation  Ediel_sol  =         0.00000000
  ---------------------------------------------------
  free energy    TOTEN  =      -235.35464911 eV

  energy without entropy =     -235.30641714  energy(sigma->0) =     -235.33053312


--------------------------------------------------------------------------------------------------------




--------------------------------------- Iteration      1(  25)  ---------------------------------------


    POTLOK:  cpu time    0.1573: real time    0.1577
    SETDIJ:  cpu time    0.0234: real time    0.0235
     EDDAV:  cpu time  100.8664: real time  101.1054
    CHARGE:  cpu time    3.1120: real time    3.1434
    MIXING:  cpu time    0.0069: real time    0.0070
    --------------------------------------------
      LOOP:  cpu time  104.1661: real time  104.4369

 eigenvalue-minimisations  : 37856
 total energy-change (2. order) :-0.5144167E-02  (-0.1212812E-01)
 number of electron     395.9999956 magnetization       2.0907567
 augmentation part      130.2972054 magnetization       0.7062204

 Broyden mixing:
  rms(total) = 0.37480E+00    rms(broyden)= 0.37476E+00
  rms(prec ) = 0.44374E+00
  weight for this iteration     100.00

 eigenvalues of (default mixing * dielectric matrix)
  average eigenvalue GAMMA=   0.5682
  2.1790  2.1790  1.0807  1.0807  0.9335  0.6270  0.6270  0.4217  0.4217  0.3252
  0.2232  0.2004  0.1749  0.1455  0.1455  0.1345  0.1299  0.1222  0.1095  0.1020

 Free energy of the ion-electron system (eV)
  ---------------------------------------------------
  alpha Z        PSCENC =      1335.31602646
  Ewald energy   TEWEN  =    -21199.73786952
  -Hartree energ DENC   =    -14363.07050127
  -exchange      EXHF   =         0.00000000
  -V(xc)+E(xc)   XCENC  =      1611.75503032
[...]
  in kB     1107.4856416   1105.8331668    530.4422273    -17.3616127   -140.0648070    -99.6679626
  external PRESSURE =     914.5870119 kB  Pullay stress =       0.0000000 kB


 VOLUME and BASIS-vectors are now :
 -----------------------------------------------------------------------------
  energy-cutoff  :      500.00
  volume of cell :      519.49
      direct lattice vectors                 reciprocal lattice vectors
     8.153798250  0.000000000  0.000000000     0.122642230  0.070807524  0.000000000
    -4.076899120  7.061396420  0.000000000     0.000000000  0.141615049  0.000000000
     0.000000000  0.000000000  9.022445250     0.000000000  0.000000000  0.110834699

  length of vectors
     8.153798250  8.153798246  9.022445250     0.141615049  0.141615049  0.110834699


 FORCES acting on ions
    electron-ion (+dipol)            ewald-force                    non-local-force                 convergence-correction
 -----------------------------------------------------------------------------------------------
   -.126E+03 0.416E+02 -.172E+03   0.135E+03 -.359E+02 0.184E+03   -.527E+01 0.198E+01 -.229E+01   -.926E-02 -.615E-02 -.359E-02
   -.190E+03 0.880E+01 0.926E+02   0.208E+03 -.705E+01 -.950E+02   -.746E+01 -.666E-01 0.280E+00   -.149E-01 -.245E-02 -.808E-03
   0.200E+02 -.835E+02 -.224E+02   -.294E+02 0.881E+02 0.226E+02   -.491E+00 -.357E+01 -.129E+01   0.115E-02 -.357E-02 -.315E-02
   -.153E+03 0.210E+03 -.481E+02   0.177E+03 -.256E+03 0.332E+02   -.177E+01 0.893E+01 0.154E+01   -.282E-02 -.598E-02 -.163E-02
   -.177E+03 -.205E+03 0.130E+03   0.203E+03 0.227E+03 -.145E+03   -.145E+01 -.287E+01 0.174E+01   -.371E-03 0.635E-02 -.311E-02
   0.408E+02 -.338E+03 0.585E+02   -.578E+02 0.362E+03 -.726E+02   0.497E+01 -.615E+01 0.501E+01   -.464E-02 0.123E-02 0.194E-02
   -.462E+03 -.792E+02 0.714E+02   0.500E+03 0.763E+02 -.689E+02   -.934E+01 -.113E+01 -.538E+00   0.230E-02 -.112E-01 -.409E-02
   -.597E+02 -.386E+02 0.114E+03   0.627E+02 0.364E+02 -.112E+03   -.529E-02 0.933E+00 0.321E+01   0.232E-02 0.443E-03 0.305E-02
   0.843E+02 -.862E+00 0.139E+02   -.981E+02 -.752E+01 -.443E+01   0.375E+01 0.301E+01 -.301E+01   -.230E-02 0.698E-02 -.205E-02
   -.136E+03 -.180E+03 0.129E+03   0.139E+03 0.187E+03 -.137E+03   -.391E+00 -.728E+00 -.224E+00   0.197E-02 0.229E-03 0.562E-03
   -.100E+03 -.268E+03 -.752E+02   0.101E+03 0.279E+03 0.746E+02   -.174E+01 -.258E+01 -.242E+01   0.418E-02 0.675E-02 -.280E-02
   -.135E+03 -.446E+02 -.294E+02   0.146E+03 0.497E+02 0.262E+02   -.557E+01 -.309E+01 0.451E+01   0.797E-02 0.224E-02 0.310E-02
   0.539E+03 0.274E+03 -.266E+03   -.586E+03 -.301E+03 0.299E+03   0.922E+01 0.255E+01 -.274E+01   0.894E-03 -.103E-01 -.261E-02
   0.366E+03 0.127E+02 0.359E+01   -.389E+03 -.114E+02 0.582E-01   0.695E+01 -.244E+01 -.400E+00   0.551E-02 -.161E-02 -.204E-02
   0.157E+03 0.210E+03 -.578E+02   -.157E+03 -.219E+03 0.613E+02   -.172E+01 0.393E+01 -.522E+00   0.215E-02 -.264E-03 -.198E-02
   0.273E+03 0.174E+03 0.135E+03   -.285E+03 -.177E+03 -.137E+03   0.386E+00 0.806E+00 0.154E+01   0.265E-02 -.326E-02 0.531E-03
   -.386E+02 -.169E+03 -.585E+02   0.646E+02 0.223E+03 0.805E+02   -.126E+01 -.460E+01 -.186E+01   -.482E-02 0.113E-01 -.391E-02
   0.119E+03 0.132E+03 0.102E+03   -.120E+03 -.135E+03 -.115E+03   0.240E+01 0.278E+01 -.975E+00   -.356E-02 0.888E-02 0.123E-02
   -.184E+03 -.216E+02 -.432E+03   0.206E+03 0.197E+02 0.462E+03   -.118E+02 -.410E+00 -.217E+02   -.215E-02 -.551E-02 0.272E-02
   -.224E+02 -.255E+02 0.427E+03   0.124E+02 0.300E+02 -.457E+03   0.944E+01 -.296E+01 0.278E+02   -.191E-02 -.468E-02 0.292E-02
   -.874E+01 -.878E+01 -.349E+03   0.243E+01 -.101E+01 0.377E+03   0.245E+01 0.638E+01 -.224E+02   -.610E-02 -.553E-02 -.508E-03
   0.878E+02 -.100E+03 0.282E+03   -.122E+03 0.114E+03 -.308E+03   0.148E+02 -.207E+01 0.133E+02   -.565E-02 -.669E-02 -.548E-02
   0.297E+02 -.617E+02 -.442E+03   -.371E+02 0.559E+02 0.473E+03   0.741E+01 0.502E+01 -.245E+02   0.347E-02 0.264E-02 0.262E-02
   -.743E+02 -.217E+02 0.409E+03   0.754E+02 0.174E+02 -.436E+03   -.664E+00 0.582E+01 0.278E+02   -.225E-02 0.199E-03 -.510E-04
   0.488E+01 -.162E+03 -.472E+03   -.238E+02 0.189E+03 0.526E+03   0.963E+01 -.307E+01 -.268E+02   0.154E-02 -.278E-02 0.101E-02
   -.183E+03 -.136E+03 0.471E+03   0.199E+03 0.148E+03 -.508E+03   -.596E+01 -.454E+01 0.263E+02   0.133E-02 0.439E-02 -.580E-02
   0.786E+02 0.136E+03 -.481E+03   -.964E+02 -.154E+03 0.516E+03   0.922E+01 0.998E+01 -.244E+02   -.255E-02 -.269E-02 0.151E-02
   0.886E+01 -.591E+02 0.367E+03   -.984E+01 0.637E+02 -.398E+03   -.264E+01 -.413E+01 0.284E+02   0.151E-02 0.331E-02 0.902E-03
   -.158E+03 0.513E+02 -.260E+03   0.166E+03 -.515E+02 0.278E+03   -.663E+01 -.141E+01 -.192E+02   -.280E-02 -.116E-02 -.309E-02
   -.137E+03 0.123E+03 0.402E+03   0.142E+03 -.138E+03 -.429E+03   -.440E+01 0.855E+01 0.219E+02   0.250E-02 -.221E-02 -.443E-02
   -.898E+02 -.577E+02 -.467E+03   0.916E+02 0.601E+02 0.496E+03   -.160E+00 -.143E+00 -.297E+02   0.110E-02 -.106E-02 0.742E-02
   -.420E+02 -.572E+02 0.341E+03   0.545E+02 0.561E+02 -.359E+03   -.118E+02 0.374E+01 0.166E+02   0.386E-02 -.315E-02 0.498E-02
   -.145E+03 0.264E+02 -.319E+03   0.163E+03 -.328E+02 0.347E+03   -.118E+02 0.378E+01 -.246E+02   0.361E-02 -.143E-02 -.467E-03
   0.133E+03 0.932E+02 0.268E+03   -.137E+03 -.981E+02 -.290E+03   0.281E+01 0.574E+01 0.242E+02   0.615E-02 -.693E-02 -.294E-02
   -.114E+03 0.178E+01 -.462E+03   0.132E+03 -.469E+01 0.487E+03   -.149E+02 -.693E+00 -.209E+02   0.131E-02 0.631E-02 0.155E-02
   0.509E+02 0.185E+02 0.389E+03   -.528E+02 -.137E+02 -.409E+03   0.249E+00 -.568E+01 0.188E+02   0.774E-03 0.265E-02 0.893E-03
   0.188E+03 0.954E+02 -.335E+03   -.212E+03 -.106E+03 0.364E+03   0.122E+02 0.461E+01 -.214E+02   -.154E-03 0.519E-02 0.517E-03
   -.967E+01 0.231E+03 0.346E+03   0.129E+02 -.301E+03 -.388E+03   -.535E+01 0.145E+02 0.184E+02   0.115E-02 0.148E-01 -.373E-02
   -.164E+03 -.364E+02 -.327E+03   0.173E+03 0.395E+02 0.348E+03   -.618E+01 -.379E+01 -.197E+02   0.493E-02 -.219E-02 0.165E-03
   -.264E+02 0.737E+01 0.365E+03   0.288E+02 -.223E+01 -.386E+03   -.448E+00 -.520E+01 0.193E+02   0.403E-02 0.592E-02 0.414E-02
   0.123E+02 0.317E+02 -.302E+03   -.799E+01 -.341E+02 0.319E+03   -.429E+01 0.143E+01 -.156E+02   0.533E-02 0.298E-03 -.336E-02
   0.314E+03 -.143E+03 0.196E+03   -.355E+03 0.170E+03 -.208E+03   0.212E+02 -.115E+02 0.548E+01   0.364E-02 0.262E-02 -.785E-03
   0.215E+03 0.552E+02 -.542E+03   -.230E+03 -.586E+02 0.578E+03   0.789E+01 -.977E+00 -.295E+02   0.633E-03 -.780E-02 0.400E-02
   0.216E+02 -.113E+03 0.520E+03   -.148E+02 0.134E+03 -.561E+03   -.336E+01 -.160E+02 0.323E+02   -.446E-02 -.626E-02 0.883E-02
   0.615E+02 0.756E+02 -.313E+03   -.587E+02 -.818E+02 0.341E+03   0.646E+00 0.421E+01 -.250E+02   0.378E-02 -.792E-02 -.385E-02
   -.708E+02 -.764E+02 0.535E+03   0.107E+03 0.108E+03 -.609E+03   -.759E+01 -.973E+01 0.388E+02   -.522E-02 -.110E-01 0.756E-03
   0.145E+03 0.725E+02 -.452E+03   -.178E+03 -.898E+02 0.493E+03   0.961E+01 0.310E+01 -.242E+02   -.828E-02 0.501E-02 0.568E-03
   0.120E+02 0.444E+02 0.531E+03   -.154E+01 -.465E+02 -.566E+03   -.900E+01 0.182E+01 0.286E+02   0.672E-03 -.348E-02 0.992E-03
   -.468E+02 0.111E+03 -.285E+03   0.634E+02 -.124E+03 0.305E+03   -.739E+01 0.614E+01 -.132E+02   -.223E-02 0.277E-02 0.557E-03
   0.178E+02 -.161E+02 0.405E+03   -.907E+01 0.158E+02 -.436E+03   -.761E+01 0.119E+01 0.221E+02   0.270E-02 0.435E-03 -.646E-02
   0.385E+02 0.105E+03 -.473E+03   -.394E+02 -.116E+03 0.497E+03   0.182E+01 0.116E+02 -.228E+02   -.290E-02 0.118E-02 -.286E-02
   0.192E+02 0.126E+02 0.459E+03   -.237E+02 -.148E+02 -.485E+03   0.337E+01 0.526E+01 0.229E+02   -.497E-02 0.476E-02 0.278E-02
   0.485E+02 0.196E+02 -.446E+03   -.463E+02 -.186E+02 0.493E+03   -.345E+01 0.587E+00 -.360E+02   -.382E-02 0.616E-02 -.597E-02
   -.146E+02 0.958E+02 0.332E+03   0.121E+02 -.113E+03 -.363E+03   0.258E+01 0.657E+01 0.210E+02   -.704E-02 0.288E-02 -.217E-02
 -----------------------------------------------------------------------------------------------
   0.189E+02 -.354E+02 0.600E+01   0.352E-12 0.426E-13 -.171E-12   -.189E+02 0.354E+02 -.597E+01   -.200E-01 -.113E-01 -.235E-01
 
 
 POSITION                                       TOTAL-FORCE (eV/Angst)
 -----------------------------------------------------------------------------------
      8.09133      0.06786      8.99126         3.767268      7.649320      9.544963
      3.98215      7.02128      4.69793        10.889891      1.684386     -2.078843
     -1.25747      2.41710      9.00489        -9.844213      0.987350     -1.106953
     -1.10882      2.71344      4.88488        22.059411    -36.908156    -13.390473
      5.36606      4.73028      8.86380        24.260261     18.684326    -13.455651
     -2.50428      4.67181      4.57683       -12.039487     17.544196     -9.079229
      2.74933      0.25745      8.97307        28.912822     -4.058941      1.909061
      2.64086      0.11720      4.27974         3.036644     -1.185917      4.576074
      1.59210      2.45258      8.95189       -10.081548     -5.365046      6.430570
      1.42759      2.20635      4.68394         1.922453      6.135596     -8.610610
     -0.11267      4.58573      0.30963        -1.019992      8.275097     -2.989753
     -0.08094      4.57151      4.50404         6.002836      2.049652      1.293954
      6.01029      0.25980      8.98483       -37.851584    -24.309822     30.195110
      6.04720      0.10340      4.71517       -16.387177     -1.137688      3.250681
      4.20747      2.39276      8.88158        -1.456972     -5.290596      3.028752
      4.43578      2.43032      4.54331       -11.180866     -2.250102     -0.494853
      2.72392      4.59216      8.78788        24.697618     49.043904     20.112689
      2.74197      4.87509      4.93521         1.135257     -0.506552    -13.612552
     -0.10036      1.65653      0.58219        10.371467     -2.287524      8.890342
      1.17463      0.58716      3.63095        -0.553959      1.538625     -2.477069
      0.13790      1.69154      5.44881        -3.863098     -3.411996      5.470953
      1.51368      0.77212      8.63892       -19.308192     11.189948    -12.656526
     -1.59026      4.04796      0.70742         0.076664     -0.765817      6.646177
      0.06980      2.84714      3.45855         0.468852      1.536650      0.579700
     -1.75619      3.72396      5.27178        -9.302591     23.291494     27.116797
     -0.33878      3.26429      8.22093        10.976033      6.895586    -11.165716
     -2.37786      6.55839      0.73527        -8.591239     -7.924464     10.872474
     -1.15083      5.49954      3.63748        -3.617466      0.500858     -3.039758
     -2.84930      6.78369      5.95746         1.304601     -1.597575     -1.323049
     -1.34990      6.01200      8.04526         0.764541     -6.466720     -4.946940
      2.85611      1.65396      1.07123         1.684864      2.224204      0.095216
      4.23177      0.50834      3.61462         0.771959      2.663598     -1.426887
      2.62226      1.84619      5.63281         5.646884     -2.679767      3.492292
      4.67005      0.79732      7.77654        -1.762058      0.796987      1.929771
      1.12585      3.98589      1.05423         3.204248     -3.597025      4.053845
      2.85577      3.23552      3.81318        -1.704353     -0.858862     -1.021747
      1.49423      4.41039      5.57147       -11.636302     -5.722424      7.288453
      2.57733      3.45215      8.46597        -2.077879    -55.615968    -23.888537
     -0.33962      6.31139      0.99218         2.691790     -0.694128      1.905111
      1.18425      5.59575      3.79150         1.910534     -0.051254     -1.773569
     -0.02162      6.66447      5.35456         0.074827     -0.976959      1.486463
      1.69611      5.45938      8.59733       -20.158743     16.060419     -6.541759
      5.90908      1.84033      1.03127        -7.662788     -4.375996      6.540349
      6.93346      0.72747      3.66597         3.449507      4.964630     -8.439523
      5.48013      1.67510      5.50524         3.363995     -1.973158      3.233703
      6.82503      0.82240      8.22438        29.036520     21.938592    -35.051276
      4.28487      4.13979      0.37055       -22.866967    -14.172122     17.210108
      5.52535      3.18342      3.64072         1.435139     -0.247792     -6.883421
      4.02805      4.14993      5.23652         9.227942     -6.906575      7.272547
      5.51247      3.09574      8.23908         1.095983      0.860754     -8.245815
      2.77717      6.26851      1.21781         0.989662      0.987080      0.846072
      4.24861      5.41047      3.79461        -1.133110      3.054427     -2.757653
      2.97137      6.25503      5.66230        -1.217563      1.617944     11.172297
      4.09582      5.83764      8.31244         0.087673    -10.836677     -9.986366
 -----------------------------------------------------------------------------------
    total drift:                                0.026143     -0.012922      0.001303


--------------------------------------------------------------------------------------------------------



  FREE ENERGIE OF THE ION-ELECTRON SYSTEM (eV)
  ---------------------------------------------------
  free  energy   TOTEN  =      -235.3577828223 eV

  energy  without entropy=     -235.3135068851  energy(sigma->0) =     -235.33564485
 


--------------------------------------------------------------------------------------------------------


    POTLOK:  cpu time    0.1779: real time    0.1783


--------------------------------------------------------------------------------------------------------


     LOOP+:  cpu time 5315.2372: real time 5328.8193
    4ORBIT:  cpu time    0.0000: real time    0.0000

volume of typ            1:    22.1 %

volume of typ            2:    11.3 %
 
total charge     
 
# of ion       s       p       d       tot
------------------------------------------
    1        0.403   0.684   8.076   9.162
    2        0.373   0.603   7.974   8.950
    3        0.502   0.917   8.127   9.546
    4        0.476   0.740   8.197   9.413
    5        0.451   0.699   8.122   9.272
    6        0.398   0.643   8.085   9.126
    7        0.489   0.841   8.133   9.462
    8        0.314   0.421   7.880   8.615
    9        0.351   0.507   8.031   8.889
   10        0.370   0.525   7.943   8.838
   11        0.381   0.529   7.938   8.848
   12        0.298   0.399   7.963   8.660
   13        0.468   0.692   8.197   9.356
   14        0.371   0.549   8.021   8.942
   15        0.303   0.395   7.965   8.663
   16        0.348   0.482   7.923   8.753
   17        0.642   1.032   8.353  10.027
   18        0.471   0.730   8.051   9.252
   19        1.289   2.901   0.022   4.211
   20        1.290   2.765   0.013   4.068
   21        1.284   2.844   0.018   4.145
   22        1.299   2.952   0.039   4.290
   23        1.295   2.853   0.021   4.168
   24        1.298   2.682   0.007   3.986
   25        1.326   3.072   0.070   4.468
   26        1.287   2.879   0.021   4.187
   27        1.320   2.769   0.021   4.110
   28        1.288   2.775   0.014   4.077
   29        1.306   2.637   0.005   3.948
   30        1.294   2.748   0.011   4.053
   31        1.289   2.739   0.009   4.037
   32        1.314   2.638   0.008   3.960
   33        1.295   2.734   0.012   4.041
   34        1.298   2.667   0.005   3.970
   35        1.304   2.757   0.014   4.075
   36        1.292   2.704   0.006   4.002
   37        1.288   2.824   0.018   4.131
   38        1.327   3.093   0.070   4.489
   39        1.295   2.710   0.007   4.012
   40        1.308   2.675   0.008   3.992
   41        1.313   2.631   0.006   3.949
   42        1.308   2.891   0.028   4.227
   43        1.299   2.785   0.015   4.098
   44        1.303   2.796   0.022   4.121
   45        1.292   2.782   0.014   4.089
   46        1.323   2.989   0.057   4.368
   47        1.303   2.974   0.039   4.316
   48        1.301   2.785   0.017   4.103
   49        1.300   2.832   0.022   4.153
   50        1.286   2.865   0.019   4.170
   51        1.303   2.674   0.007   3.984
   52        1.296   2.744   0.010   4.051
   53        1.284   2.912   0.029   4.225
   54        1.288   2.908   0.023   4.220
--------------------------------------------------
tot          54.19  112.37  145.70  312.27
 
magnetization (x)
 
# of ion       s       p       d       tot
------------------------------------------
    1        0.001   0.001  -0.001  -0.000
    2        0.001  -0.000   0.088   0.089
    3        0.000   0.001  -0.019  -0.018
    4        0.000   0.005   0.221   0.226
    5        0.000  -0.000  -0.066  -0.066
    6       -0.001   0.003   0.079   0.082
    7        0.000   0.001   0.017   0.018
    8       -0.001  -0.001   0.010   0.008
    9       -0.000  -0.000  -0.022  -0.022
   10       -0.001  -0.002  -0.048  -0.051
   11       -0.000  -0.001  -0.032  -0.033
   12       -0.002   0.002   0.331   0.331
   13        0.001   0.001  -0.057  -0.055
   14       -0.001  -0.004   0.399   0.394
   15       -0.006  -0.002  -0.372  -0.381
   16       -0.002   0.002   0.076   0.076
   17       -0.002  -0.005  -0.078  -0.084
   18        0.001  -0.002   0.122   0.121
   19        0.000   0.008  -0.000   0.009
   20       -0.001   0.005   0.000   0.004
   21        0.002   0.014   0.000   0.016
   22       -0.000   0.011   0.000   0.011
   23       -0.000  -0.001  -0.000  -0.002
   24        0.004   0.162   0.000   0.166
   25        0.002   0.003   0.001   0.007
   26       -0.000  -0.003  -0.000  -0.003
   27       -0.000  -0.010   0.000  -0.010
   28        0.001   0.045   0.000   0.046
   29       -0.000  -0.038   0.000  -0.039
   30        0.000   0.005   0.000   0.006
   31       -0.000  -0.013   0.000  -0.014
   32        0.011   0.413   0.000   0.424
   33       -0.000  -0.025   0.000  -0.026
   34       -0.000  -0.013  -0.000  -0.013
   35       -0.001  -0.032  -0.000  -0.033
   36       -0.001  -0.030   0.000  -0.031
   37        0.002   0.071   0.000   0.073
   38       -0.005  -0.022  -0.000  -0.027
   39        0.001   0.018   0.000   0.019
   40        0.011   0.416   0.000   0.428
   41        0.011   0.460   0.000   0.471
   42       -0.003  -0.064  -0.000  -0.068
   43       -0.004  -0.186  -0.000  -0.190
   44        0.003   0.133   0.000   0.136
   45        0.001   0.029   0.000   0.031
   46        0.000   0.001  -0.000   0.001
   47       -0.003  -0.052  -0.000  -0.055
   48        0.004   0.157   0.000   0.161
   49        0.003   0.018   0.000   0.022
   50       -0.001  -0.013   0.000  -0.014
   51       -0.002  -0.088  -0.000  -0.090
   52        0.002   0.074   0.000   0.077
   53        0.001   0.045   0.000   0.047
   54       -0.000   0.001   0.000   0.001
--------------------------------------------------
tot           0.03    1.50    0.65    2.17
 

 total amount of memory used by VASP MPI-rank0   294978. kBytes
=======================================================================

   base      :      30000. kBytes
   nonlr-proj:      30641. kBytes
   fftplans  :       5529. kBytes
   grid      :      31150. kBytes
   one-center:       1679. kBytes
   wavefun   :     195979. kBytes
 
  
  
 General timing and accounting informations for this job:
 ========================================================
  
                  Total CPU time used (sec):     5368.001
                            User time (sec):     5361.736
                          System time (sec):        6.265
                         Elapsed time (sec):     5386.002
  
                   Maximum memory used (kb):      383724.
                   Average memory used (kb):           0.
  
                          Minor page faults:       102492
                          Major page faults:           58
                 Voluntary context switches:         1225
