 vasp.5.4.4.18Apr17-6-g9f103f2a35 (build May 12 2020 05:39:39) gamma-only       
  
 MD_VERSION_INFO: Compiled 2020-05-12T12:39:39-UTC in devlin.sd.materialsdesign.
 com:/home/medea2/data/build/wwolf/vasp-gpu5.4.4/13047/x86_64/src/src/build/gam 
 from svn 13047
 
 This VASP executable licensed from Materials Design, Inc.
 
 executed on                        Lin64 date 2023.01.19  13:15:35
 running on   16 total cores
 distrk:  each k-point on   16 cores,    1 groups
 distr:  one band on NCORES_PER_BAND=   1 cores,   16 groups


--------------------------------------------------------------------------------------------------------


 INCAR:
 POTCAR:    PAW_PBE Li_sv 10Sep2004               
 POTCAR:    PAW_PBE Ni 02Aug2007                  
 POTCAR:    PAW_PBE O 08Apr2002                   

 ----------------------------------------------------------------------------- 
|                                                                             |
|           W    W    AA    RRRRR   N    N  II  N    N   GGGG   !!!           |
|           W    W   A  A   R    R  NN   N  II  NN   N  G    G  !!!           |
|           W    W  A    A  R    R  N N  N  II  N N  N  G       !!!           |
|           W WW W  AAAAAA  RRRRR   N  N N  II  N  N N  G  GGG   !            |
|           WW  WW  A    A  R   R   N   NN  II  N   NN  G    G                |
|           W    W  A    A  R    R  N    N  II  N    N   GGGG   !!!           |
|                                                                             |
|      For optimal performance we recommend to set                            |
|        NCORE= 4 - approx SQRT( number of cores)                             |
|      NCORE specifies how many cores store one orbital (NPAR=cpu/NCORE).     |
|      This setting can  greatly improve the performance of VASP for DFT.     |
|      The default,   NCORE=1            might be grossly inefficient         |
|      on modern multi-core architectures or massively parallel machines.     |
|      Do your own testing !!!!                                               |
|      Unfortunately you need to use the default for GW and RPA calculations. |
|      (for HF NCORE is supported but not extensively tested yet)             |
|                                                                             |
 ----------------------------------------------------------------------------- 

 POTCAR:    PAW_PBE Li_sv 10Sep2004               
  local pseudopotential read in
  atomic valenz-charges read in
  non local Contribution for L=           0  read in
    real space projection operators read in
  non local Contribution for L=           0  read in
    real space projection operators read in
  non local Contribution for L=           1  read in
    real space projection operators read in
    PAW grid and wavefunctions read in
 
   number of l-projection  operators is LMAX  =           3
   number of lm-projection operators is LMMAX =           5
 
 POTCAR:    PAW_PBE Ni 02Aug2007                  
  local pseudopotential read in
  partial core-charges read in
  partial kinetic energy density read in
  atomic valenz-charges read in
  non local Contribution for L=           2  read in
    real space projection operators read in
  non local Contribution for L=           2  read in
    real space projection operators read in
  non local Contribution for L=           0  read in
    real space projection operators read in
  non local Contribution for L=           0  read in
    real space projection operators read in
  non local Contribution for L=           1  read in
    real space projection operators read in
  non local Contribution for L=           1  read in
    real space projection operators read in
    PAW grid and wavefunctions read in
 
   number of l-projection  operators is LMAX  =           6
   number of lm-projection operators is LMMAX =          18
 
 POTCAR:    PAW_PBE O 08Apr2002                   
  local pseudopotential read in
  partial core-charges read in
  partial kinetic energy density read in
  kinetic energy density of atom read in
  atomic valenz-charges read in
  non local Contribution for L=           0  read in
    real space projection operators read in
  non local Contribution for L=           0  read in
    real space projection operators read in
  non local Contribution for L=           1  read in
    real space projection operators read in
  non local Contribution for L=           1  read in
    real space projection operators read in
    PAW grid and wavefunctions read in
 
   number of l-projection  operators is LMAX  =           4
   number of lm-projection operators is LMMAX =           8
 
 Optimization of the real space projectors (new method)

 maximal supplied QI-value         = 22.11
 optimisation between [QCUT,QGAM] = [ 11.28, 22.77] = [ 35.61,145.23] Ry 
 Optimized for a Real-space Cutoff    1.10 Angstroem

   l    n(q)    QCUT    max X(q) W(low)/X(q) W(high)/X(q)  e(spline) 
   0      7    11.276    10.506    0.54E-04    0.58E-04    0.16E-07
   0      7    11.276     8.367    0.11E-03    0.14E-03    0.35E-07
   1      7    11.276     8.983    0.23E-03    0.43E-03    0.86E-07
 Optimization of the real space projectors (new method)

 maximal supplied QI-value         = 16.25
 optimisation between [QCUT,QGAM] = [ 11.38, 22.75] = [ 36.24,144.96] Ry 
 Optimized for a Real-space Cutoff    1.47 Angstroem

   l    n(q)    QCUT    max X(q) W(low)/X(q) W(high)/X(q)  e(spline) 
   2      9    11.376    60.317    0.17E-03    0.16E-04    0.16E-06
   2      9    11.376    55.921    0.17E-03    0.16E-04    0.17E-06
   0     10    11.376    51.690    0.45E-04    0.60E-04    0.21E-06
   0     10    11.376    30.015    0.37E-04    0.55E-04    0.19E-06
   1     10    11.376    18.849    0.83E-04    0.11E-03    0.92E-07
   1     10    11.376    14.624    0.69E-04    0.92E-04    0.82E-07
 Optimization of the real space projectors (new method)

 maximal supplied QI-value         = 24.76
 optimisation between [QCUT,QGAM] = [ 11.39, 22.77] = [ 36.31,145.25] Ry 
 Optimized for a Real-space Cutoff    1.10 Angstroem

   l    n(q)    QCUT    max X(q) W(low)/X(q) W(high)/X(q)  e(spline) 
   0      7    11.387    20.381    0.22E-03    0.48E-03    0.18E-06
   0      7    11.387    15.268    0.22E-03    0.52E-03    0.19E-06
   1      7    11.387     5.964    0.22E-03    0.73E-03    0.24E-06
   1      7    11.387     5.382    0.19E-03    0.60E-03    0.21E-06

 ----------------------------------------------------------------------------- 
|                                                                             |
|  ADVICE TO THIS USER RUNNING 'VASP/VAMP'   (HEAR YOUR MASTER'S VOICE ...):  |
|                                                                             |
|      You enforced a specific xc-type in the INCAR file,                     |
|      a different type was found on the POTCAR file                          |
|          I HOPE YOU KNOW, WHAT YOU ARE  DOING                               |
|                                                                             |
 ----------------------------------------------------------------------------- 

  PAW_PBE Li_sv 10Sep2004               :
 energy of atom  1       EATOM= -202.7858
 kinetic energy error for atom=    0.0143 (will be added to EATOM!!)
  PAW_PBE Ni 02Aug2007                  :
 energy of atom  2       EATOM=-1077.6739
 kinetic energy error for atom=    0.0030 (will be added to EATOM!!)
  PAW_PBE O 08Apr2002                   :
 energy of atom  3       EATOM= -432.3788
 kinetic energy error for atom=    0.0224 (will be added to EATOM!!)
 
 
 POSCAR: ce293672_1                              
  positions in direct lattice
  No initial velocities read in
 exchange correlation table for  LEXCH =       14
   RHO(1)=    0.500       N(1)  =     2000
   RHO(2)=  100.500       N(2)  =     4000
 


--------------------------------------------------------------------------------------------------------


 ion  position               nearest neighbor table
   1  1.000  0.500  0.998-  49 2.09  96 2.09  84 2.11  97 2.12  48 2.13  61 2.13
   2  0.124  0.834  0.208-  50 1.97  45 2.03  69 2.05  68 2.19  62 2.20  20 2.75  30 2.82  18 2.83

   3  0.205  0.166  0.106-  46 2.04  47 2.04  83 2.11  70 2.13  52 2.17  53 2.23  18 2.79  19 2.84

   4  0.320  0.501  0.973-  85 1.98  90 2.05  84 2.05  49 2.21  55 2.21  54 2.27  38 2.76  40 2.84
                            37 2.84
   5  0.568  0.166  0.106-  58 2.04  59 2.04  89 2.11  76 2.13  52 2.17  53 2.23  24 2.79  25 2.84

   6  0.665  0.500  0.998-  55 2.09  96 2.09  90 2.11  91 2.12  60 2.13  61 2.13
   7  0.750  0.834  0.208-  56 1.97  57 2.03  75 2.05  80 2.19  62 2.20  23 2.75  33 2.82  24 2.83

   8  0.124  0.832  0.582-  86 1.98  81 2.05  87 2.05  80 2.21  68 2.21  63 2.27  38 2.76  36 2.84
                            39 2.84
   9  0.239  0.167  0.449-  71 2.04  70 2.04  88 2.11  47 2.13  65 2.17  64 2.23  31 2.79  30 2.84

  10  0.320  0.500  0.348-  67 1.97  72 2.03  48 2.05  49 2.19  73 2.20  29 2.75  19 2.82  31 2.83

  11  0.445  0.833  0.557-  68 2.09  93 2.09  87 2.11  92 2.12  69 2.13  74 2.13
  12  0.694  0.500  0.348-  79 1.97  78 2.03  60 2.05  55 2.19  73 2.20  35 2.75  25 2.82  34 2.83

  13  0.779  0.833  0.557-  80 2.09  93 2.09  81 2.11  98 2.12  75 2.13  74 2.13
  14  0.877  0.167  0.449-  77 2.04  76 2.04  82 2.11  59 2.13  65 2.17  64 2.23  34 2.79  33 2.84

  15  0.222  0.167  0.778-  88 2.13  82 2.13  83 2.13  89 2.13  52 2.13  65 2.13
  16  0.666  0.500  0.666-  91 2.11  97 2.11  78 2.12  72 2.12  96 2.12  73 2.14
  17  0.778  0.833  0.889-  98 2.11  92 2.11  57 2.12  45 2.12  93 2.12  62 2.14
  18  0.999  0.001  1.000-  95 1.87  50 1.88  83 1.92  62 1.93  98 1.94  47 1.94   3 2.79  24 2.81
                            42 2.82  27 2.83  21 2.83  36 2.83   2 2.83  30 2.86
  19  0.108  0.334  0.221-  70 1.87  46 1.89  67 1.90  61 1.90  64 1.91  49 1.92  25 2.78  43 2.82
                            10 2.82  37 2.83   3 2.84  22 2.84  28 2.84  31 2.86
  20  0.224  0.669  0.111-  51 1.87  84 1.88  48 1.90  45 1.91  54 1.91  69 1.91   2 2.75  32 2.80
                            23 2.80  38 2.83  26 2.83  44 2.83  29 2.84
  21  0.333  0.995  0.999-  89 1.89  83 1.89  50 1.89  56 1.89  53 1.90  86 1.91  39 2.83  36 2.83
                            18 2.83  24 2.83  30 2.84  33 2.84
  22  0.445  0.332  0.223-  52 1.91  73 1.92  70 1.93  76 1.93  49 1.96  55 1.96  31 2.83  34 2.83
                            40 2.84  37 2.84  19 2.84  25 2.84
  23  0.555  0.669  0.111-  51 1.87  90 1.88  60 1.90  57 1.91  54 1.91  75 1.91   7 2.75  32 2.80
                            20 2.80  38 2.83  26 2.83  41 2.83  35 2.84
  24  0.667  0.001  1.000-  95 1.87  56 1.88  89 1.92  62 1.93  92 1.94  59 1.94   5 2.79  18 2.81
                            42 2.82  27 2.83  21 2.83  39 2.83   7 2.83  33 2.86
  25  0.779  0.334  0.221-  76 1.87  58 1.89  79 1.90  61 1.90  64 1.91  55 1.92  19 2.78  43 2.82
                            12 2.82  40 2.83   5 2.84  22 2.84  28 2.84  34 2.86
  26  0.891  0.664  0.115-  45 1.88  57 1.88  60 1.91  48 1.91  63 1.92  96 1.93  29 2.80  35 2.80
                            20 2.83  23 2.83  44 2.86  41 2.86
  27  1.000  0.001  0.333-  65 1.91  62 1.92  47 1.93  59 1.93  80 1.96  68 1.96  18 2.83  24 2.83
                            36 2.84  39 2.84  33 2.84  30 2.84
  28  0.112  0.338  0.557-  82 1.89  88 1.89  79 1.89  67 1.89  64 1.90  85 1.91  37 2.83  40 2.83
                            34 2.83  31 2.83  25 2.84  19 2.84
  29  0.221  0.664  0.444-  66 1.87  87 1.88  69 1.90  72 1.91  63 1.91  48 1.91  10 2.75  26 2.80
                            35 2.80  38 2.83  32 2.83  41 2.83  20 2.84
  30  0.336  0.999  0.335-  47 1.87  71 1.89  50 1.90  74 1.90  53 1.91  68 1.92  33 2.78  42 2.82
                             2 2.82  39 2.83   9 2.84  27 2.84  21 2.84  18 2.86
  31  0.445  0.332  0.556-  94 1.87  67 1.88  88 1.92  73 1.93  91 1.94  70 1.94   9 2.79  34 2.81
                            43 2.82  22 2.83  28 2.83  40 2.83  10 2.83  19 2.86
  32  0.554  0.669  0.441-  78 1.88  72 1.88  75 1.91  69 1.91  54 1.92  93 1.93  23 2.80  20 2.80
                            29 2.83  35 2.83  41 2.86  44 2.86
  33  0.665  0.999  0.335-  59 1.87  77 1.89  56 1.90  74 1.90  53 1.91  80 1.92  30 2.78  42 2.82
                             7 2.82  36 2.83  14 2.84  27 2.84  21 2.84  24 2.86
  34  0.777  0.332  0.556-  94 1.87  79 1.88  82 1.92  73 1.93  97 1.94  76 1.94  14 2.79  31 2.81
                            43 2.82  22 2.83  28 2.83  37 2.83  12 2.83  25 2.86
  35  0.890  0.664  0.444-  66 1.87  81 1.88  75 1.90  78 1.91  63 1.91  60 1.91  12 2.75  26 2.80
                            29 2.80  38 2.83  32 2.83  44 2.83  23 2.84
  36  0.999  0.000  0.667-  77 1.87  86 1.87  83 1.92  98 1.94  80 1.94  65 1.95  42 2.82  21 2.83
                            33 2.83  18 2.83  39 2.83   8 2.84  27 2.84
  37  0.110  0.333  0.889-  46 1.87  85 1.87  82 1.92  97 1.94  49 1.94  52 1.95  43 2.82  28 2.83
                            19 2.83  34 2.83  40 2.83   4 2.84  22 2.84
  38  0.222  0.667  0.778-  51 1.88  66 1.88  87 1.92  81 1.92  84 1.92  90 1.92   8 2.76   4 2.76
                            44 2.81  41 2.81  20 2.83  23 2.83  35 2.83  29 2.83
  39  0.334  0.000  0.667-  71 1.87  86 1.87  89 1.92  92 1.94  68 1.94  65 1.95  42 2.82  21 2.83
                            30 2.83  24 2.83  36 2.83   8 2.84  27 2.84
  40  0.445  0.333  0.889-  58 1.87  85 1.87  88 1.92  91 1.94  55 1.94  52 1.95  43 2.82  28 2.83
                            25 2.83  31 2.83  37 2.83   4 2.84  22 2.84
  41  0.554  0.667  0.778-  87 1.92  90 1.92  93 1.95  96 1.95  57 1.97  72 1.97  38 2.81  23 2.83
                            29 2.83  44 2.84  26 2.86  32 2.86
  42  0.667  0.005  0.668-  95 1.87  92 1.87  98 1.87  77 1.90  71 1.90  74 1.90  39 2.82  36 2.82
                            30 2.82  33 2.82  24 2.82  18 2.82
  43  0.777  0.329  0.888-  94 1.87  97 1.87  91 1.87  46 1.90  58 1.90  61 1.90  37 2.82  40 2.82
                            19 2.82  25 2.82  34 2.82  31 2.82
  44  0.890  0.667  0.778-  81 1.92  84 1.92  93 1.95  96 1.95  45 1.97  78 1.97  38 2.81  20 2.83
                            35 2.83  41 2.84  26 2.86  32 2.86
  45  0.999  0.737  0.008-  26 1.88  20 1.91  44 1.97   2 2.03  17 2.12
  46  0.004  0.265  0.000-  37 1.87  19 1.89  43 1.90   3 2.04
  47  0.122  0.070  0.228-  30 1.87  27 1.93  18 1.94   3 2.04   9 2.13
  48  0.115  0.596  0.220-  20 1.90  26 1.91  29 1.91  10 2.05   1 2.13
  49  0.219  0.407  0.110-  19 1.92  37 1.94  22 1.96   1 2.09  10 2.19   4 2.21
  50  0.218  0.933  0.113-  18 1.88  21 1.89  30 1.90   2 1.97
  51  0.332  0.734  0.998-  20 1.87  23 1.87  38 1.88
  52  0.335  0.260  0.004-  22 1.91  40 1.95  37 1.95  15 2.13   3 2.17   5 2.17
  53  0.441  0.067  0.215-  21 1.90  30 1.91  33 1.91   5 2.23   3 2.23
  54  0.444  0.597  0.221-  20 1.91  23 1.91  32 1.92   4 2.27
  55  0.558  0.407  0.110-  25 1.92  40 1.94  22 1.96   6 2.09  12 2.19   4 2.21
  56  0.561  0.933  0.113-  24 1.88  21 1.89  33 1.90   7 1.97
  57  0.676  0.737  0.008-  26 1.88  23 1.91  41 1.97   7 2.03  17 2.12
  58  0.662  0.265  0.000-  40 1.87  25 1.89  43 1.90   5 2.04
  59  0.773  0.070  0.228-  33 1.87  27 1.93  24 1.94   5 2.04  14 2.13
  60  0.772  0.596  0.220-  23 1.90  26 1.91  35 1.91  12 2.05   6 2.13
  61  0.885  0.402  0.103-  43 1.90  25 1.90  19 1.90   1 2.13   6 2.13
  62  0.890  0.929  0.113-  27 1.92  18 1.93  24 1.93  17 2.14   7 2.20   2 2.20
  63  0.001  0.737  0.335-  35 1.91  29 1.91  26 1.92   8 2.27
  64  0.004  0.266  0.340-  28 1.90  25 1.91  19 1.91  14 2.23   9 2.23
  65  0.109  0.073  0.552-  27 1.91  36 1.95  39 1.95  15 2.13  14 2.17   9 2.17
  66  0.112  0.600  0.557-  29 1.87  35 1.87  38 1.88
  67  0.226  0.401  0.443-  31 1.88  28 1.89  19 1.90  10 1.97
  68  0.225  0.927  0.445-  30 1.92  39 1.94  27 1.96  11 2.09   2 2.19   8 2.21
  69  0.329  0.737  0.336-  29 1.90  32 1.91  20 1.91   2 2.05  11 2.13
  70  0.323  0.263  0.328-  19 1.87  22 1.93  31 1.94   9 2.04   3 2.13
  71  0.440  0.068  0.555-  39 1.87  30 1.89  42 1.90   9 2.04
  72  0.446  0.597  0.548-  32 1.88  29 1.91  41 1.97  10 2.03  16 2.12
  73  0.555  0.404  0.443-  22 1.92  34 1.93  31 1.93  16 2.14  12 2.20  10 2.20
  74  0.560  0.931  0.452-  42 1.90  33 1.90  30 1.90  13 2.13  11 2.13
  75  0.673  0.737  0.336-  35 1.90  32 1.91  23 1.91   7 2.05  13 2.13
  76  0.672  0.263  0.328-  25 1.87  22 1.93  34 1.94  14 2.04   5 2.13
  77  0.782  0.068  0.555-  36 1.87  33 1.89  42 1.90  14 2.04
  78  0.768  0.597  0.548-  32 1.88  35 1.91  44 1.97  12 2.03  16 2.12
  79  0.884  0.401  0.443-  34 1.88  28 1.89  25 1.90  12 1.97
  80  0.886  0.927  0.445-  33 1.92  36 1.94  27 1.96  13 2.09   7 2.19   8 2.21
  81  0.997  0.735  0.659-  35 1.88  44 1.92  38 1.92   8 2.05  13 2.11
  82  0.004  0.265  0.663-  28 1.89  34 1.92  37 1.92  14 2.11  15 2.13
  83  0.118  0.068  0.892-  21 1.89  18 1.92  36 1.92   3 2.11  15 2.13
  84  0.116  0.598  0.897-  20 1.88  44 1.92  38 1.92   4 2.05   1 2.11
  85  0.227  0.401  0.787-  40 1.87  37 1.87  28 1.91   4 1.98
  86  0.218  0.932  0.769-  36 1.87  39 1.87  21 1.91   8 1.98
  87  0.329  0.735  0.659-  29 1.88  41 1.92  38 1.92   8 2.05  11 2.11
  88  0.326  0.265  0.663-  28 1.89  31 1.92  40 1.92   9 2.11  15 2.13
  89  0.441  0.068  0.892-  21 1.89  24 1.92  39 1.92   5 2.11  15 2.13
  90  0.448  0.598  0.897-  23 1.88  41 1.92  38 1.92   4 2.05   6 2.11
  91  0.565  0.402  0.781-  43 1.87  40 1.94  31 1.94  16 2.11   6 2.12
  92  0.562  0.931  0.774-  42 1.87  39 1.94  24 1.94  17 2.11  11 2.12
  93  0.665  0.740  0.664-  32 1.93  41 1.95  44 1.95  13 2.09  11 2.09  17 2.12
  94  0.665  0.266  0.664-  34 1.87  31 1.87  43 1.87
  95  0.779  0.067  0.891-  24 1.87  18 1.87  42 1.87
  96  0.779  0.594  0.892-  26 1.93  44 1.95  41 1.95   6 2.09   1 2.09  16 2.12
  97  0.883  0.402  0.781-  43 1.87  37 1.94  34 1.94  16 2.11   1 2.12
  98  0.879  0.931  0.774-  42 1.87  36 1.94  18 1.94  17 2.11  13 2.12
 
  LATTYP: Found a base centered monoclinic cell.
 ALAT       =    14.7348351045
 B/A-ratio  =     0.5745685813
 C/A-ratio  =     1.3881806798
 COS(beta)  =    -0.6246999328
  
  Lattice vectors:
  
 A1 = (   4.2638273858,   7.3496694007,   0.0007345458)
 A2 = (   8.4969140049,   0.0177482309,   0.0007345458)
 A3 = ( -12.7614073980,  -7.3678021346, -14.1863731366)


Analysis of symmetry for initial positions (statically):
=====================================================================
 Subroutine PRICEL returns:
 Original cell was already a primitive cell.
 

 Routine SETGRP: Setting up the symmetry group for a 
 base centered monoclinic supercell.


 Subroutine GETGRP returns: Found  4 space group operations
 (whereof  1 operations were pure point group operations)
 out of a pool of  4 trial point group operations.


The static configuration has the point symmetry C_1 .
 The point group associated with its full space group is C_2h.


Analysis of symmetry for dynamics (positions and initial velocities):
=====================================================================
 Subroutine PRICEL returns:
 Original cell was already a primitive cell.
 

 Routine SETGRP: Setting up the symmetry group for a 
 base centered monoclinic supercell.


 Subroutine GETGRP returns: Found  4 space group operations
 (whereof  1 operations were pure point group operations)
 out of a pool of  4 trial point group operations.


The dynamic configuration has the point symmetry C_1 .
 The point group associated with its full space group is C_2h.


Analysis of structural, dynamic, and magnetic symmetry:
=====================================================================
 Subroutine PRICEL returns:
 Original cell was already a primitive cell.
 

 Routine SETGRP: Setting up the symmetry group for a 
 base centered monoclinic supercell.


 Subroutine GETGRP returns: Found  4 space group operations
 (whereof  1 operations were pure point group operations)
 out of a pool of  4 trial point group operations.


The magnetic configuration has the point symmetry C_1 .
 The point group associated with its full space group is C_2h.


 Subroutine INISYM returns: Found  4 space group operations
 (whereof  1 operations are pure point group operations),
 and found     1 'primitive' translations

 
 
 KPOINTS: Automatic mesh                          

Automatic generation of k-mesh.
Space group operators:
 irot       det(A)        alpha          n_x          n_y          n_z        tau_x        tau_y        tau_z
    1     1.000000     0.000000     1.000000     0.000000     0.000000     0.000000     0.000000     0.000000
    2    -1.000000     0.000000     1.000000     0.000000     0.000000    -0.555556    -0.666667    -0.444444
    3     1.000000   180.000000    -0.500000     0.866025     0.000000    -0.222222    -0.666667    -0.444444
    4    -1.000000   180.000000    -0.500000     0.866025     0.000000     0.666667     0.000000     1.000000
 
 Subroutine IBZKPT returns following result:
 ===========================================
 
 Found      1 irreducible k-points:
 
 Following reciprocal coordinates:
            Coordinates               Weight
  0.000000  0.000000  0.000000      1.000000
 
 Following cartesian coordinates:
            Coordinates               Weight
  0.000000  0.000000  0.000000      1.000000
 


--------------------------------------------------------------------------------------------------------




 Dimension of arrays:
   k-points           NKPTS =      1   k-points in BZ     NKDIM =      1   number of bands    NBANDS=    432
   number of dos      NEDOS =    301   number of ions     NIONS =     98
   non local maximal  LDIM  =      6   non local SUM 2l+1 LMDIM =     18
   total plane-waves  NPLWV = 442368
   max r-space proj   IRMAX =   6762   max aug-charges    IRDMAX=  16404
   dimension x,y,z NGX =    64 NGY =  108 NGZ =   64
   dimension x,y,z NGXF=   128 NGYF=  216 NGZF=  128
   support grid    NGXF=   128 NGYF=  216 NGZF=  128
   ions per type =              17  27  54
   NGX,Y,Z   is equivalent  to a cutoff of  12.57, 12.66, 12.52 a.u.
   NGXF,Y,Z  is equivalent  to a cutoff of  25.13, 25.32, 25.04 a.u.

 SYSTEM =  unknown system                          
 POSCAR =  ce293672_1                              

 Startparameter for this run:
   NWRITE =      1    write-flag & timer
   PREC   = accura    normal or accurate (medium, high low for compatibility)
   ISTART =      0    job   : 0-new  1-cont  2-samecut
   ICHARG =      2    charge: 1-file 2-atom 10-const
   ISPIN  =      2    spin polarized calculation?
   LNONCOLLINEAR =      F non collinear calculations
   LSORBIT =      F    spin-orbit coupling
   INIWAV =      1    electr: 0-lowe 1-rand  2-diag
   LASPH  =      F    aspherical Exc in radial PAW
   METAGGA=      F    non-selfconsistent MetaGGA calc.

 Electronic Relaxation 1
   ENCUT  =  500.0 eV  36.75 Ry    6.06 a.u.  15.44 25.86 15.49*2*pi/ulx,y,z
   ENINI  =  500.0     initial cutoff
   ENAUG  =  628.9 eV  augmentation charge cutoff
   NELM   =     80;   NELMIN=  2; NELMDL= -5     # of ELM steps 
   EDIFF  = 0.1E-04   stopping-criterion for ELM
   LREAL  =      T    real-space projection
   NLSPLINE    = F    spline interpolate recip. space projectors
   LCOMPAT=      F    compatible to vasp.4.4
   GGA_COMPAT  = T    GGA compatible to vasp.4.4-vasp.4.6
   LMAXPAW     = -100 max onsite density
   LMAXMIX     =    2 max onsite mixed and CHGCAR
   VOSKOWN=      1    Vosko Wilk Nusair interpolation
   ROPT   =   -0.00025  -0.00025  -0.00025
 Ionic relaxation
   EDIFFG = -.2E-01   stopping-criterion for IOM
   NSW    =     20    number of steps for IOM
   NBLOCK =      1;   KBLOCK =     20    inner block; outer block 
   IBRION =      1    ionic relax: 0-MD 1-quasi-New 2-CG
   NFREE  =      0    steps in history (QN), initial steepest desc. (CG)
   ISIF   =      3    stress and relaxation
   IWAVPR =     11    prediction:  0-non 1-charg 2-wave 3-comb
   ISYM   =      2    0-nonsym 1-usesym 2-fastsym
   LCORR  =      T    Harris-Foulkes like correction to forces

   POTIM  = 0.5000    time-step for ionic-motion
   TEIN   =    0.0    initial temperature
   TEBEG  =    0.0;   TEEND  =   0.0 temperature during run
   SMASS  =  -3.00    Nose mass-parameter (am)
   estimated Nose-frequenzy (Omega)   =  0.10E-29 period in steps =****** mass=  -0.164E-26a.u.
   SCALEE = 1.0000    scale energy and forces
   NPACO  =    256;   APACO  = 16.0  distance and # of slots for P.C.
   PSTRESS=    0.0 pullay stress

  Mass of Ions in am
   POMASS =   7.01 58.69 16.00
  Ionic Valenz
   ZVAL   =   3.00 10.00  6.00
  Atomic Wigner-Seitz radii
   RWIGS  =   1.23  1.15  0.73
  virtual crystal weights 
   VCA    =   1.00  1.00  1.00
   NELECT =     645.0000    total number of electrons
   NUPDOWN=      -1.0000    fix difference up-down

 DOS related values:
   EMIN   =  10.00;   EMAX   =-10.00  energy-range for DOS
   EFERMI =   0.00
   ISMEAR =     0;   SIGMA  =   0.05  broadening in eV -4-tet -1-fermi 0-gaus

 Electronic relaxation 2 (details)
   IALGO  =     38    algorithm
   LDIAG  =      T    sub-space diagonalisation (order eigenvalues)
   LSUBROT=      F    optimize rotation matrix (better conditioning)
   TURBO    =      0    0=normal 1=particle mesh
   IRESTART =      0    0=no restart 2=restart with 2 vectors
   NREBOOT  =      0    no. of reboots
   NMIN     =      0    reboot dimension
   EREF     =   0.00    reference energy to select bands
   IMIX   =      4    mixing-type and parameters
     AMIX     =   0.40;   BMIX     =  1.00
     AMIX_MAG =   1.60;   BMIX_MAG =  1.00
     AMIN     =   0.10
     WC   =   100.;   INIMIX=   1;  MIXPRE=   1;  MAXMIX= -45

 Intra band minimization:
   WEIMIN = 0.0010     energy-eigenvalue tresh-hold
   EBREAK =  0.58E-08  absolut break condition
   DEPER  =   0.30     relativ break condition  

   TIME   =   0.40     timestep for ELM

  volume/ion in A,a.u.               =       9.03        60.93
  Fermi-wavevector in a.u.,A,eV,Ry     =   1.473393  2.784308 29.536690  2.170885
  Thomas-Fermi vector in A             =   2.588291
 
 Write flags
   LWAVE        =      F    write WAVECAR
   LDOWNSAMPLE  =      F    k-point downsampling of WAVECAR
   LCHARG       =      T    write CHGCAR
   LVTOT        =      F    write LOCPOT, total local potential
   LVHAR        =      F    write LOCPOT, Hartree potential only
   LELF         =      F    write electronic localiz. function (ELF)
   LORBIT       =      0    0 simple, 1 ext, 2 COOP (PROOUT), +10 PAW based schemes


 Dipole corrections
   LMONO  =      F    monopole corrections only (constant potential shift)
   LDIPOL =      F    correct potential (dipole corrections)
   IDIPOL =      0    1-x, 2-y, 3-z, 4-all directions 
   EPSILON=  1.0000000 bulk dielectric constant

 Exchange correlation treatment:
   GGA     =    PS    GGA type
   LEXCH   =    14    internal setting for exchange type
   VOSKOWN=      1    Vosko Wilk Nusair interpolation
   LHFCALC =     F    Hartree Fock is set to
   LHFONE  =     F    Hartree Fock one center treatment
   AEXX    =    0.0000 exact exchange contribution

 Linear response parameters
   LEPSILON=     F    determine dielectric tensor
   LRPA    =     F    only Hartree local field effects (RPA)
   LNABLA  =     F    use nabla operator in PAW spheres
   LVEL    =     F    velocity operator in full k-point grid
   LINTERFAST=   F  fast interpolation
   KINTER  =     0    interpolate to denser k-point grid
   CSHIFT  =0.1000    complex shift for real part using Kramers Kronig
   OMEGAMAX=  -1.0    maximum frequency
   DEG_THRESHOLD= 0.2000000E-02 threshold for treating states as degnerate
   RTIME   =   -0.100 relaxation time in fs
  (WPLASMAI=    0.000 imaginary part of plasma frequency in eV, 0.658/RTIME)
   DFIELD  = 0.0000000 0.0000000 0.0000000 field for delta impulse in time
 
 Orbital magnetization related:
   ORBITALMAG=     F  switch on orbital magnetization
   LCHIMAG   =     F  perturbation theory with respect to B field
   DQ        =  0.001000  dq finite difference perturbation B field
   LLRAUG    =     F  two centre corrections for induced B field



--------------------------------------------------------------------------------------------------------


 quasi-Newton-method for relaxation of ions
 charge density and potential will be updated during run
 spin polarized calculation
 Variant of blocked Davidson
 Davidson routine will perform the subspace rotation
 perform sub-space diagonalisation
    after iterative eigenvector-optimisation
 modified Broyden-mixing scheme, WC =      100.0
 initial mixing is a Kerker type mixing with AMIX =  0.4000 and BMIX =      1.0000
 Hartree-type preconditioning will be used
 using additional bands          109
 real space projection scheme for non local part
 use partial core corrections
 calculate Harris-corrections to forces 
   (improved forces if not selfconsistent)
 use gradient corrections 
 use of overlap-Matrix (Vanderbilt PP)
 Gauss-broadening in eV      SIGMA  =   0.05


--------------------------------------------------------------------------------------------------------


  energy-cutoff  :      500.00
  volume of cell :      884.77
      direct lattice vectors                 reciprocal lattice vectors
    -4.233086619  7.331921170  0.000000000    -0.000284546  0.136225618 -0.000003679
     0.000666007  0.000384503 14.184904045    -0.000006087 -0.000003514  0.070497481
     8.496914005  0.017748231  0.000734546     0.117548029  0.067866386 -0.000007359

  length of vectors
     8.466173301 14.184904066  8.496932573     0.136225915  0.070497481  0.135732773


 
 k-points in units of 2pi/SCALE and weight: Automatic mesh                          
   0.00000000  0.00000000  0.00000000       1.000
 
 k-points in reciprocal lattice and weights: Automatic mesh                          
   0.00000000  0.00000000  0.00000000       1.000
 
 position of ions in fractional coordinates (direct lattice) 
   0.99984208  0.50022186  0.99830577
   0.12430932  0.83382131  0.20802941
   0.20540394  0.16626014  0.10636078
   0.32001859  0.50094625  0.97337051
   0.56762351  0.16626014  0.10636078
   0.66513036  0.50022186  0.99830577
   0.75038676  0.83382131  0.20802941
   0.12442585  0.83238708  0.58218505
   0.23904050  0.16707320  0.44919477
   0.32013512  0.49951202  0.34752614
   0.44460236  0.83311147  0.55724979
   0.69405769  0.49951202  0.34752614
   0.77931409  0.83311147  0.55724979
   0.87682094  0.16707320  0.44919477
   0.22222222  0.16666667  0.77777778
   0.66638228  0.50044601  0.66609789
   0.77806217  0.83288732  0.88945767
   0.99922256  0.00138361  0.99980928
   0.10802860  0.33387356  0.22052621
   0.22364136  0.66893316  0.11148230
   0.33260883  0.99491359  0.99855099
   0.44468047  0.33228741  0.22269428
   0.55450761  0.66893316  0.11148230
   0.66725339  0.00138361  0.99980928
   0.77916428  0.33387356  0.22052621
   0.89076944  0.66447892  0.11487220
   0.99976397  0.00104592  0.33286127
   0.11183561  0.33841974  0.55700457
   0.22080308  0.66440018  0.44407325
   0.33641584  0.99945977  0.33502934
   0.44522188  0.33194972  0.55574628
   0.55367501  0.66885442  0.44068335
   0.66528017  0.99945977  0.33502934
   0.77719106  0.33194972  0.55574628
   0.88993684  0.66440018  0.44407325
   0.99938063  0.00006648  0.66674608
   0.11041232  0.33326685  0.88880948
   0.22222222  0.66666667  0.77777778
   0.33403212  0.00006648  0.66674608
   0.44506381  0.33326685  0.88880948
   0.55432409  0.66666667  0.77777778
   0.66726048  0.00466286  0.66785430
   0.77718397  0.32867047  0.88770126
   0.89012036  0.66666667  0.77777778
   0.99856394  0.73672556  0.00790586
   0.00444591  0.26524664  0.00024486
   0.12177229  0.06994034  0.22800846
   0.11497924  0.59632790  0.21996356
   0.21909994  0.40670742  0.11048767
   0.21841371  0.93254150  0.11252677
   0.33241617  0.73357506  0.99816569
   0.33532984  0.26037582  0.00399302
   0.44094227  0.06716868  0.21521787
   0.44361052  0.59660863  0.22055438
   0.55805440  0.40670742  0.11048767
   0.56077973  0.93254150  0.11252677
   0.67600860  0.73672556  0.00790586
   0.66246562  0.26524664  0.00024486
   0.77290284  0.06994034  0.22800846
   0.77165100  0.59632790  0.21996356
   0.88493303  0.40192613  0.10319939
   0.88967126  0.92924144  0.11267585
   0.00083392  0.73672470  0.33500117
   0.00350217  0.26616465  0.34033768
   0.10911460  0.07295751  0.55156254
   0.11202827  0.59975827  0.55738987
   0.22603073  0.40079184  0.44302878
   0.22534450  0.92662592  0.44506788
   0.32946520  0.73700543  0.33559199
   0.32267215  0.26339299  0.32754709
   0.43999853  0.06808669  0.55531070
   0.44588050  0.59660777  0.54764970
   0.55477319  0.40409190  0.44287970
   0.55951142  0.93140721  0.45235616
   0.67279345  0.73700543  0.33559199
   0.67154161  0.26339299  0.32754709
   0.78197883  0.06808669  0.55531070
   0.76843585  0.59660777  0.54764970
   0.88366472  0.40079184  0.44302878
   0.88639005  0.92662592  0.44506788
   0.99662666  0.73534538  0.65880494
   0.00376674  0.26498981  0.66330314
   0.11824139  0.06834352  0.89225242
   0.11559950  0.59798795  0.89675062
   0.22675715  0.40089300  0.78684764
   0.21768729  0.93244034  0.76870792
   0.32884494  0.73534538  0.65880494
   0.32620305  0.26498981  0.66330314
   0.44067770  0.06834352  0.89225242
   0.44781778  0.59798795  0.89675062
   0.56514785  0.40213459  0.78128604
   0.56163959  0.93119875  0.77426952
   0.66531900  0.73969026  0.66397133
   0.66541376  0.26593126  0.66416085
   0.77903069  0.06740207  0.89139471
   0.77912545  0.59364307  0.89158423
   0.88280486  0.40213459  0.78128604
   0.87929660  0.93119875  0.77426952
 
 position of ions in cartesian coordinates  (Angst):
   4.25043330  7.34867381  7.09633239
   1.24195122  0.91543890 11.82782808
   0.03435646  1.50795714  2.35846226
   6.91631274  2.36381929  7.10658947
  -1.49895035  4.16372247  2.35846226
   5.66729700  4.89459387  7.09633239
  -1.40828881  5.50578933 11.82782808
   4.42062528  0.92293333 11.80775850
   2.80500146  1.76066276  2.37024726
   1.59807271  2.35356550  7.08578535
   2.85341810  3.26999999 11.81801559
   0.01522608  5.09513631  7.08578535
   1.43655436  5.72408001 11.81801559
   0.10522162  6.43681866  2.37024726
   5.66813601  1.64318406  2.36472203
   2.83925588  4.89787683  7.09926791
   4.26459548  5.72079704 11.81508006
   4.26549875  7.34396642  0.02036078
   1.41672018  0.79609950  4.73612640
   0.00100778  1.64195664  9.48883458
   7.07730252  2.45676678 14.11348729
   0.01006451  3.26444235  4.71362861
  -1.39957771  4.06784190  9.48883458
   5.67075300  4.90999463  0.02036078
  -1.42425528  5.71681340  4.73612640
  -2.79420244  6.53334559  9.42565410
  -1.40379320  7.33609872  0.01508078
   4.25963550  0.82998585  4.80086068
   2.83901615  1.62704776  9.42477899
   1.42330375  2.47290489 14.17748703
   2.83768665  3.27432288  4.70908315
   1.40113971  4.06758005  9.48795947
   0.03119255  4.88411224 14.17748703
   1.43243235  5.70829473  4.70908315
   0.00651498  6.53308374  9.42477899
   1.43481938  7.33921359  0.00143277
   7.08497476  0.82543736  4.72801116
   5.66846901  1.64337631  9.45717406
   4.25129725  2.46093076  0.00143277
   5.66836602  3.27907571  4.72801116
   4.26265303  4.07832105  9.45717406
   2.85013225  4.90415626  0.06663279
   4.25305310  5.71413310  4.66281114
   2.84119833  6.54035283  9.45717406
  -4.15934158  7.32181568 10.45038718
  -0.01656271  0.03270340  3.76249832
   1.42194221  0.89689847  0.99226449
   1.38269153  0.84715198  8.45901561
   0.01160608  1.60854083  5.76918689
   0.03218721  1.60374782 13.22809435
   7.07467016  2.45524689 10.40642503
  -1.38537850  2.45878294  3.69340896
  -0.03781435  3.23679953  0.95293937
  -0.00341281  3.25666121  8.46299818
  -1.42321751  4.09372821  5.76918689
  -1.41707780  4.11394849 13.22809435
  -2.79393688  4.95686535 10.45038718
  -2.80201714  4.85725204  3.76249832
  -1.33434981  5.67093633  0.99226449
  -1.39705691  5.66181756  8.45901561
  -2.86885414  6.49024536  5.70135939
  -2.80803962  6.52535664 13.18128343
   2.84343674  0.01234319 10.45061525
   2.87717228  0.03182037  3.77577001
   4.22473651  0.80983696  1.03530043
   4.26226787  0.83150574  8.50792294
   2.80783672  1.66525658  5.68551922
   2.82841785  1.66046357 13.14442668
   1.45733240  2.42185242 10.45459781
   1.41741572  2.37172142  3.73644489
   2.85592072  3.23591650  0.96621107
   2.76627897  3.27910989  8.46322624
   1.41497689  4.07556900  5.73233014
   1.47579141  4.11068028 13.21225418
   0.00399418  4.93910808 10.45459781
  -0.05937893  4.92960480  3.73644489
   1.40828849  5.74328910  0.96621107
   1.40087424  5.64406029  8.46322624
   0.02401507  6.48697715  5.68551922
   0.03015478  6.50719743 13.14442668
   1.37949169  7.31916347 10.43128758
   5.62026129  0.03949179  3.75934225
   7.08091155  0.88279873  0.97010167
   7.13066847  0.86371209  8.48306040
   5.72616107  1.67668485  5.68720671
   5.61077695  1.61006778 13.22714140
   4.20626955  2.42304054 10.43128758
   4.25536046  2.40356939  3.75934225
   5.71601073  3.24687634  0.97010167
   5.72435971  3.29951033  8.48306040
   4.24646832  4.15764055  5.70481446
   4.20205268  4.13199716 13.20953365
   2.82584698  4.89013519 10.49292308
   2.82674066  4.89065117  3.77269726
   4.27644470  5.72763820  0.95674667
   4.27800438  5.72853868  8.42142489
   2.90179868  6.48667671  5.70481446
   2.85738304  6.46103332 13.20953365
 


--------------------------------------------------------------------------------------------------------


 use serial FFT for orbitals x direction half grid
 k-point  1 :   0.0000 0.0000 0.0000  plane waves:   11246

 maximum and minimum number of plane-waves per node :     11246    11246

 maximum number of plane-waves:     11246
 maximum index in each direction: 
   IXMAX=   15   IYMAX=   25   IZMAX=   13
   IXMIN=    0   IYMIN=  -25   IZMIN=  -15

 The following grids will avoid any aliasing or wrap around errors in the Hartre
 e energy
  - symmetry arguments have not been applied
  - exchange correlation energies might require even more grid points
  - we recommend to set PREC=Normal or Accurate and rely on VASP defaults
 NGX is ok and might be reduce to    64
 NGY is ok and might be reduce to   108
 NGZ is ok and might be reduce to    60

 serial   3D FFT for wavefunctions
 parallel 3D FFT for charge:
    minimum data exchange during FFTs selected (reduces bandwidth)


 total amount of memory used by VASP MPI-rank0   146406. kBytes
=======================================================================

   base      :      30000. kBytes
   nonlr-proj:      40048. kBytes
   fftplans  :       9349. kBytes
   grid      :      55332. kBytes
   one-center:       1524. kBytes
   wavefun   :      10153. kBytes
 
     INWAV:  cpu time    0.0000: real time    0.0000
 Broyden mixing: mesh for mixing (old mesh)
   NGX = 31   NGY = 51   NGZ = 31
  (NGX  =128   NGY  =216   NGZ  =128)
  gives a total of  49011 points

 initial charge density was supplied:
 charge density of overlapping atoms calculated
 number of electron     645.0000000 magnetization      67.5000000
 keeping initial charge density in first step


--------------------------------------------------------------------------------------------------------


 Maximum index for non-local projection operator         6528
 Maximum index for augmentation-charges         1080 (set IRDMAX)


--------------------------------------------------------------------------------------------------------


 First call to EWALD:  gamma=   0.185
 Maximum number of real-space cells 3x 2x 3
 Maximum number of reciprocal cells 2x 4x 2

    FEWALD:  cpu time    0.0038: real time    0.0038


--------------------------------------- Iteration      1(   1)  ---------------------------------------


    POTLOK:  cpu time    0.2590: real time    0.2610
    SETDIJ:  cpu time    0.0303: real time    0.0305
     EDDAV:  cpu time    4.7514: real time    4.7892
    --------------------------------------------
      LOOP:  cpu time    5.0412: real time    5.0812

 eigenvalue-minimisations  :  1744
 total energy-change (2. order) : 0.1150750E+05  (-0.2938437E+05)
 number of electron     645.0000000 magnetization      67.5000000
 augmentation part      645.0000000 magnetization      67.5000000

 Free energy of the ion-electron system (eV)
  ---------------------------------------------------
  alpha Z        PSCENC =      2010.61200230
  Ewald energy   TEWEN  =    -38700.50724869
  -Hartree energ DENC   =    -18313.71390916
  -exchange      EXHF   =         0.00000000
  -V(xc)+E(xc)   XCENC  =      2627.27687037
  PAW double counting   =     46013.47845657   -48155.03670955
  entropy T*S    EENTRO =        -0.01890508
  eigenvalues    EBANDS =     10272.54305725
  atomic energy  EATOM  =     55752.86688613
  Solvation  Ediel_sol  =         0.00000000
  ---------------------------------------------------
  free energy    TOTEN  =     11507.50050014 eV

  energy without entropy =    11507.51940522  energy(sigma->0) =    11507.50995268


--------------------------------------------------------------------------------------------------------




--------------------------------------- Iteration      1(   2)  ---------------------------------------


     EDDAV:  cpu time    4.7914: real time    4.8029
    --------------------------------------------
      LOOP:  cpu time    4.7913: real time    4.8028

 eigenvalue-minimisations  :  1776
 total energy-change (2. order) :-0.9307155E+04  (-0.8484894E+04)
 number of electron     645.0000000 magnetization      67.5000000
 augmentation part      645.0000000 magnetization      67.5000000

 Free energy of the ion-electron system (eV)
  ---------------------------------------------------
  alpha Z        PSCENC =      2010.61200230
  Ewald energy   TEWEN  =    -38700.50724869
  -Hartree energ DENC   =    -18313.71390916
  -exchange      EXHF   =         0.00000000
  -V(xc)+E(xc)   XCENC  =      2627.27687037
  PAW double counting   =     46013.47845657   -48155.03670955
  entropy T*S    EENTRO =        -0.03727008
  eigenvalues    EBANDS =       965.40662065
  atomic energy  EATOM  =     55752.86688613
  Solvation  Ediel_sol  =         0.00000000
  ---------------------------------------------------
  free energy    TOTEN  =      2200.34569854 eV

  energy without entropy =     2200.38296862  energy(sigma->0) =     2200.36433358


--------------------------------------------------------------------------------------------------------




--------------------------------------- Iteration      1(   3)  ---------------------------------------


     EDDAV:  cpu time    5.0185: real time    5.0304
    --------------------------------------------
      LOOP:  cpu time    5.0185: real time    5.0304

 eigenvalue-minimisations  :  1888
 total energy-change (2. order) :-0.2528937E+04  (-0.2138804E+04)
 number of electron     645.0000000 magnetization      67.5000000
 augmentation part      645.0000000 magnetization      67.5000000

 Free energy of the ion-electron system (eV)
  ---------------------------------------------------
  alpha Z        PSCENC =      2010.61200230
  Ewald energy   TEWEN  =    -38700.50724869
  -Hartree energ DENC   =    -18313.71390916
  -exchange      EXHF   =         0.00000000
  -V(xc)+E(xc)   XCENC  =      2627.27687037
  PAW double counting   =     46013.47845657   -48155.03670955
  entropy T*S    EENTRO =        -0.12151783
  eigenvalues    EBANDS =     -1563.44589458
  atomic energy  EATOM  =     55752.86688613
  Solvation  Ediel_sol  =         0.00000000
  ---------------------------------------------------
  free energy    TOTEN  =      -328.59106444 eV

  energy without entropy =     -328.46954661  energy(sigma->0) =     -328.53030552


--------------------------------------------------------------------------------------------------------




--------------------------------------- Iteration      1(   4)  ---------------------------------------


     EDDAV:  cpu time    5.4394: real time    5.4523
    --------------------------------------------
      LOOP:  cpu time    5.4394: real time    5.4523

 eigenvalue-minimisations  :  2096
 total energy-change (2. order) :-0.4328255E+03  (-0.4141002E+03)
 number of electron     645.0000000 magnetization      67.5000000
 augmentation part      645.0000000 magnetization      67.5000000

 Free energy of the ion-electron system (eV)
  ---------------------------------------------------
  alpha Z        PSCENC =      2010.61200230
  Ewald energy   TEWEN  =    -38700.50724869
  -Hartree energ DENC   =    -18313.71390916
  -exchange      EXHF   =         0.00000000
  -V(xc)+E(xc)   XCENC  =      2627.27687037
  PAW double counting   =     46013.47845657   -48155.03670955
  entropy T*S    EENTRO =        -0.23566701
  eigenvalues    EBANDS =     -1996.15724968
  atomic energy  EATOM  =     55752.86688613
  Solvation  Ediel_sol  =         0.00000000
  ---------------------------------------------------
  free energy    TOTEN  =      -761.41656871 eV

  energy without entropy =     -761.18090171  energy(sigma->0) =     -761.29873521


--------------------------------------------------------------------------------------------------------




--------------------------------------- Iteration      1(   5)  ---------------------------------------


     EDDAV:  cpu time    6.4202: real time    6.4354
    CHARGE:  cpu time    0.3440: real time    0.3449
    MIXING:  cpu time    0.0052: real time    0.0053
    --------------------------------------------
      LOOP:  cpu time    6.7691: real time    6.7852

 eigenvalue-minimisations  :  2576
 total energy-change (2. order) :-0.2402225E+02  (-0.2376058E+02)
 number of electron     644.9999855 magnetization      71.0863568
 augmentation part      193.9984394 magnetization      50.9938593

 Broyden mixing:
  rms(total) = 0.15009E+02    rms(broyden)= 0.15007E+02
  rms(prec ) = 0.16622E+02
  weight for this iteration     100.00

 Free energy of the ion-electron system (eV)
  ---------------------------------------------------
  alpha Z        PSCENC =      2010.61200230
  Ewald energy   TEWEN  =    -38700.50724869
  -Hartree energ DENC   =    -18313.71390916
  -exchange      EXHF   =         0.00000000
  -V(xc)+E(xc)   XCENC  =      2627.27687037
  PAW double counting   =     46013.47845657   -48155.03670955
  entropy T*S    EENTRO =        -0.21606249
  eigenvalues    EBANDS =     -2020.19910760
  atomic energy  EATOM  =     55752.86688613
  Solvation  Ediel_sol  =         0.00000000
  ---------------------------------------------------
  free energy    TOTEN  =      -785.43882212 eV

  energy without entropy =     -785.22275963  energy(sigma->0) =     -785.33079087


--------------------------------------------------------------------------------------------------------




--------------------------------------- Iteration      1(   6)  ---------------------------------------


    POTLOK:  cpu time    0.2259: real time    0.2264
    SETDIJ:  cpu time    0.0316: real time    0.0317
     EDDAV:  cpu time    6.8039: real time    6.8200
    CHARGE:  cpu time    0.3368: real time    0.3376
    MIXING:  cpu time    0.0050: real time    0.0050
    --------------------------------------------
      LOOP:  cpu time    7.4032: real time    7.4208

 eigenvalue-minimisations  :  2752
 total energy-change (2. order) :-0.6480853E+02  (-0.1779059E+03)
 number of electron     644.9999863 magnetization      67.1978487
 augmentation part      238.2905062 magnetization      66.1841268

 Broyden mixing:
  rms(total) = 0.28251E+02    rms(broyden)= 0.28250E+02
  rms(prec ) = 0.29925E+02
  weight for this iteration     100.00

 eigenvalues of (default mixing * dielectric matrix)
  average eigenvalue GAMMA=   0.2255
  0.2255

 Free energy of the ion-electron system (eV)
  ---------------------------------------------------
  alpha Z        PSCENC =      2010.61200230
  Ewald energy   TEWEN  =    -38700.50724869
  -Hartree energ DENC   =    -17488.46253834
  -exchange      EXHF   =         0.00000000
  -V(xc)+E(xc)   XCENC  =      2656.40882903
  PAW double counting   =     50564.54291198   -52424.85409105
  entropy T*S    EENTRO =        -0.09455584
  eigenvalues    EBANDS =     -3220.75955250
  atomic energy  EATOM  =     55752.86688613
  Solvation  Ediel_sol  =         0.00000000
  ---------------------------------------------------
  free energy    TOTEN  =      -850.24735699 eV

  energy without entropy =     -850.15280115  energy(sigma->0) =     -850.20007907


--------------------------------------------------------------------------------------------------------




--------------------------------------- Iteration      1(   7)  ---------------------------------------


    POTLOK:  cpu time    0.2257: real time    0.2262
    SETDIJ:  cpu time    0.0315: real time    0.0316
     EDDAV:  cpu time    6.0488: real time    6.0631
    CHARGE:  cpu time    0.3364: real time    0.3372
    MIXING:  cpu time    0.0054: real time    0.0054
    --------------------------------------------
      LOOP:  cpu time    6.6478: real time    6.6636

 eigenvalue-minimisations  :  2384
 total energy-change (2. order) : 0.1524985E+03  (-0.5824268E+02)
 number of electron     644.9999864 magnetization      62.4290483
 augmentation part      232.3264868 magnetization      58.7649099

 Broyden mixing:
  rms(total) = 0.15461E+02    rms(broyden)= 0.15460E+02
  rms(prec ) = 0.17052E+02
  weight for this iteration     100.00

 eigenvalues of (default mixing * dielectric matrix)
  average eigenvalue GAMMA=   0.3810
  0.3810  0.3810

 Free energy of the ion-electron system (eV)
  ---------------------------------------------------
  alpha Z        PSCENC =      2010.61200230
  Ewald energy   TEWEN  =    -38700.50724869
  -Hartree energ DENC   =    -17681.70899632
  -exchange      EXHF   =         0.00000000
  -V(xc)+E(xc)   XCENC  =      2634.89600261
  PAW double counting   =     52140.87916633   -54136.72353108
  entropy T*S    EENTRO =        -0.03440780
  eigenvalues    EBANDS =     -2718.02873181
  atomic energy  EATOM  =     55752.86688613
  Solvation  Ediel_sol  =         0.00000000
  ---------------------------------------------------
  free energy    TOTEN  =      -697.74885833 eV

  energy without entropy =     -697.71445053  energy(sigma->0) =     -697.73165443


--------------------------------------------------------------------------------------------------------




--------------------------------------- Iteration      1(   8)  ---------------------------------------


    POTLOK:  cpu time    0.2256: real time    0.2261
    SETDIJ:  cpu time    0.0317: real time    0.0318
     EDDAV:  cpu time    6.3763: real time    6.3914
    CHARGE:  cpu time    0.3325: real time    0.3333
    MIXING:  cpu time    0.0056: real time    0.0056
    --------------------------------------------
      LOOP:  cpu time    6.9716: real time    6.9882

 eigenvalue-minimisations  :  2544
 total energy-change (2. order) :-0.1211407E+03  (-0.6480289E+02)
 number of electron     644.9999849 magnetization      58.1889891
 augmentation part      217.0690346 magnetization      56.1886803

 Broyden mixing:
  rms(total) = 0.20029E+02    rms(broyden)= 0.20028E+02
  rms(prec ) = 0.29424E+02
  weight for this iteration     100.00

 eigenvalues of (default mixing * dielectric matrix)
  average eigenvalue GAMMA=   0.3752
  0.4860  0.4860  0.1537

 Free energy of the ion-electron system (eV)
  ---------------------------------------------------
  alpha Z        PSCENC =      2010.61200230
  Ewald energy   TEWEN  =    -38700.50724869
  -Hartree energ DENC   =    -17858.33107928
  -exchange      EXHF   =         0.00000000
  -V(xc)+E(xc)   XCENC  =      2622.78744938
  PAW double counting   =     53632.76666543   -55754.36391584
  entropy T*S    EENTRO =        -0.04289016
  eigenvalues    EBANDS =     -2524.67742036
  atomic energy  EATOM  =     55752.86688613
  Solvation  Ediel_sol  =         0.00000000
  ---------------------------------------------------
  free energy    TOTEN  =      -818.88955108 eV

  energy without entropy =     -818.84666092  energy(sigma->0) =     -818.86810600


--------------------------------------------------------------------------------------------------------




--------------------------------------- Iteration      1(   9)  ---------------------------------------


    POTLOK:  cpu time    0.2253: real time    0.2259
    SETDIJ:  cpu time    0.0317: real time    0.0318
     EDDAV:  cpu time    6.0518: real time    6.0661
    CHARGE:  cpu time    0.3332: real time    0.3340
    MIXING:  cpu time    0.0056: real time    0.0056
    --------------------------------------------
      LOOP:  cpu time    6.6476: real time    6.6634

 eigenvalue-minimisations  :  2384
 total energy-change (2. order) : 0.1449104E+03  (-0.4081142E+02)
 number of electron     644.9999864 magnetization      52.3074318
 augmentation part      207.6712419 magnetization      50.1974827

 Broyden mixing:
  rms(total) = 0.14239E+02    rms(broyden)= 0.14238E+02
  rms(prec ) = 0.16387E+02
  weight for this iteration     100.00

 eigenvalues of (default mixing * dielectric matrix)
  average eigenvalue GAMMA=   0.3812
  0.5816  0.5816  0.2503  0.1111

 Free energy of the ion-electron system (eV)
  ---------------------------------------------------
  alpha Z        PSCENC =      2010.61200230
  Ewald energy   TEWEN  =    -38700.50724869
  -Hartree energ DENC   =    -17860.46203462
  -exchange      EXHF   =         0.00000000
  -V(xc)+E(xc)   XCENC  =      2618.26148068
  PAW double counting   =     54634.12757548   -56793.47117610
  entropy T*S    EENTRO =        -0.07359694
  eigenvalues    EBANDS =     -2335.33307034
  atomic energy  EATOM  =     55752.86688613
  Solvation  Ediel_sol  =         0.00000000
  ---------------------------------------------------
  free energy    TOTEN  =      -673.97918210 eV

  energy without entropy =     -673.90558516  energy(sigma->0) =     -673.94238363


--------------------------------------------------------------------------------------------------------




--------------------------------------- Iteration      1(  10)  ---------------------------------------


    POTLOK:  cpu time    0.2252: real time    0.2258
    SETDIJ:  cpu time    0.0315: real time    0.0316
     EDDAV:  cpu time    5.9848: real time    5.9991
    CHARGE:  cpu time    0.3360: real time    0.3368
    MIXING:  cpu time    0.0061: real time    0.0062
    --------------------------------------------
      LOOP:  cpu time    6.5837: real time    6.5994

 eigenvalue-minimisations  :  2352
 total energy-change (2. order) : 0.3822949E+02  (-0.1105338E+02)
 number of electron     644.9999868 magnetization      48.7368134
 augmentation part      211.8274706 magnetization      44.0919660

 Broyden mixing:
  rms(total) = 0.11079E+02    rms(broyden)= 0.11078E+02
  rms(prec ) = 0.13018E+02
  weight for this iteration     100.00

 eigenvalues of (default mixing * dielectric matrix)
  average eigenvalue GAMMA=   0.3699
  0.6294  0.6294  0.2295  0.2295  0.1317

 Free energy of the ion-electron system (eV)
  ---------------------------------------------------
  alpha Z        PSCENC =      2010.61200230
  Ewald energy   TEWEN  =    -38700.50724869
  -Hartree energ DENC   =    -17779.61785144
  -exchange      EXHF   =         0.00000000
  -V(xc)+E(xc)   XCENC  =      2613.24788338
  PAW double counting   =     55929.71580707   -58107.80678248
  entropy T*S    EENTRO =        -0.03548847
  eigenvalues    EBANDS =     -2354.22490041
  atomic energy  EATOM  =     55752.86688613
  Solvation  Ediel_sol  =         0.00000000
  ---------------------------------------------------
  free energy    TOTEN  =      -635.74969262 eV

  energy without entropy =     -635.71420414  energy(sigma->0) =     -635.73194838


--------------------------------------------------------------------------------------------------------




--------------------------------------- Iteration      1(  11)  ---------------------------------------


    POTLOK:  cpu time    0.2260: real time    0.2265
    SETDIJ:  cpu time    0.0318: real time    0.0319
     EDDAV:  cpu time    5.5771: real time    5.5904
    CHARGE:  cpu time    0.3395: real time    0.3403
    MIXING:  cpu time    0.0060: real time    0.0061
    --------------------------------------------
      LOOP:  cpu time    6.1805: real time    6.1952

 eigenvalue-minimisations  :  2144
 total energy-change (2. order) : 0.2574202E+02  (-0.2126371E+02)
 number of electron     644.9999863 magnetization      40.9260017
 augmentation part      213.5684057 magnetization      36.1367662

 Broyden mixing:
  rms(total) = 0.76023E+01    rms(broyden)= 0.76015E+01
  rms(prec ) = 0.88831E+01
  weight for this iteration     100.00

 eigenvalues of (default mixing * dielectric matrix)
  average eigenvalue GAMMA=   0.4421
  0.8536  0.8536  0.3301  0.3301  0.1644  0.1206

 Free energy of the ion-electron system (eV)
  ---------------------------------------------------
  alpha Z        PSCENC =      2010.61200230
  Ewald energy   TEWEN  =    -38700.50724869
  -Hartree energ DENC   =    -17784.10904693
  -exchange      EXHF   =         0.00000000
  -V(xc)+E(xc)   XCENC  =      2612.62018953
  PAW double counting   =     56750.37645589   -58950.18874395
  entropy T*S    EENTRO =        -0.07974933
  eigenvalues    EBANDS =     -2301.59841506
  atomic energy  EATOM  =     55752.86688613
  Solvation  Ediel_sol  =         0.00000000
  ---------------------------------------------------
  free energy    TOTEN  =      -610.00767011 eV

  energy without entropy =     -609.92792078  energy(sigma->0) =     -609.96779545


--------------------------------------------------------------------------------------------------------




--------------------------------------- Iteration      1(  12)  ---------------------------------------


    POTLOK:  cpu time    0.2257: real time    0.2262
    SETDIJ:  cpu time    0.0318: real time    0.0319
     EDDAV:  cpu time    5.8646: real time    5.8785
    CHARGE:  cpu time    0.3374: real time    0.3382
    MIXING:  cpu time    0.0063: real time    0.0063
    --------------------------------------------
      LOOP:  cpu time    6.4658: real time    6.4811

 eigenvalue-minimisations  :  2288
 total energy-change (2. order) :-0.6976916E+01  (-0.1796018E+02)
 number of electron     644.9999868 magnetization      38.2961911
 augmentation part      213.9916445 magnetization      31.1720760

 Broyden mixing:
  rms(total) = 0.94806E+01    rms(broyden)= 0.94799E+01
  rms(prec ) = 0.11729E+02
  weight for this iteration     100.00

 eigenvalues of (default mixing * dielectric matrix)
  average eigenvalue GAMMA=   0.4328
  1.1568  0.6675  0.3593  0.3593  0.2334  0.1268  0.1268

 Free energy of the ion-electron system (eV)
  ---------------------------------------------------
  alpha Z        PSCENC =      2010.61200230
  Ewald energy   TEWEN  =    -38700.50724869
  -Hartree energ DENC   =    -17773.43498265
  -exchange      EXHF   =         0.00000000
  -V(xc)+E(xc)   XCENC  =      2613.41965542
  PAW double counting   =     58113.24039127   -60335.52759887
  entropy T*S    EENTRO =        -0.07466829
  eigenvalues    EBANDS =     -2297.57902301
  atomic energy  EATOM  =     55752.86688613
  Solvation  Ediel_sol  =         0.00000000
  ---------------------------------------------------
  free energy    TOTEN  =      -616.98458640 eV

  energy without entropy =     -616.90991811  energy(sigma->0) =     -616.94725226


--------------------------------------------------------------------------------------------------------




--------------------------------------- Iteration      1(  13)  ---------------------------------------


    POTLOK:  cpu time    0.2251: real time    0.2256
    SETDIJ:  cpu time    0.0319: real time    0.0319
     EDDAV:  cpu time    5.7692: real time    5.7829
    CHARGE:  cpu time    0.3369: real time    0.3377
    MIXING:  cpu time    0.0070: real time    0.0070
    --------------------------------------------
      LOOP:  cpu time    6.3700: real time    6.3851

 eigenvalue-minimisations  :  2240
 total energy-change (2. order) : 0.1467095E+02  (-0.7083342E+01)
 number of electron     644.9999864 magnetization      35.5827224
 augmentation part      213.0199408 magnetization      29.9913465

 Broyden mixing:
  rms(total) = 0.73919E+01    rms(broyden)= 0.73912E+01
  rms(prec ) = 0.89011E+01
  weight for this iteration     100.00

 eigenvalues of (default mixing * dielectric matrix)
  average eigenvalue GAMMA=   0.4217
  1.2465  0.6105  0.4109  0.4109  0.3145  0.1474  0.1221  0.1107

 Free energy of the ion-electron system (eV)
  ---------------------------------------------------
  alpha Z        PSCENC =      2010.61200230
  Ewald energy   TEWEN  =    -38700.50724869
  -Hartree energ DENC   =    -17786.07767286
  -exchange      EXHF   =         0.00000000
  -V(xc)+E(xc)   XCENC  =      2613.43708761
  PAW double counting   =     58565.29822894   -60797.34847888
  entropy T*S    EENTRO =        -0.05688119
  eigenvalues    EBANDS =     -2260.53756212
  atomic energy  EATOM  =     55752.86688613
  Solvation  Ediel_sol  =         0.00000000
  ---------------------------------------------------
  free energy    TOTEN  =      -602.31363875 eV

  energy without entropy =     -602.25675756  energy(sigma->0) =     -602.28519816


--------------------------------------------------------------------------------------------------------




--------------------------------------- Iteration      1(  14)  ---------------------------------------


    POTLOK:  cpu time    0.2250: real time    0.2255
    SETDIJ:  cpu time    0.0315: real time    0.0316
     EDDAV:  cpu time    5.8589: real time    5.8786
    CHARGE:  cpu time    0.3389: real time    0.3397
    MIXING:  cpu time    0.0067: real time    0.0067
    --------------------------------------------
      LOOP:  cpu time    6.4609: real time    6.4821

 eigenvalue-minimisations  :  2288
 total energy-change (2. order) : 0.1035957E+02  (-0.1966543E+01)
 number of electron     644.9999859 magnetization      33.3589044
 augmentation part      213.2734611 magnetization      27.6609657

 Broyden mixing:
  rms(total) = 0.39309E+01    rms(broyden)= 0.39302E+01
  rms(prec ) = 0.47172E+01
  weight for this iteration     100.00

 eigenvalues of (default mixing * dielectric matrix)
  average eigenvalue GAMMA=   0.4077
  1.1979  0.5570  0.4410  0.4410  0.4339  0.2251  0.1271  0.1234  0.1234

 Free energy of the ion-electron system (eV)
  ---------------------------------------------------
  alpha Z        PSCENC =      2010.61200230
  Ewald energy   TEWEN  =    -38700.50724869
  -Hartree energ DENC   =    -17800.40504413
  -exchange      EXHF   =         0.00000000
  -V(xc)+E(xc)   XCENC  =      2613.16819475
  PAW double counting   =     58959.84407366   -61202.74736995
  entropy T*S    EENTRO =        -0.05418504
  eigenvalues    EBANDS =     -2224.73137377
  atomic energy  EATOM  =     55752.86688613
  Solvation  Ediel_sol  =         0.00000000
  ---------------------------------------------------
  free energy    TOTEN  =      -591.95406474 eV

  energy without entropy =     -591.89987970  energy(sigma->0) =     -591.92697222


--------------------------------------------------------------------------------------------------------




--------------------------------------- Iteration      1(  15)  ---------------------------------------


    POTLOK:  cpu time    0.2251: real time    0.2256
    SETDIJ:  cpu time    0.0318: real time    0.0318
     EDDAV:  cpu time    5.7011: real time    5.7146
    CHARGE:  cpu time    0.3409: real time    0.3417
    MIXING:  cpu time    0.0068: real time    0.0069
    --------------------------------------------
      LOOP:  cpu time    6.3057: real time    6.3207

 eigenvalue-minimisations  :  2208
 total energy-change (2. order) : 0.3540660E+01  (-0.2251005E+01)
 number of electron     644.9999860 magnetization      31.9738917
 augmentation part      213.7464946 magnetization      27.7837065

 Broyden mixing:
  rms(total) = 0.36281E+01    rms(broyden)= 0.36273E+01
  rms(prec ) = 0.40901E+01
  weight for this iteration     100.00

 eigenvalues of (default mixing * dielectric matrix)
  average eigenvalue GAMMA=   0.3995
  0.9352  0.9352  0.4586  0.4586  0.3352  0.3352  0.1521  0.1521  0.1163  0.1163

 Free energy of the ion-electron system (eV)
  ---------------------------------------------------
  alpha Z        PSCENC =      2010.61200230
  Ewald energy   TEWEN  =    -38700.50724869
  -Hartree energ DENC   =    -17806.99281607
  -exchange      EXHF   =         0.00000000
  -V(xc)+E(xc)   XCENC  =      2612.14069636
  PAW double counting   =     59243.57243635   -61490.17233557
  entropy T*S    EENTRO =        -0.05977943
  eigenvalues    EBANDS =     -2209.87324576
  atomic energy  EATOM  =     55752.86688613
  Solvation  Ediel_sol  =         0.00000000
  ---------------------------------------------------
  free energy    TOTEN  =      -588.41340439 eV

  energy without entropy =     -588.35362496  energy(sigma->0) =     -588.38351467


--------------------------------------------------------------------------------------------------------




--------------------------------------- Iteration      1(  16)  ---------------------------------------


    POTLOK:  cpu time    0.2250: real time    0.2255
    SETDIJ:  cpu time    0.0313: real time    0.0314
     EDDAV:  cpu time    6.1135: real time    6.1280
    CHARGE:  cpu time    0.3424: real time    0.3432
    MIXING:  cpu time    0.0072: real time    0.0073
    --------------------------------------------
      LOOP:  cpu time    6.7195: real time    6.7354

 eigenvalue-minimisations  :  2416
 total energy-change (2. order) : 0.8011129E+00  (-0.1544966E+01)
 number of electron     644.9999860 magnetization      31.6248518
 augmentation part      213.5275262 magnetization      25.8134587

 Broyden mixing:
  rms(total) = 0.26123E+01    rms(broyden)= 0.26116E+01
  rms(prec ) = 0.28383E+01
  weight for this iteration     100.00

 eigenvalues of (default mixing * dielectric matrix)
  average eigenvalue GAMMA=   0.3944
  0.8972  0.8972  0.5351  0.5351  0.3750  0.3750  0.2169  0.1477  0.1229  0.1229
  0.1131

 Free energy of the ion-electron system (eV)
  ---------------------------------------------------
  alpha Z        PSCENC =      2010.61200230
  Ewald energy   TEWEN  =    -38700.50724869
  -Hartree energ DENC   =    -17815.29129431
  -exchange      EXHF   =         0.00000000
  -V(xc)+E(xc)   XCENC  =      2611.60706848
  PAW double counting   =     59328.95347808   -61575.24683760
  entropy T*S    EENTRO =        -0.08842921
  eigenvalues    EBANDS =     -2200.51791668
  atomic energy  EATOM  =     55752.86688613
  Solvation  Ediel_sol  =         0.00000000
  ---------------------------------------------------
  free energy    TOTEN  =      -587.61229150 eV

  energy without entropy =     -587.52386229  energy(sigma->0) =     -587.56807690


--------------------------------------------------------------------------------------------------------




--------------------------------------- Iteration      1(  17)  ---------------------------------------


    POTLOK:  cpu time    0.2249: real time    0.2255
    SETDIJ:  cpu time    0.0315: real time    0.0316
     EDDAV:  cpu time    5.8220: real time    5.8357
    CHARGE:  cpu time    0.3423: real time    0.3431
    MIXING:  cpu time    0.0074: real time    0.0075
    --------------------------------------------
      LOOP:  cpu time    6.4281: real time    6.4433

 eigenvalue-minimisations  :  2272
 total energy-change (2. order) :-0.1322689E+01  (-0.5760956E+00)
 number of electron     644.9999860 magnetization      31.5439975
 augmentation part      213.2276881 magnetization      25.9251213

 Broyden mixing:
  rms(total) = 0.26471E+01    rms(broyden)= 0.26468E+01
  rms(prec ) = 0.28112E+01
  weight for this iteration     100.00

 eigenvalues of (default mixing * dielectric matrix)
  average eigenvalue GAMMA=   0.3641
  0.8894  0.8894  0.5412  0.5412  0.3785  0.3785  0.2160  0.1496  0.1223  0.1223
  0.1117  0.0292

 Free energy of the ion-electron system (eV)
  ---------------------------------------------------
  alpha Z        PSCENC =      2010.61200230
  Ewald energy   TEWEN  =    -38700.50724869
  -Hartree energ DENC   =    -17825.51557183
  -exchange      EXHF   =         0.00000000
  -V(xc)+E(xc)   XCENC  =      2610.95588535
  PAW double counting   =     59278.63212231   -61523.81805691
  entropy T*S    EENTRO =        -0.07817771
  eigenvalues    EBANDS =     -2192.08282120
  atomic energy  EATOM  =     55752.86688613
  Solvation  Ediel_sol  =         0.00000000
  ---------------------------------------------------
  free energy    TOTEN  =      -588.93498026 eV

  energy without entropy =     -588.85680255  energy(sigma->0) =     -588.89589140


--------------------------------------------------------------------------------------------------------




--------------------------------------- Iteration      1(  18)  ---------------------------------------


    POTLOK:  cpu time    0.2250: real time    0.2255
    SETDIJ:  cpu time    0.0314: real time    0.0315
     EDDAV:  cpu time    5.9533: real time    5.9674
    CHARGE:  cpu time    0.3420: real time    0.3428
    MIXING:  cpu time    0.0078: real time    0.0078
    --------------------------------------------
      LOOP:  cpu time    6.5596: real time    6.5751

 eigenvalue-minimisations  :  2336
 total energy-change (2. order) :-0.4480564E+00  (-0.1080623E+00)
 number of electron     644.9999860 magnetization      31.5555633
 augmentation part      213.1308969 magnetization      25.2257673

 Broyden mixing:
  rms(total) = 0.24629E+01    rms(broyden)= 0.24629E+01
  rms(prec ) = 0.25830E+01
  weight for this iteration     100.00

 eigenvalues of (default mixing * dielectric matrix)
  average eigenvalue GAMMA=   0.3492
  0.9028  0.9028  0.5411  0.5411  0.3810  0.3810  0.2184  0.1502  0.1230  0.1230
  0.1100  0.0833  0.0812

 Free energy of the ion-electron system (eV)
  ---------------------------------------------------
  alpha Z        PSCENC =      2010.61200230
  Ewald energy   TEWEN  =    -38700.50724869
  -Hartree energ DENC   =    -17827.57005652
  -exchange      EXHF   =         0.00000000
  -V(xc)+E(xc)   XCENC  =      2610.73023650
  PAW double counting   =     59257.11750608   -61501.23220022
  entropy T*S    EENTRO =        -0.06109999
  eigenvalues    EBANDS =     -2191.33906227
  atomic energy  EATOM  =     55752.86688613
  Solvation  Ediel_sol  =         0.00000000
  ---------------------------------------------------
  free energy    TOTEN  =      -589.38303667 eV

  energy without entropy =     -589.32193668  energy(sigma->0) =     -589.35248668


--------------------------------------------------------------------------------------------------------




--------------------------------------- Iteration      1(  19)  ---------------------------------------


    POTLOK:  cpu time    0.2250: real time    0.2255
    SETDIJ:  cpu time    0.0315: real time    0.0315
     EDDAV:  cpu time    5.4354: real time    5.4483
    CHARGE:  cpu time    0.3390: real time    0.3398
    MIXING:  cpu time    0.0081: real time    0.0081
    --------------------------------------------
      LOOP:  cpu time    6.0389: real time    6.0532

 eigenvalue-minimisations  :  2080
 total energy-change (2. order) :-0.3247566E+00  (-0.2958569E-01)
 number of electron     644.9999860 magnetization      31.7246334
 augmentation part      213.0803644 magnetization      25.2406992

 Broyden mixing:
  rms(total) = 0.24310E+01    rms(broyden)= 0.24310E+01
  rms(prec ) = 0.25615E+01
  weight for this iteration     100.00

 eigenvalues of (default mixing * dielectric matrix)
  average eigenvalue GAMMA=   0.3625
  0.9784  0.6997  0.5758  0.5758  0.3309  0.3309  0.3672  0.3672  0.2272  0.1338
  0.1325  0.1325  0.1113  0.1113

 Free energy of the ion-electron system (eV)
  ---------------------------------------------------
  alpha Z        PSCENC =      2010.61200230
  Ewald energy   TEWEN  =    -38700.50724869
  -Hartree energ DENC   =    -17827.62622604
  -exchange      EXHF   =         0.00000000
  -V(xc)+E(xc)   XCENC  =      2610.64962292
  PAW double counting   =     59268.82672363   -61512.94938479
  entropy T*S    EENTRO =        -0.05482649
  eigenvalues    EBANDS =     -2191.52534222
  atomic energy  EATOM  =     55752.86688613
  Solvation  Ediel_sol  =         0.00000000
  ---------------------------------------------------
  free energy    TOTEN  =      -589.70779325 eV

  energy without entropy =     -589.65296676  energy(sigma->0) =     -589.68038001


--------------------------------------------------------------------------------------------------------




--------------------------------------- Iteration      1(  20)  ---------------------------------------


    POTLOK:  cpu time    0.2251: real time    0.2256
    SETDIJ:  cpu time    0.0312: real time    0.0313
     EDDAV:  cpu time    5.8213: real time    5.8359
    CHARGE:  cpu time    0.3495: real time    0.3503
    MIXING:  cpu time    0.0087: real time    0.0088
    --------------------------------------------
      LOOP:  cpu time    6.4357: real time    6.4518

 eigenvalue-minimisations  :  2272
 total energy-change (2. order) :-0.1688673E+01  (-0.9448627E-01)
 number of electron     644.9999860 magnetization      31.9885573
 augmentation part      213.1183530 magnetization      25.6384979

 Broyden mixing:
  rms(total) = 0.26397E+01    rms(broyden)= 0.26396E+01
  rms(prec ) = 0.28150E+01
  weight for this iteration     100.00

 eigenvalues of (default mixing * dielectric matrix)
  average eigenvalue GAMMA=   0.3971
  1.0608  0.6388  0.6388  0.6057  0.6057  0.6358  0.3811  0.3811  0.2409  0.1511
  0.1379  0.1379  0.1162  0.1162  0.1089

 Free energy of the ion-electron system (eV)
  ---------------------------------------------------
  alpha Z        PSCENC =      2010.61200230
  Ewald energy   TEWEN  =    -38700.50724869
  -Hartree energ DENC   =    -17824.89317424
  -exchange      EXHF   =         0.00000000
  -V(xc)+E(xc)   XCENC  =      2610.25260049
  PAW double counting   =     59332.72178401   -61576.78680677
  entropy T*S    EENTRO =        -0.03198744
  eigenvalues    EBANDS =     -2195.63052234
  atomic energy  EATOM  =     55752.86688613
  Solvation  Ediel_sol  =         0.00000000
  ---------------------------------------------------
  free energy    TOTEN  =      -591.39646655 eV

  energy without entropy =     -591.36447910  energy(sigma->0) =     -591.38047282


--------------------------------------------------------------------------------------------------------




--------------------------------------- Iteration      1(  21)  ---------------------------------------


    POTLOK:  cpu time    0.2683: real time    0.2690
    SETDIJ:  cpu time    0.0422: real time    0.0423
     EDDAV:  cpu time    5.9726: real time    5.9868
    CHARGE:  cpu time    0.3387: real time    0.3395
    MIXING:  cpu time    0.0085: real time    0.0085
    --------------------------------------------
      LOOP:  cpu time    6.6303: real time    6.6461

 eigenvalue-minimisations  :  2320
 total energy-change (2. order) :-0.1581010E+01  (-0.1907623E+00)
 number of electron     644.9999859 magnetization      32.1795451
 augmentation part      213.1540631 magnetization      26.2488260

 Broyden mixing:
  rms(total) = 0.22678E+01    rms(broyden)= 0.22677E+01
  rms(prec ) = 0.24174E+01
  weight for this iteration     100.00

 eigenvalues of (default mixing * dielectric matrix)
  average eigenvalue GAMMA=   0.4461
  1.0435  1.0435  1.0778  0.7029  0.6054  0.6054  0.3930  0.3930  0.2619  0.1916
  0.1916  0.1408  0.1408  0.1178  0.1178  0.1106

 Free energy of the ion-electron system (eV)
  ---------------------------------------------------
  alpha Z        PSCENC =      2010.61200230
  Ewald energy   TEWEN  =    -38700.50724869
  -Hartree energ DENC   =    -17823.56037985
  -exchange      EXHF   =         0.00000000
  -V(xc)+E(xc)   XCENC  =      2609.85499168
  PAW double counting   =     59446.62000637   -61690.73731917
  entropy T*S    EENTRO =        -0.04085005
  eigenvalues    EBANDS =     -2198.08556565
  atomic energy  EATOM  =     55752.86688613
  Solvation  Ediel_sol  =         0.00000000
  ---------------------------------------------------
  free energy    TOTEN  =      -592.97747693 eV

  energy without entropy =     -592.93662688  energy(sigma->0) =     -592.95705190


--------------------------------------------------------------------------------------------------------




--------------------------------------- Iteration      1(  22)  ---------------------------------------


    POTLOK:  cpu time    0.2257: real time    0.2262
    SETDIJ:  cpu time    0.0312: real time    0.0313
     EDDAV:  cpu time    5.9486: real time    5.9645
    CHARGE:  cpu time    0.3372: real time    0.3380
    MIXING:  cpu time    0.0088: real time    0.0088
    --------------------------------------------
      LOOP:  cpu time    6.5515: real time    6.5688

 eigenvalue-minimisations  :  2336
 total energy-change (2. order) :-0.2186917E+01  (-0.4010439E+00)
 number of electron     644.9999860 magnetization      31.9700893
 augmentation part      213.5462956 magnetization      26.6376954

 Broyden mixing:
  rms(total) = 0.24247E+01    rms(broyden)= 0.24245E+01
  rms(prec ) = 0.26127E+01
  weight for this iteration     100.00

 eigenvalues of (default mixing * dielectric matrix)
  average eigenvalue GAMMA=   0.4610
  1.2619  1.2619  1.0797  0.7154  0.5822  0.5822  0.3989  0.3989  0.2902  0.2902
  0.2053  0.1508  0.1374  0.1374  0.1171  0.1171  0.1103

 Free energy of the ion-electron system (eV)
  ---------------------------------------------------
  alpha Z        PSCENC =      2010.61200230
  Ewald energy   TEWEN  =    -38700.50724869
  -Hartree energ DENC   =    -17813.33906780
  -exchange      EXHF   =         0.00000000
  -V(xc)+E(xc)   XCENC  =      2609.90743828
  PAW double counting   =     59657.90903894   -61897.46784123
  entropy T*S    EENTRO =        -0.03449188
  eigenvalues    EBANDS =     -2215.11110979
  atomic energy  EATOM  =     55752.86688613
  Solvation  Ediel_sol  =         0.00000000
  ---------------------------------------------------
  free energy    TOTEN  =      -595.16439374 eV

  energy without entropy =     -595.12990186  energy(sigma->0) =     -595.14714780


--------------------------------------------------------------------------------------------------------




--------------------------------------- Iteration      1(  23)  ---------------------------------------


    POTLOK:  cpu time    0.2255: real time    0.2261
    SETDIJ:  cpu time    0.0313: real time    0.0313
     EDDAV:  cpu time    6.1110: real time    6.1260
    CHARGE:  cpu time    0.3381: real time    0.3389
    MIXING:  cpu time    0.0093: real time    0.0093
    --------------------------------------------
      LOOP:  cpu time    6.7151: real time    6.7316

 eigenvalue-minimisations  :  2416
 total energy-change (2. order) : 0.1889286E+00  (-0.3522502E+00)
 number of electron     644.9999859 magnetization      31.0871396
 augmentation part      213.9479106 magnetization      26.2114831

 Broyden mixing:
  rms(total) = 0.23168E+01    rms(broyden)= 0.23167E+01
  rms(prec ) = 0.25201E+01
  weight for this iteration     100.00

 eigenvalues of (default mixing * dielectric matrix)
  average eigenvalue GAMMA=   0.4707
  1.3631  1.3631  0.9183  0.9183  0.5613  0.5613  0.4195  0.4195  0.3786  0.3786
[...]
 -----------------------------------------------------------------------------------------------
   0.355E-03 -.405E-03 -.177E-02   0.426E-12 -.711E-13 -.398E-12   -.366E-14 0.178E-14 0.355E-14   0.262E-07 -.124E-07 0.412E-06
 
 
 POSITION                                       TOTAL-FORCE (eV/Angst)
 -----------------------------------------------------------------------------------
      4.25043      7.34867      7.09633        -0.002712      0.000395      0.001186
      1.24195      0.91544     11.82783         0.001896      0.003670      0.005591
      0.03436      1.50796      2.35846        -0.003077     -0.009195      0.005043
      6.91631      2.36382      7.10659         0.000266      0.000154     -0.004751
     -1.49895      4.16372      2.35846        -0.009501      0.001933      0.005043
      5.66730      4.89459      7.09633        -0.001014     -0.002546      0.001186
     -1.40829      5.50579     11.82783         0.004126     -0.000193      0.005591
      4.42063      0.92293     11.80776        -0.000266     -0.000154      0.004751
      2.80500      1.76066      2.37025         0.003077      0.009195     -0.005043
      1.59807      2.35357      7.08579        -0.001896     -0.003670     -0.005591
      2.85342      3.27000     11.81802         0.002712     -0.000395     -0.001186
      0.01523      5.09514      7.08579        -0.004126      0.000193     -0.005591
      1.43655      5.72408     11.81802         0.001014      0.002546     -0.001186
      0.10522      6.43682      2.37025         0.009501     -0.001933     -0.005043
      5.66814      1.64318      2.36472         0.000000      0.000000      0.000000
      2.83926      4.89788      7.09927        -0.003859     -0.002228      0.005814
      4.26460      5.72080     11.81508         0.003859      0.002228     -0.005814
      4.26550      7.34397      0.02036         0.006616      0.003123      0.010975
      1.41672      0.79610      4.73613         0.000705     -0.002678     -0.003527
      0.00101      1.64196      9.48883        -0.002822     -0.008213     -0.013741
      7.07730      2.45677     14.11349         0.002945      0.001701      0.008914
      0.01006      3.26444      4.71363        -0.002861     -0.001652      0.001352
     -1.39958      4.06784      9.48883        -0.008524      0.001663     -0.013741
      5.67075      4.90999      0.02036         0.006013      0.004168      0.010975
     -1.42426      5.71681      4.73613        -0.001967      0.001950     -0.003527
     -2.79420      6.53335      9.42565        -0.011854     -0.006844      0.005285
     -1.40379      7.33610      0.01508         0.002861      0.001652     -0.001352
      4.25964      0.82999      4.80086        -0.002945     -0.001701     -0.008914
      2.83902      1.62705      9.42478         0.002822      0.008213      0.013741
      1.42330      2.47290     14.17749        -0.000705      0.002678      0.003527
      2.83769      3.27432      4.70908        -0.006616     -0.003123     -0.010975
      1.40114      4.06758      9.48796         0.011854      0.006844     -0.005285
      0.03119      4.88411     14.17749         0.001967     -0.001950      0.003527
      1.43243      5.70829      4.70908        -0.006013     -0.004168     -0.010975
      0.00651      6.53308      9.42478         0.008524     -0.001663      0.013741
      1.43482      7.33921      0.00143         0.003865      0.005062      0.003755
      7.08497      0.82544      4.72801        -0.006317     -0.000816     -0.003755
      5.66847      1.64338      9.45717         0.000000      0.000000      0.000000
      4.25130      2.46093      0.00143         0.006317      0.000816      0.003755
      5.66837      3.27908      4.72801        -0.003865     -0.005062     -0.003755
      4.26265      4.07832      9.45717        -0.002643      0.004578      0.000000
      2.85013      4.90416      0.06663         0.009061      0.005231     -0.004866
      4.25305      5.71413      4.66281        -0.009061     -0.005231      0.004866
      2.84120      6.54035      9.45717         0.002643     -0.004578      0.000000
     -4.15934      7.32182     10.45039         0.010260     -0.004194     -0.007861
     -0.01656      0.03270      3.76250        -0.003132     -0.010524      0.002524
      1.42194      0.89690      0.99226         0.002192     -0.002229     -0.005146
      1.38269      0.84715      8.45902        -0.005286     -0.004021      0.008532
      0.01161      1.60854      5.76919        -0.000409      0.001351     -0.004097
      0.03219      1.60375     13.22809        -0.001064     -0.000444     -0.001804
      7.07467      2.45525     10.40643        -0.001384     -0.000799     -0.005886
     -1.38538      2.45878      3.69341        -0.002018     -0.001165      0.009912
     -0.03781      3.23680      0.95294         0.014282      0.008246     -0.007162
     -0.00341      3.25666      8.46300         0.003988      0.002302      0.016382
     -1.42322      4.09373      5.76919         0.000966     -0.001030     -0.004097
     -1.41708      4.11395     13.22809        -0.000916     -0.000699     -0.001804
     -2.79394      4.95687     10.45039         0.001498      0.010982     -0.007861
     -2.80202      4.85725      3.76250        -0.010680      0.002550      0.002524
     -1.33435      5.67094      0.99226        -0.000834      0.003013     -0.005146
     -1.39706      5.66182      8.45902        -0.006125     -0.002568      0.008532
     -2.86885      6.49025      5.70136         0.004909      0.002834     -0.001122
     -2.80804      6.52536     13.18128         0.004796      0.002769     -0.002788
      2.84344      0.01234     10.45062        -0.003988     -0.002302     -0.016382
      2.87717      0.03182      3.77577        -0.014282     -0.008246      0.007162
      4.22474      0.80984      1.03530         0.002018      0.001165     -0.009912
      4.26227      0.83151      8.50792         0.001384      0.000799      0.005886
      2.80784      1.66526      5.68552         0.001064      0.000444      0.001804
      2.82842      1.66046     13.14443         0.000409     -0.001351      0.004097
      1.45733      2.42185     10.45460         0.005286      0.004021     -0.008532
      1.41742      2.37172      3.73644        -0.002192      0.002229      0.005146
      2.85592      3.23592      0.96621         0.003132      0.010524     -0.002524
      2.76628      3.27911      8.46323        -0.010260      0.004194      0.007861
      1.41498      4.07557      5.73233        -0.004796     -0.002769      0.002788
      1.47579      4.11068     13.21225        -0.004909     -0.002834      0.001122
      0.00399      4.93911     10.45460         0.006125      0.002568     -0.008532
     -0.05938      4.92960      3.73644         0.000834     -0.003013      0.005146
      1.40829      5.74329      0.96621         0.010680     -0.002550     -0.002524
      1.40087      5.64406      8.46323        -0.001498     -0.010982      0.007861
      0.02402      6.48698      5.68552         0.000916      0.000699      0.001804
      0.03015      6.50720     13.14443        -0.000966      0.001030      0.004097
      1.37949      7.31916     10.43129         0.002408      0.000111      0.001497
      5.62026      0.03949      3.75934         0.001146      0.001593      0.006444
      7.08091      0.88280      0.97010        -0.001953     -0.000196     -0.006444
      7.13067      0.86371      8.48306        -0.001300     -0.002030     -0.001497
      5.72616      1.67668      5.68721         0.008756      0.005056     -0.003304
      5.61078      1.61007     13.22714        -0.008756     -0.005056      0.003304
      4.20627      2.42304     10.43129         0.001300      0.002030      0.001497
      4.25536      2.40357      3.75934         0.001953      0.000196      0.006444
      5.71601      3.24688      0.97010        -0.001146     -0.001593     -0.006444
      5.72436      3.29951      8.48306        -0.002408     -0.000111     -0.001497
      4.24647      4.15764      5.70481         0.003148      0.000109     -0.003509
      4.20205      4.13200     13.20953        -0.001668     -0.002671      0.003509
      2.82585      4.89014     10.49292         0.001568      0.000905     -0.006071
      2.82674      4.89065      3.77270        -0.007225     -0.004172      0.004227
      4.27644      5.72764      0.95675         0.007225      0.004172     -0.004227
      4.27800      5.72854      8.42142        -0.001568     -0.000905      0.006071
      2.90180      6.48668      5.70481         0.001668      0.002671     -0.003509
      2.85738      6.46103     13.20953        -0.003148     -0.000109      0.003509
 -----------------------------------------------------------------------------------
    total drift:                                0.000355     -0.000405     -0.001767


--------------------------------------------------------------------------------------------------------



  FREE ENERGIE OF THE ION-ELECTRON SYSTEM (eV)
  ---------------------------------------------------
  free  energy   TOTEN  =      -595.8805072888 eV

  energy  without entropy=     -595.8283206582  energy(sigma->0) =     -595.85441397
 


--------------------------------------------------------------------------------------------------------


    POTLOK:  cpu time    0.2576: real time    0.2582


--------------------------------------------------------------------------------------------------------


 Quasi-Newton relaxation of ions (Broydens 2nd method)
  g(Force)  = 0.398E-03   g(Stress)= 0.596E-03

 Reset! Starting new Quasi-Newton update for ions 


--------------------------------------------------------------------------------------------------------


  
 reached required accuracy - stopping structural energy minimisation
     LOOP+:  cpu time  304.8441: real time  305.7632
    4ORBIT:  cpu time    0.0000: real time    0.0000

volume of typ            1:    15.0 %

volume of typ            2:    19.4 %

volume of typ            3:     9.9 %
 
total charge     
 
# of ion       s       p       d       tot
------------------------------------------
    1        2.078   0.253   0.095   2.426
    2        2.080   0.260   0.099   2.440
    3        2.076   0.248   0.094   2.418
    4        2.079   0.258   0.097   2.434
    5        2.076   0.248   0.094   2.418
    6        2.078   0.253   0.095   2.426
    7        2.080   0.260   0.099   2.440
    8        2.079   0.258   0.097   2.434
    9        2.076   0.248   0.094   2.418
   10        2.080   0.260   0.099   2.440
   11        2.078   0.253   0.095   2.426
   12        2.080   0.260   0.099   2.440
   13        2.078   0.253   0.095   2.426
   14        2.076   0.248   0.094   2.418
   15        2.072   0.240   0.089   2.401
   16        2.075   0.246   0.091   2.412
   17        2.075   0.246   0.091   2.412
   18        0.273   0.364   7.845   8.482
   19        0.282   0.382   7.843   8.508
   20        0.282   0.383   7.843   8.508
   21        0.281   0.381   7.832   8.494
   22        0.259   0.335   7.855   8.449
   23        0.282   0.383   7.843   8.508
   24        0.273   0.364   7.845   8.482
   25        0.282   0.382   7.843   8.508
   26        0.277   0.374   7.849   8.500
   27        0.259   0.335   7.855   8.449
   28        0.281   0.381   7.832   8.494
   29        0.282   0.383   7.843   8.508
   30        0.282   0.382   7.843   8.508
   31        0.273   0.364   7.845   8.482
   32        0.277   0.374   7.849   8.500
   33        0.282   0.382   7.843   8.508
   34        0.273   0.364   7.845   8.482
   35        0.282   0.383   7.843   8.508
   36        0.273   0.366   7.850   8.489
   37        0.273   0.366   7.850   8.489
   38        0.274   0.366   7.841   8.482
   39        0.273   0.366   7.850   8.489
   40        0.273   0.366   7.850   8.489
   41        0.254   0.325   7.859   8.438
   42        0.289   0.397   7.829   8.515
   43        0.289   0.397   7.829   8.515
   44        0.254   0.325   7.859   8.438
   45        1.266   2.776   0.006   4.048
   46        1.271   2.761   0.007   4.038
   47        1.267   2.774   0.006   4.047
   48        1.263   2.780   0.006   4.050
   49        1.262   2.781   0.005   4.049
   50        1.270   2.764   0.007   4.041
   51        1.282   2.727   0.008   4.016
   52        1.262   2.784   0.005   4.051
   53        1.272   2.758   0.006   4.036
   54        1.268   2.768   0.006   4.042
   55        1.262   2.781   0.005   4.049
   56        1.270   2.764   0.007   4.041
   57        1.266   2.776   0.006   4.048
   58        1.271   2.761   0.007   4.038
   59        1.267   2.774   0.006   4.047
   60        1.263   2.780   0.006   4.050
   61        1.264   2.778   0.006   4.048
   62        1.261   2.784   0.006   4.051
   63        1.268   2.768   0.006   4.042
   64        1.272   2.758   0.006   4.036
   65        1.262   2.784   0.005   4.051
   66        1.282   2.727   0.008   4.016
   67        1.270   2.764   0.007   4.041
   68        1.262   2.781   0.005   4.049
   69        1.263   2.780   0.006   4.050
   70        1.267   2.774   0.006   4.047
   71        1.271   2.761   0.007   4.038
   72        1.266   2.776   0.006   4.048
   73        1.261   2.784   0.006   4.051
   74        1.264   2.778   0.006   4.048
   75        1.263   2.780   0.006   4.050
   76        1.267   2.774   0.006   4.047
   77        1.271   2.761   0.007   4.038
   78        1.266   2.776   0.006   4.048
   79        1.270   2.764   0.007   4.041
   80        1.262   2.781   0.005   4.049
   81        1.265   2.778   0.006   4.050
   82        1.267   2.772   0.006   4.044
   83        1.267   2.772   0.006   4.044
   84        1.265   2.778   0.006   4.050
   85        1.268   2.769   0.007   4.045
   86        1.268   2.769   0.007   4.045
   87        1.265   2.778   0.006   4.050
   88        1.267   2.772   0.006   4.044
   89        1.267   2.772   0.006   4.044
   90        1.265   2.778   0.006   4.050
   91        1.268   2.769   0.006   4.043
   92        1.268   2.769   0.006   4.043
   93        1.259   2.793   0.005   4.057
   94        1.282   2.726   0.008   4.016
   95        1.282   2.726   0.008   4.016
   96        1.259   2.793   0.005   4.057
   97        1.268   2.769   0.006   4.043
   98        1.268   2.769   0.006   4.043
--------------------------------------------------
tot         111.19  163.86  213.77  488.82
 
magnetization (x)
 
# of ion       s       p       d       tot
------------------------------------------
    1        0.006   0.012   0.001   0.020
    2        0.006   0.012   0.001   0.019
    3        0.006   0.013   0.001   0.021
    4        0.006   0.013   0.001   0.020
    5        0.006   0.013   0.001   0.021
    6        0.006   0.012   0.001   0.020
    7        0.006   0.012   0.001   0.019
    8        0.006   0.013   0.001   0.020
    9        0.006   0.013   0.001   0.021
   10        0.006   0.012   0.001   0.019
   11        0.006   0.012   0.001   0.020
   12        0.006   0.012   0.001   0.019
   13        0.006   0.012   0.001   0.020
   14        0.006   0.013   0.001   0.021
   15        0.005   0.012   0.001   0.019
   16        0.006   0.014   0.001   0.021
   17        0.006   0.014   0.001   0.021
   18       -0.000  -0.001   0.486   0.485
   19       -0.000  -0.001   0.349   0.348
   20       -0.000  -0.001   0.325   0.324
   21       -0.000  -0.001   0.311   0.310
   22       -0.000  -0.001   0.835   0.835
   23       -0.000  -0.001   0.325   0.324
   24       -0.000  -0.001   0.486   0.485
   25       -0.000  -0.001   0.349   0.348
   26       -0.001  -0.001   0.446   0.444
   27       -0.000  -0.001   0.835   0.835
   28       -0.000  -0.001   0.311   0.310
   29       -0.000  -0.001   0.325   0.324
   30       -0.000  -0.001   0.349   0.348
   31       -0.000  -0.001   0.486   0.485
   32       -0.001  -0.001   0.446   0.444
   33       -0.000  -0.001   0.349   0.348
   34       -0.000  -0.001   0.486   0.485
   35       -0.000  -0.001   0.325   0.324
   36       -0.000  -0.001   0.526   0.525
   37       -0.000  -0.001   0.526   0.525
   38       -0.001  -0.001   0.401   0.399
   39       -0.000  -0.001   0.526   0.525
   40       -0.000  -0.001   0.526   0.525
   41       -0.000  -0.001   0.923   0.922
   42       -0.000  -0.000   0.160   0.159
   43       -0.000  -0.000   0.160   0.159
   44       -0.000  -0.001   0.923   0.922
   45        0.013   0.081   0.000   0.094
   46        0.004   0.006   0.000   0.010
   47        0.013   0.079   0.000   0.092
   48        0.006   0.016   0.000   0.022
   49        0.013   0.081   0.000   0.095
   50        0.005   0.020   0.000   0.025
   51        0.003   0.002   0.000   0.005
   52        0.014   0.082   0.000   0.097
   53        0.011   0.056   0.000   0.067
   54        0.010   0.043   0.000   0.053
   55        0.013   0.081   0.000   0.095
   56        0.005   0.020   0.000   0.025
   57        0.013   0.081   0.000   0.094
   58        0.004   0.006   0.000   0.010
   59        0.013   0.079   0.000   0.092
   60        0.006   0.016   0.000   0.022
   61        0.004   0.006   0.000   0.011
   62        0.012   0.061   0.000   0.072
   63        0.010   0.043   0.000   0.053
   64        0.011   0.056   0.000   0.067
   65        0.014   0.082   0.000   0.097
   66        0.003   0.002   0.000   0.005
   67        0.005   0.020   0.000   0.025
   68        0.013   0.081   0.000   0.095
   69        0.006   0.016   0.000   0.022
   70        0.013   0.079   0.000   0.092
   71        0.004   0.006   0.000   0.010
   72        0.013   0.081   0.000   0.094
   73        0.012   0.061   0.000   0.072
   74        0.004   0.006   0.000   0.011
   75        0.006   0.016   0.000   0.022
   76        0.013   0.079   0.000   0.092
   77        0.004   0.006   0.000   0.010
   78        0.013   0.081   0.000   0.094
   79        0.005   0.020   0.000   0.025
   80        0.013   0.081   0.000   0.095
   81        0.011   0.065   0.000   0.076
   82        0.010   0.059   0.000   0.069
   83        0.010   0.059   0.000   0.069
   84        0.011   0.065   0.000   0.076
   85        0.005   0.006   0.000   0.011
   86        0.005   0.006   0.000   0.011
   87        0.011   0.065   0.000   0.076
   88        0.010   0.059   0.000   0.069
   89        0.010   0.059   0.000   0.069
   90        0.011   0.065   0.000   0.076
   91        0.011   0.071   0.000   0.082
   92        0.011   0.071   0.000   0.082
   93        0.015   0.087   0.000   0.102
   94        0.002  -0.003   0.000  -0.001
   95        0.002  -0.003   0.000  -0.001
   96        0.015   0.087   0.000   0.102
   97        0.011   0.071   0.000   0.082
   98        0.011   0.071   0.000   0.082
--------------------------------------------------
tot           0.58    2.79   12.52   15.90
 

 total amount of memory used by VASP MPI-rank0   146406. kBytes
=======================================================================

   base      :      30000. kBytes
   nonlr-proj:      40048. kBytes
   fftplans  :       9349. kBytes
   grid      :      55332. kBytes
   one-center:       1524. kBytes
   wavefun   :      10153. kBytes
 
  
  
 General timing and accounting informations for this job:
 ========================================================
  
                  Total CPU time used (sec):      316.817
                            User time (sec):      312.646
                          System time (sec):        4.171
                         Elapsed time (sec):      323.423
  
                   Maximum memory used (kb):      200304.
                   Average memory used (kb):           0.
  
                          Minor page faults:        34009
                          Major page faults:           51
                 Voluntary context switches:          871
