 vasp.5.4.4.18Apr17-6-g9f103f2a35 (build May 12 2020 05:39:39) gamma-only       
  
 MD_VERSION_INFO: Compiled 2020-05-12T12:39:39-UTC in devlin.sd.materialsdesign.
 com:/home/medea2/data/build/wwolf/vasp-gpu5.4.4/13047/x86_64/src/src/build/gam 
 from svn 13047
 
 This VASP executable licensed from Materials Design, Inc.
 
 executed on                        Lin64 date 2023.01.19  16:52:51
 running on   16 total cores
 distrk:  each k-point on   16 cores,    1 groups
 distr:  one band on NCORES_PER_BAND=   1 cores,   16 groups


--------------------------------------------------------------------------------------------------------


 INCAR:
 POTCAR:    PAW_PBE Li_sv 10Sep2004               
 POTCAR:    PAW_PBE Ni 02Aug2007                  
 POTCAR:    PAW_PBE O 08Apr2002                   

 ----------------------------------------------------------------------------- 
|                                                                             |
|           W    W    AA    RRRRR   N    N  II  N    N   GGGG   !!!           |
|           W    W   A  A   R    R  NN   N  II  NN   N  G    G  !!!           |
|           W    W  A    A  R    R  N N  N  II  N N  N  G       !!!           |
|           W WW W  AAAAAA  RRRRR   N  N N  II  N  N N  G  GGG   !            |
|           WW  WW  A    A  R   R   N   NN  II  N   NN  G    G                |
|           W    W  A    A  R    R  N    N  II  N    N   GGGG   !!!           |
|                                                                             |
|      For optimal performance we recommend to set                            |
|        NCORE= 4 - approx SQRT( number of cores)                             |
|      NCORE specifies how many cores store one orbital (NPAR=cpu/NCORE).     |
|      This setting can  greatly improve the performance of VASP for DFT.     |
|      The default,   NCORE=1            might be grossly inefficient         |
|      on modern multi-core architectures or massively parallel machines.     |
|      Do your own testing !!!!                                               |
|      Unfortunately you need to use the default for GW and RPA calculations. |
|      (for HF NCORE is supported but not extensively tested yet)             |
|                                                                             |
 ----------------------------------------------------------------------------- 

 POTCAR:    PAW_PBE Li_sv 10Sep2004               
  local pseudopotential read in
  atomic valenz-charges read in
  non local Contribution for L=           0  read in
    real space projection operators read in
  non local Contribution for L=           0  read in
    real space projection operators read in
  non local Contribution for L=           1  read in
    real space projection operators read in
    PAW grid and wavefunctions read in
 
   number of l-projection  operators is LMAX  =           3
   number of lm-projection operators is LMMAX =           5
 
 POTCAR:    PAW_PBE Ni 02Aug2007                  
  local pseudopotential read in
  partial core-charges read in
  partial kinetic energy density read in
  atomic valenz-charges read in
  non local Contribution for L=           2  read in
    real space projection operators read in
  non local Contribution for L=           2  read in
    real space projection operators read in
  non local Contribution for L=           0  read in
    real space projection operators read in
  non local Contribution for L=           0  read in
    real space projection operators read in
  non local Contribution for L=           1  read in
    real space projection operators read in
  non local Contribution for L=           1  read in
    real space projection operators read in
    PAW grid and wavefunctions read in
 
   number of l-projection  operators is LMAX  =           6
   number of lm-projection operators is LMMAX =          18
 
 POTCAR:    PAW_PBE O 08Apr2002                   
  local pseudopotential read in
  partial core-charges read in
  partial kinetic energy density read in
  kinetic energy density of atom read in
  atomic valenz-charges read in
  non local Contribution for L=           0  read in
    real space projection operators read in
  non local Contribution for L=           0  read in
    real space projection operators read in
  non local Contribution for L=           1  read in
    real space projection operators read in
  non local Contribution for L=           1  read in
    real space projection operators read in
    PAW grid and wavefunctions read in
 
   number of l-projection  operators is LMAX  =           4
   number of lm-projection operators is LMMAX =           8
 
 Optimization of the real space projectors (new method)

 maximal supplied QI-value         = 22.11
 optimisation between [QCUT,QGAM] = [ 11.28, 22.77] = [ 35.61,145.23] Ry 
 Optimized for a Real-space Cutoff    1.10 Angstroem

   l    n(q)    QCUT    max X(q) W(low)/X(q) W(high)/X(q)  e(spline) 
   0      7    11.276    10.506    0.54E-04    0.58E-04    0.16E-07
   0      7    11.276     8.367    0.11E-03    0.14E-03    0.35E-07
   1      7    11.276     8.983    0.23E-03    0.43E-03    0.86E-07
 Optimization of the real space projectors (new method)

 maximal supplied QI-value         = 16.25
 optimisation between [QCUT,QGAM] = [ 11.38, 22.75] = [ 36.24,144.96] Ry 
 Optimized for a Real-space Cutoff    1.47 Angstroem

   l    n(q)    QCUT    max X(q) W(low)/X(q) W(high)/X(q)  e(spline) 
   2      9    11.376    60.317    0.17E-03    0.16E-04    0.16E-06
   2      9    11.376    55.921    0.17E-03    0.16E-04    0.17E-06
   0     10    11.376    51.690    0.45E-04    0.60E-04    0.21E-06
   0     10    11.376    30.015    0.37E-04    0.55E-04    0.19E-06
   1     10    11.376    18.849    0.83E-04    0.11E-03    0.92E-07
   1     10    11.376    14.624    0.69E-04    0.92E-04    0.82E-07
 Optimization of the real space projectors (new method)

 maximal supplied QI-value         = 24.76
 optimisation between [QCUT,QGAM] = [ 11.39, 22.77] = [ 36.31,145.25] Ry 
 Optimized for a Real-space Cutoff    1.10 Angstroem

   l    n(q)    QCUT    max X(q) W(low)/X(q) W(high)/X(q)  e(spline) 
   0      7    11.387    20.381    0.22E-03    0.48E-03    0.18E-06
   0      7    11.387    15.268    0.22E-03    0.52E-03    0.19E-06
   1      7    11.387     5.964    0.22E-03    0.73E-03    0.24E-06
   1      7    11.387     5.382    0.19E-03    0.60E-03    0.21E-06

 ----------------------------------------------------------------------------- 
|                                                                             |
|  ADVICE TO THIS USER RUNNING 'VASP/VAMP'   (HEAR YOUR MASTER'S VOICE ...):  |
|                                                                             |
|      You enforced a specific xc-type in the INCAR file,                     |
|      a different type was found on the POTCAR file                          |
|          I HOPE YOU KNOW, WHAT YOU ARE  DOING                               |
|                                                                             |
 ----------------------------------------------------------------------------- 

  PAW_PBE Li_sv 10Sep2004               :
 energy of atom  1       EATOM= -202.7858
 kinetic energy error for atom=    0.0143 (will be added to EATOM!!)
  PAW_PBE Ni 02Aug2007                  :
 energy of atom  2       EATOM=-1077.6739
 kinetic energy error for atom=    0.0030 (will be added to EATOM!!)
  PAW_PBE O 08Apr2002                   :
 energy of atom  3       EATOM= -432.3788
 kinetic energy error for atom=    0.0224 (will be added to EATOM!!)
 
 
 POSCAR: ce327_1                                 
  positions in direct lattice
  No initial velocities read in
 exchange correlation table for  LEXCH =       14
   RHO(1)=    0.500       N(1)  =     2000
   RHO(2)=  100.500       N(2)  =     4000
 


--------------------------------------------------------------------------------------------------------


 ion  position               nearest neighbor table
   1  0.988  0.499  0.987- 103 2.03 102 2.05  90 2.10  67 2.11  55 2.18  54 2.20  49 2.81  50 2.83

   2  0.111  0.833  0.222-  69 2.10  56 2.10  51 2.11  75 2.11  74 2.11  68 2.11
   3  0.222  0.167  0.111-  89 2.10  59 2.10  58 2.10  53 2.11  76 2.11  52 2.11
   4  0.332  0.500  0.002-  60 2.11  90 2.11  55 2.11  91 2.11  61 2.11  96 2.14
   5  0.455  0.832  0.223-  81 2.04  62 2.05  57 2.11  80 2.11  75 2.18  56 2.18  29 2.82  39 2.84

   6  0.558  0.165  0.103-  64 2.04  65 2.07  95 2.07  58 2.14  82 2.17  59 2.18  30 2.80  46 2.82

   7  0.669  0.499  0.991- 102 2.04  67 2.08  97 2.08  96 2.15  66 2.16  61 2.17  49 2.81  47 2.83

   8  0.767  0.835  0.221-  62 2.04  81 2.05  86 2.11  63 2.11  68 2.18  69 2.18  39 2.82  29 2.84

   9  0.876  0.168  0.100-  64 2.03 101 2.05  65 2.10  52 2.11  70 2.18  53 2.20  49 2.81  30 2.83

  10  0.000  0.499  0.333-  66 2.10  72 2.10  85 2.10  54 2.11  67 2.11  73 2.11
  11  0.112  0.835  0.566-  92 2.04  87 2.05  86 2.11  93 2.11  74 2.18  69 2.18  42 2.82  44 2.84

  12  0.234  0.168  0.457-  94 2.03  77 2.05  71 2.10  76 2.11  70 2.18  53 2.20  37 2.81  45 2.83

  13  0.346  0.499  0.345-  79 2.03  78 2.05  60 2.10  73 2.11  55 2.18  54 2.20  37 2.81  38 2.83

  14  0.453  0.833  0.564-  99 2.09  98 2.09  93 2.11  80 2.11  75 2.16  74 2.16
  15  0.553  0.168  0.453-  77 2.04  76 2.08 100 2.08  83 2.15  59 2.16  82 2.17  37 2.81  48 2.83

  16  0.664  0.502  0.341-  79 2.04  60 2.07  84 2.07  85 2.14  61 2.17  66 2.18  38 2.80  40 2.82

  17  0.890  0.167  0.443-  65 2.11  71 2.11  70 2.11  82 2.11  88 2.11  83 2.14
  18  0.992  0.502  0.669- 103 2.04  90 2.07  84 2.07  85 2.14  91 2.17  72 2.18  50 2.80  40 2.82

  19  0.110  0.832  0.879-  87 2.04  92 2.05  57 2.11 104 2.11  51 2.18  56 2.18  44 2.82  42 2.84

  20  0.230  0.165  0.775-  94 2.04  71 2.07  95 2.07  58 2.14  88 2.17  89 2.18  45 2.80  46 2.82

  21  0.342  0.499  0.665-  78 2.04  73 2.08  97 2.08  96 2.15  72 2.16  91 2.17  37 2.81  47 2.83

  22  0.770  0.833  0.881-  99 2.09  98 2.09  63 2.11 104 2.11  51 2.16  68 2.16
  23  0.880  0.168  0.780- 101 2.04  52 2.08 100 2.08  83 2.15  89 2.16  88 2.17  49 2.81  48 2.83

  24  0.003  0.000  0.002- 104 1.86 101 1.87  89 1.92  68 1.92  53 1.92  56 1.92  36 2.81  27 2.82
                            33 2.82  42 2.86  30 2.87  48 2.88
  25  0.111  0.333  0.222-  70 1.92  55 1.92  52 1.95  76 1.95  73 1.95  67 1.95  43 2.86  31 2.86
                            28 2.86  34 2.86  49 2.87  37 2.87
  26  0.221  0.665  0.113-  57 1.86  54 1.91  75 1.95  51 1.95  90 1.95  60 1.95  35 2.82  32 2.82
                            50 2.86  38 2.86  44 2.87  29 2.87
  27  0.332  0.997  0.001-  95 1.86  56 1.91  92 1.94  62 1.94  59 1.96  89 1.96  36 2.82  24 2.82
                            45 2.86  30 2.86  42 2.87  39 2.87
  28  0.444  0.332  0.220-  79 1.86  58 1.92  61 1.93  76 1.94  55 1.94  82 1.94  46 2.82  43 2.83
                            31 2.84  25 2.86  40 2.86  37 2.87
  29  0.554  0.667  0.108-  81 1.86  96 1.91  63 1.94  57 1.95  66 1.97  60 1.97  47 2.82   5 2.82
                            44 2.82   8 2.84  32 2.86  41 2.87  26 2.87  38 2.88
  30  0.666  1.000  0.999-  98 1.92  95 1.93  65 1.94  68 1.94 101 1.97  62 1.97   6 2.80   9 2.83
                            45 2.83  48 2.86  33 2.86  27 2.86  24 2.87  39 2.88
  31  0.778  0.334  0.224-  64 1.86  85 1.92  82 1.93  67 1.94  70 1.94  61 1.94  40 2.82  34 2.83
                            28 2.84  25 2.86  46 2.86  49 2.87
  32  0.891  0.667  0.114-  63 1.86 102 1.87  66 1.92  51 1.92  54 1.92  69 1.92  35 2.81  41 2.82
                            26 2.82  29 2.86  50 2.87  47 2.88
  33  0.002  0.002  0.332-  86 1.86  53 1.91  68 1.95  74 1.95  65 1.95  71 1.95  24 2.82  36 2.82
                            30 2.86  45 2.86  39 2.87  42 2.87
  34  0.109  0.334  0.555-  94 1.86  85 1.92  88 1.93  73 1.94  70 1.94  91 1.94  40 2.82  31 2.83
                            43 2.84  25 2.86  46 2.86  37 2.87
  35  0.219  0.667  0.442-  93 1.86  78 1.87  72 1.92  75 1.92  54 1.92  69 1.92  32 2.81  41 2.82
                            26 2.82  44 2.86  38 2.87  47 2.88
  36  0.331  0.000  0.331-  80 1.86  77 1.87  59 1.92  74 1.92  53 1.92  56 1.92  24 2.81  27 2.82
                            33 2.82  39 2.86  45 2.87  48 2.88
  37  0.446  0.333  0.557-  97 1.92 100 1.92  76 1.94  73 1.94  94 1.98  79 1.98  15 2.81  21 2.81
                            12 2.81  13 2.81  49 2.83  46 2.86  40 2.86  25 2.87  34 2.87  28 2.87
  38  0.557  0.667  0.446-  99 1.92  84 1.93  60 1.94  75 1.94  78 1.97  81 1.97  16 2.80  13 2.83
                            50 2.83  47 2.86  26 2.86  41 2.86  35 2.87  29 2.88
  39  0.668  1.000  0.336-  62 1.86  83 1.91  80 1.94  86 1.95  59 1.97  65 1.97  48 2.82   8 2.82
                            42 2.82   5 2.84  36 2.86  27 2.87  33 2.87  30 2.88
  40  0.779  0.336  0.554- 100 1.86  85 1.92 103 1.94  79 1.94  88 1.96  82 1.96  18 2.82  16 2.82
                            34 2.82  31 2.82  49 2.86  37 2.86  43 2.86  28 2.86
  41  0.890  0.669  0.443-  84 1.86  69 1.91  81 1.94  87 1.94  66 1.96  72 1.96  32 2.82  35 2.82
                            38 2.86  50 2.86  29 2.87  44 2.87
  42  0.997  1.000  0.666-  92 1.86  83 1.91 104 1.94  86 1.95  89 1.97  71 1.97  48 2.82  11 2.82
                            39 2.82  19 2.84  24 2.86  27 2.87  33 2.87  45 2.88
  43  0.113  0.332  0.889- 103 1.86  58 1.92  91 1.93  52 1.94  55 1.94  88 1.94  46 2.82  28 2.83
                            34 2.84  25 2.86  40 2.86  49 2.87
  44  0.225  0.667  0.779-  87 1.86  96 1.91  93 1.94  57 1.95  72 1.97  90 1.97  47 2.82  19 2.82
                            29 2.82  11 2.84  35 2.86  41 2.87  26 2.87  50 2.88
  45  0.335  1.000  0.668-  98 1.92  95 1.93  71 1.94  74 1.94  77 1.97  92 1.97  20 2.80  12 2.83
                            30 2.83  48 2.86  33 2.86  27 2.86  36 2.87  42 2.88
  46  0.443  0.331  0.890-  97 1.86  58 1.92  94 1.94  64 1.94  61 1.96  91 1.96  20 2.82   6 2.82
                            28 2.82  43 2.82  37 2.86  49 2.86  34 2.86  31 2.86
  47  0.554  0.666  0.779-  99 1.86  96 1.91  63 1.96  93 1.96 102 1.96  78 1.96  29 2.82  44 2.82
                             7 2.83  21 2.83  50 2.86  38 2.86  32 2.88  35 2.88
  48  0.668  0.001  0.666-  98 1.86  83 1.91 104 1.96  80 1.96 101 1.96  77 1.96  42 2.82  39 2.82
                            23 2.83  15 2.83  30 2.86  45 2.86  24 2.88  36 2.88
  49  0.776  0.333  0.887- 100 1.92  97 1.92  52 1.94  67 1.94  64 1.98 103 1.98  23 2.81   7 2.81
                             9 2.81   1 2.81  37 2.83  40 2.86  46 2.86  25 2.87  31 2.87  43 2.87
  50  0.888  0.667  0.777-  99 1.92  84 1.93  90 1.94  51 1.94 102 1.97  87 1.97  18 2.80   1 2.83
                            38 2.83  47 2.86  26 2.86  41 2.86  32 2.87  44 2.88
  51  0.998  0.739  0.001-  32 1.92  50 1.94  26 1.95   2 2.11  22 2.16  19 2.18
  52  0.999  0.260  0.998-  43 1.94  49 1.94  25 1.95  23 2.08   9 2.11   3 2.11
  53  0.111  0.073  0.222-  33 1.91  24 1.92  36 1.92   3 2.11  12 2.20   9 2.20
  54  0.111  0.594  0.223-  26 1.91  35 1.92  32 1.92  10 2.11   1 2.20  13 2.20
  55  0.222  0.405  0.112-  25 1.92  43 1.94  28 1.94   4 2.11  13 2.18   1 2.18
  56  0.222  0.927  0.112-  27 1.91  36 1.92  24 1.92   2 2.10  19 2.18   5 2.18
  57  0.327  0.735  0.007-  26 1.86  44 1.95  29 1.95   5 2.11  19 2.11
  58  0.333  0.260  0.000-  46 1.92  28 1.92  43 1.92   3 2.10  20 2.14   6 2.14
  59  0.442  0.073  0.223-  36 1.92  27 1.96  39 1.97   3 2.10  15 2.16   6 2.18
  60  0.445  0.593  0.224-  38 1.94  26 1.95  29 1.97  16 2.07  13 2.10   4 2.11
  61  0.554  0.406  0.112-  28 1.93  31 1.94  46 1.96   4 2.11  16 2.17   7 2.17
  62  0.560  0.930  0.124-  39 1.86  27 1.94  30 1.97   8 2.04   5 2.05
  63  0.678  0.737  0.006-  32 1.86  29 1.94  47 1.96  22 2.11   8 2.11
  64  0.671  0.263  0.013-  31 1.86  46 1.94  49 1.98   9 2.03   6 2.04
  65  0.777  0.074  0.220-  30 1.94  33 1.95  39 1.97   6 2.07   9 2.10  17 2.11
  66  0.781  0.593  0.221-  32 1.92  41 1.96  29 1.97  10 2.10   7 2.16  16 2.18
  67  0.887  0.406  0.110-  31 1.94  49 1.94  25 1.95   7 2.08   1 2.11  10 2.11
  68  0.890  0.928  0.109-  24 1.92  30 1.94  33 1.95   2 2.11  22 2.16   8 2.18
  69  0.000  0.740  0.333-  41 1.91  32 1.92  35 1.92   2 2.10   8 2.18  11 2.18
  70  0.001  0.262  0.333-  25 1.92  31 1.94  34 1.94  17 2.11   9 2.18  12 2.18
  71  0.113  0.074  0.556-  45 1.94  33 1.95  42 1.97  20 2.07  12 2.10  17 2.11
  72  0.112  0.593  0.553-  35 1.92  41 1.96  44 1.97  10 2.10  21 2.16  18 2.18
  73  0.224  0.406  0.447-  34 1.94  37 1.94  25 1.95  21 2.08  13 2.11  10 2.11
  74  0.224  0.928  0.444-  36 1.92  45 1.94  33 1.95   2 2.11  14 2.16  11 2.18
  75  0.332  0.739  0.335-  35 1.92  38 1.94  26 1.95   2 2.11  14 2.16   5 2.18
  76  0.336  0.260  0.335-  28 1.94  37 1.94  25 1.95  15 2.08  12 2.11   3 2.11
  77  0.439  0.071  0.543-  36 1.87  48 1.96  45 1.97  15 2.04  12 2.05
  78  0.432  0.596  0.550-  35 1.87  47 1.96  38 1.97  21 2.04  13 2.05
  79  0.551  0.404  0.432-  28 1.86  40 1.94  37 1.98  13 2.03  16 2.04
  80  0.544  0.930  0.438-  36 1.86  39 1.94  48 1.96  14 2.11   5 2.11
  81  0.662  0.736  0.321-  29 1.86  41 1.94  38 1.97   5 2.04   8 2.05
  82  0.668  0.260  0.332-  31 1.93  28 1.94  40 1.96  17 2.11   6 2.17  15 2.17
  83  0.778  0.071  0.556-  48 1.91  42 1.91  39 1.91  17 2.14  15 2.15  23 2.15
  84  0.783  0.599  0.550-  41 1.86  38 1.93  50 1.93  18 2.07  16 2.07
  85  0.889  0.407  0.444-  40 1.92  31 1.92  34 1.92  10 2.10  16 2.14  18 2.14
  86  0.895  0.931  0.438-  33 1.86  39 1.95  42 1.95   8 2.11  11 2.11
  87  0.013  0.736  0.671-  44 1.86  41 1.94  50 1.97  19 2.04  11 2.05
  88  0.001  0.260  0.666-  34 1.93  43 1.94  40 1.96  17 2.11  20 2.17  23 2.17
  89  0.110  0.073  0.892-  24 1.92  27 1.96  42 1.97   3 2.10  23 2.16  20 2.18
  90  0.109  0.593  0.889-  50 1.94  26 1.95  44 1.97  18 2.07   1 2.10   4 2.11
  91  0.221  0.406  0.779-  43 1.93  34 1.94  46 1.96   4 2.11  18 2.17  21 2.17
  92  0.210  0.930  0.773-  42 1.86  27 1.94  45 1.97  11 2.04  19 2.05
  93  0.327  0.737  0.655-  35 1.86  44 1.94  47 1.96  14 2.11  11 2.11
  94  0.321  0.263  0.663-  34 1.86  46 1.94  37 1.98  12 2.03  20 2.04
  95  0.439  0.067  0.895-  27 1.86  45 1.93  30 1.93  20 2.07   6 2.07
  96  0.444  0.595  0.889-  47 1.91  29 1.91  44 1.91   4 2.14  21 2.15   7 2.15
  97  0.550  0.401  0.783-  46 1.86  37 1.92  49 1.92   7 2.08  21 2.08
  98  0.560  0.933  0.773-  48 1.86  30 1.92  45 1.92  14 2.09  22 2.09
  99  0.662  0.734  0.672-  47 1.86  50 1.92  38 1.92  22 2.09  14 2.09
 100  0.672  0.266  0.662-  40 1.86  49 1.92  37 1.92  23 2.08  15 2.08
 101  0.790  0.071  0.894-  24 1.87  48 1.96  30 1.97  23 2.04   9 2.05
 102  0.783  0.596  0.901-  32 1.87  47 1.96  50 1.97   7 2.04   1 2.05
 103  0.901  0.404  0.782-  43 1.86  40 1.94  49 1.98   1 2.03  18 2.04
 104  0.895  0.930  0.789-  24 1.86  42 1.94  48 1.96  22 2.11  19 2.11
 
  LATTYP: Found a base centered monoclinic cell.
 ALAT       =    14.8091902711
 B/A-ratio  =     0.5779058795
 C/A-ratio  =     2.2145090762
 COS(beta)  =    -0.7820051953
  
  Lattice vectors:
  
 A1 = (   8.5521470066,   0.0035629064,   0.0005459160)
 A2 = (   4.2729879494,  -7.4081580103,   0.0005459160)
 A3 = ( -25.6512012822,  14.8097279616, -14.0785479964)


Analysis of symmetry for initial positions (statically):
=====================================================================
 Subroutine PRICEL returns:
 Original cell was already a primitive cell.
 

 Routine SETGRP: Setting up the symmetry group for a 
 base centered monoclinic supercell.


 Subroutine GETGRP returns: Found  4 space group operations
 (whereof  1 operations were pure point group operations)
 out of a pool of  4 trial point group operations.


The static configuration has the point symmetry C_1 .
 The point group associated with its full space group is C_2h.


Analysis of symmetry for dynamics (positions and initial velocities):
=====================================================================
 Subroutine PRICEL returns:
 Original cell was already a primitive cell.
 

 Routine SETGRP: Setting up the symmetry group for a 
 base centered monoclinic supercell.


 Subroutine GETGRP returns: Found  4 space group operations
 (whereof  1 operations were pure point group operations)
 out of a pool of  4 trial point group operations.


The dynamic configuration has the point symmetry C_1 .
 The point group associated with its full space group is C_2h.


Analysis of structural, dynamic, and magnetic symmetry:
=====================================================================
 Subroutine PRICEL returns:
 Original cell was already a primitive cell.
 

 Routine SETGRP: Setting up the symmetry group for a 
 base centered monoclinic supercell.


 Subroutine GETGRP returns: Found  4 space group operations
 (whereof  1 operations were pure point group operations)
 out of a pool of  4 trial point group operations.


The magnetic configuration has the point symmetry C_1 .
 The point group associated with its full space group is C_2h.


 Subroutine INISYM returns: Found  4 space group operations
 (whereof  1 operations are pure point group operations),
 and found     1 'primitive' translations

 
 
 KPOINTS: Automatic mesh                          

Automatic generation of k-mesh.
Space group operators:
 irot       det(A)        alpha          n_x          n_y          n_z        tau_x        tau_y        tau_z
    1     1.000000     0.000000     1.000000     0.000000     0.000000     0.000000     0.000000     0.000000
    2    -1.000000     0.000000     1.000000     0.000000     0.000000     0.222222    -0.333333    -0.555556
    3     1.000000   180.000000     0.500000     0.866025     0.000000    -0.111111    -0.333333     0.111111
    4    -1.000000   180.000000     0.500000     0.866025     0.000000    -0.666667    -0.000000     0.333333
 
 Subroutine IBZKPT returns following result:
 ===========================================
 
 Found      1 irreducible k-points:
 
 Following reciprocal coordinates:
            Coordinates               Weight
  0.000000  0.000000  0.000000      1.000000
 
 Following cartesian coordinates:
            Coordinates               Weight
  0.000000  0.000000  0.000000      1.000000
 


--------------------------------------------------------------------------------------------------------




 Dimension of arrays:
   k-points           NKPTS =      1   k-points in BZ     NKDIM =      1   number of bands    NBANDS=    432
   number of dos      NEDOS =    301   number of ions     NIONS =    104
   non local maximal  LDIM  =      6   non local SUM 2l+1 LMDIM =     18
   total plane-waves  NPLWV = 442368
   max r-space proj   IRMAX =   6707   max aug-charges    IRDMAX=  16272
   dimension x,y,z NGX =    64 NGY =  108 NGZ =   64
   dimension x,y,z NGXF=   128 NGYF=  216 NGZF=  128
   support grid    NGXF=   128 NGYF=  216 NGZF=  128
   ions per type =              23  27  54
   NGX,Y,Z   is equivalent  to a cutoff of  12.44, 12.76, 12.44 a.u.
   NGXF,Y,Z  is equivalent  to a cutoff of  24.88, 25.51, 24.88 a.u.

 SYSTEM =  unknown system                          
 POSCAR =  ce327_1                                 

 Startparameter for this run:
   NWRITE =      1    write-flag & timer
   PREC   = accura    normal or accurate (medium, high low for compatibility)
   ISTART =      0    job   : 0-new  1-cont  2-samecut
   ICHARG =      2    charge: 1-file 2-atom 10-const
   ISPIN  =      2    spin polarized calculation?
   LNONCOLLINEAR =      F non collinear calculations
   LSORBIT =      F    spin-orbit coupling
   INIWAV =      1    electr: 0-lowe 1-rand  2-diag
   LASPH  =      F    aspherical Exc in radial PAW
   METAGGA=      F    non-selfconsistent MetaGGA calc.

 Electronic Relaxation 1
   ENCUT  =  500.0 eV  36.75 Ry    6.06 a.u.  15.59 25.66 15.59*2*pi/ulx,y,z
   ENINI  =  500.0     initial cutoff
   ENAUG  =  628.9 eV  augmentation charge cutoff
   NELM   =     80;   NELMIN=  2; NELMDL= -5     # of ELM steps 
   EDIFF  = 0.1E-04   stopping-criterion for ELM
   LREAL  =      T    real-space projection
   NLSPLINE    = F    spline interpolate recip. space projectors
   LCOMPAT=      F    compatible to vasp.4.4
   GGA_COMPAT  = T    GGA compatible to vasp.4.4-vasp.4.6
   LMAXPAW     = -100 max onsite density
   LMAXMIX     =    2 max onsite mixed and CHGCAR
   VOSKOWN=      1    Vosko Wilk Nusair interpolation
   ROPT   =   -0.00025  -0.00025  -0.00025
 Ionic relaxation
   EDIFFG = -.2E-01   stopping-criterion for IOM
   NSW    =     20    number of steps for IOM
   NBLOCK =      1;   KBLOCK =     20    inner block; outer block 
   IBRION =      1    ionic relax: 0-MD 1-quasi-New 2-CG
   NFREE  =      0    steps in history (QN), initial steepest desc. (CG)
   ISIF   =      3    stress and relaxation
   IWAVPR =     11    prediction:  0-non 1-charg 2-wave 3-comb
   ISYM   =      2    0-nonsym 1-usesym 2-fastsym
   LCORR  =      T    Harris-Foulkes like correction to forces

   POTIM  = 0.5000    time-step for ionic-motion
   TEIN   =    0.0    initial temperature
   TEBEG  =    0.0;   TEEND  =   0.0 temperature during run
   SMASS  =  -3.00    Nose mass-parameter (am)
   estimated Nose-frequenzy (Omega)   =  0.10E-29 period in steps =****** mass=  -0.167E-26a.u.
   SCALEE = 1.0000    scale energy and forces
   NPACO  =    256;   APACO  = 16.0  distance and # of slots for P.C.
   PSTRESS=    0.0 pullay stress

  Mass of Ions in am
   POMASS =   7.01 58.69 16.00
  Ionic Valenz
   ZVAL   =   3.00 10.00  6.00
  Atomic Wigner-Seitz radii
   RWIGS  =   1.23  1.15  0.73
  virtual crystal weights 
   VCA    =   1.00  1.00  1.00
   NELECT =     663.0000    total number of electrons
   NUPDOWN=      -1.0000    fix difference up-down

 DOS related values:
   EMIN   =  10.00;   EMAX   =-10.00  energy-range for DOS
   EFERMI =   0.00
   ISMEAR =     0;   SIGMA  =   0.05  broadening in eV -4-tet -1-fermi 0-gaus

 Electronic relaxation 2 (details)
   IALGO  =     38    algorithm
   LDIAG  =      T    sub-space diagonalisation (order eigenvalues)
   LSUBROT=      F    optimize rotation matrix (better conditioning)
   TURBO    =      0    0=normal 1=particle mesh
   IRESTART =      0    0=no restart 2=restart with 2 vectors
   NREBOOT  =      0    no. of reboots
   NMIN     =      0    reboot dimension
   EREF     =   0.00    reference energy to select bands
   IMIX   =      4    mixing-type and parameters
     AMIX     =   0.40;   BMIX     =  1.00
     AMIX_MAG =   1.60;   BMIX_MAG =  1.00
     AMIN     =   0.10
     WC   =   100.;   INIMIX=   1;  MIXPRE=   1;  MAXMIX= -45

 Intra band minimization:
   WEIMIN = 0.0010     energy-eigenvalue tresh-hold
   EBREAK =  0.58E-08  absolut break condition
   DEPER  =   0.30     relativ break condition  

   TIME   =   0.40     timestep for ELM

  volume/ion in A,a.u.               =       8.58        57.88
  Fermi-wavevector in a.u.,A,eV,Ry     =   1.482925  2.802322 29.920127  2.199067
  Thomas-Fermi vector in A             =   2.596651
 
 Write flags
   LWAVE        =      F    write WAVECAR
   LDOWNSAMPLE  =      F    k-point downsampling of WAVECAR
   LCHARG       =      T    write CHGCAR
   LVTOT        =      F    write LOCPOT, total local potential
   LVHAR        =      F    write LOCPOT, Hartree potential only
   LELF         =      F    write electronic localiz. function (ELF)
   LORBIT       =      0    0 simple, 1 ext, 2 COOP (PROOUT), +10 PAW based schemes


 Dipole corrections
   LMONO  =      F    monopole corrections only (constant potential shift)
   LDIPOL =      F    correct potential (dipole corrections)
   IDIPOL =      0    1-x, 2-y, 3-z, 4-all directions 
   EPSILON=  1.0000000 bulk dielectric constant

 Exchange correlation treatment:
   GGA     =    PS    GGA type
   LEXCH   =    14    internal setting for exchange type
   VOSKOWN=      1    Vosko Wilk Nusair interpolation
   LHFCALC =     F    Hartree Fock is set to
   LHFONE  =     F    Hartree Fock one center treatment
   AEXX    =    0.0000 exact exchange contribution

 Linear response parameters
   LEPSILON=     F    determine dielectric tensor
   LRPA    =     F    only Hartree local field effects (RPA)
   LNABLA  =     F    use nabla operator in PAW spheres
   LVEL    =     F    velocity operator in full k-point grid
   LINTERFAST=   F  fast interpolation
   KINTER  =     0    interpolate to denser k-point grid
   CSHIFT  =0.1000    complex shift for real part using Kramers Kronig
   OMEGAMAX=  -1.0    maximum frequency
   DEG_THRESHOLD= 0.2000000E-02 threshold for treating states as degnerate
   RTIME   =   -0.100 relaxation time in fs
  (WPLASMAI=    0.000 imaginary part of plasma frequency in eV, 0.658/RTIME)
   DFIELD  = 0.0000000 0.0000000 0.0000000 field for delta impulse in time
 
 Orbital magnetization related:
   ORBITALMAG=     F  switch on orbital magnetization
   LCHIMAG   =     F  perturbation theory with respect to B field
   DQ        =  0.001000  dq finite difference perturbation B field
   LLRAUG    =     F  two centre corrections for induced B field



--------------------------------------------------------------------------------------------------------


 quasi-Newton-method for relaxation of ions
 charge density and potential will be updated during run
 spin polarized calculation
 Variant of blocked Davidson
 Davidson routine will perform the subspace rotation
 perform sub-space diagonalisation
    after iterative eigenvector-optimisation
 modified Broyden-mixing scheme, WC =      100.0
 initial mixing is a Kerker type mixing with AMIX =  0.4000 and BMIX =      1.0000
 Hartree-type preconditioning will be used
 using additional bands          100
 real space projection scheme for non local part
 use partial core corrections
 calculate Harris-corrections to forces 
   (improved forces if not selfconsistent)
 use gradient corrections 
 use of overlap-Matrix (Vanderbilt PP)
 Gauss-broadening in eV      SIGMA  =   0.05


--------------------------------------------------------------------------------------------------------


  energy-cutoff  :      500.00
  volume of cell :      892.03
      direct lattice vectors                 reciprocal lattice vectors
    -4.272987949  7.408158010 -0.000545916    -0.000056223  0.134953893  0.000005159
     0.000931370 -0.000537754 14.076364332    -0.000004536  0.000002619  0.071041072
     8.552147007  0.003562906  0.000545916     0.116901611  0.067428256 -0.000005159

  length of vectors
     8.552147766 14.076364373  8.552147766     0.134953904  0.071041072  0.134953904


 
 k-points in units of 2pi/SCALE and weight: Automatic mesh                          
   0.00000000  0.00000000  0.00000000       1.000
 
 k-points in reciprocal lattice and weights: Automatic mesh                          
   0.00000000  0.00000000  0.00000000       1.000
 
 position of ions in fractional coordinates (direct lattice) 
   0.98849757  0.49890679  0.98722533
   0.11111111  0.83333333  0.22222222
   0.22214931  0.16722342  0.11118402
   0.33180530  0.49987362  0.00152803
   0.45475377  0.83199931  0.22316137
   0.55812704  0.16499671  0.10294818
   0.66876863  0.49888499  0.99149107
   0.76746845  0.83466735  0.22128307
   0.87611422  0.16775988  0.09960868
   0.00007291  0.49944325  0.33326042
   0.11205026  0.83466735  0.56586489
   0.23372465  0.16775988  0.45721911
   0.34610800  0.49890679  0.34483576
   0.45260282  0.83333333  0.56371394
   0.55345360  0.16778168  0.45295337
   0.66409519  0.50166996  0.34149626
   0.89041692  0.16679305  0.44291641
   0.99183707  0.50166996  0.66923815
   0.11017196  0.83199931  0.87857956
   0.23038515  0.16499671  0.77520630
   0.34184226  0.49888499  0.66456471
   0.76961940  0.83333333  0.88073051
   0.88037996  0.16778168  0.77987974
   0.00280670  0.00008509  0.00244994
   0.11111111  0.33333333  0.22222222
   0.22068312  0.66503098  0.11265021
   0.33202380  0.99739380  0.00130953
   0.44402989  0.33220775  0.22033220
   0.55443216  0.66689390  0.10809566
   0.66566340  0.99996691  0.99878721
   0.77819233  0.33445891  0.22411224
   0.89133883  0.66658158  0.11391781
   0.00153910  0.00163569  0.33179423
   0.10922109  0.33445891  0.55514101
   0.21941552  0.66658158  0.44199450
   0.33088339  0.00008509  0.33052663
   0.44600254  0.33333333  0.55711366
   0.55655883  0.66669976  0.44565723
   0.66779007  0.99977277  0.33634878
   0.77886201  0.33569079  0.55447133
   0.89019842  0.66927287  0.44313491
   0.99698455  0.99977277  0.66554327
   0.11300113  0.33220775  0.88930344
   0.22523767  0.66689390  0.77890118
   0.33454612  0.99996691  0.66766994
   0.44336021  0.33097587  0.88997312
   0.55448710  0.66562939  0.77884624
   0.66773513  0.00103728  0.66559821
   0.77621968  0.33333333  0.88733079
   0.88767610  0.66669976  0.77677451
   0.99827534  0.73854995  0.00088360
   0.99854556  0.26039801  0.99781949
   0.11149781  0.07257472  0.22183552
   0.11072441  0.59409194  0.22260892
   0.22170890  0.40501914  0.11162443
   0.22181530  0.92707871  0.11151803
   0.32677710  0.73532160  0.00655623
   0.33296179  0.25999457  0.00037154
   0.44160227  0.07318335  0.22303361
   0.44475606  0.59283325  0.22416791
   0.55446529  0.40633959  0.11217120
   0.56026537  0.93025318  0.12367155
   0.67786827  0.73668905  0.00609982
   0.67073501  0.26313928  0.01258612
   0.77746616  0.07383341  0.22027653
   0.78061995  0.59348331  0.22141083
   0.88670838  0.40626866  0.10965667
   0.88977249  0.92811672  0.10938645
   0.00040692  0.73958796  0.33292641
   0.00051332  0.26164753  0.33282001
   0.11305680  0.07383341  0.55586718
   0.11192250  0.59348331  0.55271339
   0.22367666  0.40626866  0.44662495
   0.22394688  0.92811672  0.44356084
   0.33244973  0.73854995  0.33505799
   0.33551384  0.26039801  0.33478777
   0.43905263  0.07093614  0.54333304
   0.43222192  0.59573052  0.55016375
   0.55148722  0.40352739  0.43185832
   0.54435396  0.92997762  0.43834462
   0.66195686  0.73641349  0.32077289
   0.66775694  0.26032708  0.33227324
   0.77781237  0.07146690  0.55552097
   0.78347841  0.59940143  0.54985493
   0.88926043  0.40667210  0.44407290
   0.89544512  0.93134507  0.43788821
   0.01256044  0.73641349  0.67137648
   0.00106009  0.26032708  0.66557640
   0.11029972  0.07318335  0.89173106
   0.10916542  0.59283325  0.88857727
   0.22116213  0.40633959  0.77886805
   0.20966178  0.93025318  0.77306797
   0.32723351  0.73668905  0.65546507
   0.32074721  0.26313928  0.66259833
   0.43874381  0.06726523  0.89458952
   0.44440985  0.59519976  0.88892348
   0.55044259  0.40052345  0.78289075
   0.56044848  0.93293559  0.77288486
   0.66177375  0.73373108  0.67155959
   0.67177964  0.26614322  0.66155370
   0.79000030  0.07093614  0.89428070
   0.78316959  0.59573052  0.90111141
   0.90147501  0.40352739  0.78184612
   0.89498871  0.92997762  0.78897938
 
 position of ions in cartesian coordinates  (Angst):
   4.21952261  7.32619529  7.02279305
   1.42647680  0.82347229 11.73036422
   0.00177651  1.64602340  2.35383721
  -1.40426654  2.45780273  7.03622289
  -0.03387364  3.36923548 11.71139898
  -1.50428847  4.13497137  2.32230531
   5.62220174  4.95760800  7.02266306
  -1.38616071  5.68586711 11.74878354
  -2.89160118  6.49065726  2.36102528
   2.85024573  0.00145893  7.03052704
   4.36134770  0.83165331 11.74932946
   2.91165868  1.73300795  2.36157120
   1.47063547  2.56498308  7.02279305
   2.88777423  3.35451354 11.73036422
   1.50897951  4.10159533  2.36170119
   0.08332271  4.92066905  7.06151302
  -0.01669917  6.59783761  2.34759544
   1.48578243  7.34980039  7.06151302
   7.04375300  0.81885417 11.71194490
   5.64539894  1.70940285  2.32285123
   4.22323188  2.53452098  7.02266306
   4.24433851  5.70415196 11.73036422
   2.90794949  6.52468227  2.36170119
   0.00895933  0.02080116  0.00119756
   1.42601112  0.82374117  4.69218205
   0.02104423  1.63489916  9.36115939
  -1.40660546  2.45915309 14.03949797
  -0.01271160  3.29004996  4.67615520
  -1.44401084  4.10734756  9.38719785
   5.69833470  4.93436050 14.07608040
  -1.40825412  5.76559038  4.70766299
  -2.83381739  6.60322632  9.38262077
   2.83097800  0.01258317  0.02320486
   4.28125863  0.81092515  4.70820891
   2.84306290  1.62668117  9.38316669
   1.41285167  2.45241403  0.00119756
   2.85906490  3.30586298  4.69218205
   1.43377792  4.12430507  9.38464818
   0.02397645  4.94775510 14.07298482
   1.41416499  5.77172785  4.72518336
  -0.01342889  6.59594950  9.42068470
   1.43265208  7.38765272 14.07298482
   7.12291069  0.84012009  4.67670112
   5.69946067  1.67101278  9.38774376
   4.28143128  2.48021163 14.07608040
   5.71701638  3.28747540  4.65918074
   4.29211079  4.11014506  9.36976429
   2.83907054  4.94905826  0.01459996
   4.27211648  5.75334027  4.69218205
   2.85068147  6.57845387  9.38464818
  -4.25737396  7.39498745 10.39555368
   4.26696835  7.40079840  3.66545686
   1.42080877  0.82674475  1.02164844
   1.43121346  0.82073758  8.36271567
   0.00764630  1.64263447  5.70113688
   0.00676794  1.64314158 13.04983747
  -1.33955991  2.42044433 10.35047993
  -1.41932210  2.46649506  3.65959673
   0.02052320  3.27221469  1.03003618
   0.01723178  3.29530306  8.34481639
  -1.40954046  4.10774762  5.71954266
  -1.33548349  4.15047477 13.09434434
  -2.84367026  5.02138083 10.36953674
  -2.75815919  4.96881428  3.70368508
  -1.43819750  5.76033728  1.03900180
  -1.44148892  5.78342565  8.35378202
  -2.85071587  6.56904801  5.71836147
  -2.86563371  6.59146583 13.06408307
   2.84618567  0.00380300 10.41089111
   2.84437593  0.00484786  3.68322737
   4.27083626  0.83948344  1.03954772
   4.24919542  0.83078968  8.35432793
   2.86421294  1.65840485  5.71890739
   2.83733961  1.66011514 13.06462898
   1.44559936  2.46363675 10.39609960
   1.42975016  2.48659233  3.66545686
   2.77066350  3.25446896  0.99857988
   2.85875706  3.20360810  8.38578423
   1.33719343  4.08682614  5.68013325
   1.42363587  4.03372183 13.09064593
  -0.08455090  4.90462789 10.36583833
  -0.01142530  4.94789279  3.66427568
   1.42738068  5.76409778  1.00587277
   1.35520465  5.80576861  8.43726537
  -0.00164362  6.58914528  5.72422161
  -0.08047444  6.63465826 13.10970274
   5.68872562  0.09504577 10.36638424
   5.68781993  0.01008471  3.66482159
   7.15497390  0.82025555  1.03058209
   7.13333306  0.81156180  8.34536231
   5.71634940  1.64096053  5.72008857
   5.71637508  1.55546172 13.09489026
   4.20805492  2.42613675 10.37008265
   4.29633444  2.37836528  3.70423100
   5.77597672  3.25343464  0.94709874
   5.70380070  3.29510547  8.37849134
   4.34373527  4.08033967  5.63804090
   4.21590425  4.15414292 13.13245724
   2.91620845  4.90452264 10.32827135
   2.78744607  4.97886366  3.74632335
   4.27242432  5.85559514  0.99857988
   4.36051787  5.80473429  8.38578423
   2.83484693  6.68083796  5.68013325
   2.92405782  6.63252874 13.09064593
 


--------------------------------------------------------------------------------------------------------


 use serial FFT for orbitals x direction half grid
 k-point  1 :   0.0000 0.0000 0.0000  plane waves:   11316

 maximum and minimum number of plane-waves per node :     11316    11316

 maximum number of plane-waves:     11316
 maximum index in each direction: 
   IXMAX=   15   IYMAX=   25   IZMAX=   13
   IXMIN=    0   IYMIN=  -25   IZMIN=  -15

 The following grids will avoid any aliasing or wrap around errors in the Hartre
 e energy
  - symmetry arguments have not been applied
  - exchange correlation energies might require even more grid points
  - we recommend to set PREC=Normal or Accurate and rely on VASP defaults
 NGX is ok and might be reduce to    64
 NGY is ok and might be reduce to   108
 NGZ is ok and might be reduce to    60

 serial   3D FFT for wavefunctions
 parallel 3D FFT for charge:
    minimum data exchange during FFTs selected (reduces bandwidth)


 total amount of memory used by VASP MPI-rank0   146973. kBytes
=======================================================================

   base      :      30000. kBytes
   nonlr-proj:      40439. kBytes
   fftplans  :       9349. kBytes
   grid      :      55332. kBytes
   one-center:       1617. kBytes
   wavefun   :      10236. kBytes
 
     INWAV:  cpu time    0.0000: real time    0.0000
 Broyden mixing: mesh for mixing (old mesh)
   NGX = 31   NGY = 51   NGZ = 31
  (NGX  =128   NGY  =216   NGZ  =128)
  gives a total of  49011 points

 initial charge density was supplied:
 charge density of overlapping atoms calculated
 number of electron     663.0000000 magnetization      67.5000000
 keeping initial charge density in first step


--------------------------------------------------------------------------------------------------------


 Maximum index for non-local projection operator         6467
 Maximum index for augmentation-charges         1073 (set IRDMAX)


--------------------------------------------------------------------------------------------------------


 First call to EWALD:  gamma=   0.184
 Maximum number of real-space cells 3x 2x 3
 Maximum number of reciprocal cells 2x 4x 2

    FEWALD:  cpu time    0.0041: real time    0.0042


--------------------------------------- Iteration      1(   1)  ---------------------------------------


    POTLOK:  cpu time    0.2574: real time    0.2797
    SETDIJ:  cpu time    0.0304: real time    0.0305
     EDDAV:  cpu time    4.8840: real time    4.9177
    --------------------------------------------
      LOOP:  cpu time    5.1723: real time    5.2283

 eigenvalue-minimisations  :  1776
 total energy-change (2. order) : 0.1189481E+05  (-0.3040180E+05)
 number of electron     663.0000000 magnetization      67.5000000
 augmentation part      663.0000000 magnetization      67.5000000

 Free energy of the ion-electron system (eV)
  ---------------------------------------------------
  alpha Z        PSCENC =      2084.10950569
  Ewald energy   TEWEN  =    -41072.25745244
  -Hartree energ DENC   =    -17158.27976187
  -exchange      EXHF   =         0.00000000
  -V(xc)+E(xc)   XCENC  =      2707.63503023
  PAW double counting   =     46491.94102419   -48724.87108980
  entropy T*S    EENTRO =        -0.00000160
  eigenvalues    EBANDS =     10607.56023824
  atomic energy  EATOM  =     56958.97092932
  Solvation  Ediel_sol  =         0.00000000
  ---------------------------------------------------
  free energy    TOTEN  =     11894.80842197 eV

  energy without entropy =    11894.80842357  energy(sigma->0) =    11894.80842277


--------------------------------------------------------------------------------------------------------




--------------------------------------- Iteration      1(   2)  ---------------------------------------


     EDDAV:  cpu time    4.8048: real time    4.8162
    --------------------------------------------
      LOOP:  cpu time    4.8047: real time    4.8161

 eigenvalue-minimisations  :  1744
 total energy-change (2. order) :-0.9574261E+04  (-0.8843360E+04)
 number of electron     663.0000000 magnetization      67.5000000
 augmentation part      663.0000000 magnetization      67.5000000

 Free energy of the ion-electron system (eV)
  ---------------------------------------------------
  alpha Z        PSCENC =      2084.10950569
  Ewald energy   TEWEN  =    -41072.25745244
  -Hartree energ DENC   =    -17158.27976187
  -exchange      EXHF   =         0.00000000
  -V(xc)+E(xc)   XCENC  =      2707.63503023
  PAW double counting   =     46491.94102419   -48724.87108980
  entropy T*S    EENTRO =        -0.02576058
  eigenvalues    EBANDS =      1033.32478208
  atomic energy  EATOM  =     56958.97092932
  Solvation  Ediel_sol  =         0.00000000
  ---------------------------------------------------
  free energy    TOTEN  =      2320.54720683 eV

  energy without entropy =     2320.57296741  energy(sigma->0) =     2320.56008712


--------------------------------------------------------------------------------------------------------




--------------------------------------- Iteration      1(   3)  ---------------------------------------


     EDDAV:  cpu time    5.1004: real time    5.1125
    --------------------------------------------
      LOOP:  cpu time    5.1003: real time    5.1125

 eigenvalue-minimisations  :  1888
 total energy-change (2. order) :-0.2636344E+04  (-0.2241441E+04)
 number of electron     663.0000000 magnetization      67.5000000
 augmentation part      663.0000000 magnetization      67.5000000

 Free energy of the ion-electron system (eV)
  ---------------------------------------------------
  alpha Z        PSCENC =      2084.10950569
  Ewald energy   TEWEN  =    -41072.25745244
  -Hartree energ DENC   =    -17158.27976187
  -exchange      EXHF   =         0.00000000
  -V(xc)+E(xc)   XCENC  =      2707.63503023
  PAW double counting   =     46491.94102419   -48724.87108980
  entropy T*S    EENTRO =        -0.11212837
  eigenvalues    EBANDS =     -1602.93324589
  atomic energy  EATOM  =     56958.97092932
  Solvation  Ediel_sol  =         0.00000000
  ---------------------------------------------------
  free energy    TOTEN  =      -315.79718893 eV

  energy without entropy =     -315.68506056  energy(sigma->0) =     -315.74112475


--------------------------------------------------------------------------------------------------------




--------------------------------------- Iteration      1(   4)  ---------------------------------------


     EDDAV:  cpu time    5.5014: real time    5.5145
    --------------------------------------------
      LOOP:  cpu time    5.5014: real time    5.5145

 eigenvalue-minimisations  :  2080
 total energy-change (2. order) :-0.4686080E+03  (-0.4475967E+03)
 number of electron     663.0000000 magnetization      67.5000000
 augmentation part      663.0000000 magnetization      67.5000000

 Free energy of the ion-electron system (eV)
  ---------------------------------------------------
  alpha Z        PSCENC =      2084.10950569
  Ewald energy   TEWEN  =    -41072.25745244
  -Hartree energ DENC   =    -17158.27976187
  -exchange      EXHF   =         0.00000000
  -V(xc)+E(xc)   XCENC  =      2707.63503023
  PAW double counting   =     46491.94102419   -48724.87108980
  entropy T*S    EENTRO =        -0.17605814
  eigenvalues    EBANDS =     -2071.47733381
  atomic energy  EATOM  =     56958.97092932
  Solvation  Ediel_sol  =         0.00000000
  ---------------------------------------------------
  free energy    TOTEN  =      -784.40520662 eV

  energy without entropy =     -784.22914848  energy(sigma->0) =     -784.31717755


--------------------------------------------------------------------------------------------------------




--------------------------------------- Iteration      1(   5)  ---------------------------------------


     EDDAV:  cpu time    6.7460: real time    6.7621
    CHARGE:  cpu time    0.3597: real time    0.3606
    MIXING:  cpu time    0.0051: real time    0.0052
    --------------------------------------------
      LOOP:  cpu time    7.1105: real time    7.1275

 eigenvalue-minimisations  :  2688
 total energy-change (2. order) :-0.2962632E+02  (-0.2932689E+02)
 number of electron     663.0000007 magnetization      72.1518995
 augmentation part      202.4838738 magnetization      51.2595962

 Broyden mixing:
  rms(total) = 0.14369E+02    rms(broyden)= 0.14367E+02
  rms(prec ) = 0.15919E+02
  weight for this iteration     100.00

 Free energy of the ion-electron system (eV)
  ---------------------------------------------------
  alpha Z        PSCENC =      2084.10950569
  Ewald energy   TEWEN  =    -41072.25745244
  -Hartree energ DENC   =    -17158.27976187
  -exchange      EXHF   =         0.00000000
  -V(xc)+E(xc)   XCENC  =      2707.63503023
  PAW double counting   =     46491.94102419   -48724.87108980
  entropy T*S    EENTRO =        -0.17123117
  eigenvalues    EBANDS =     -2101.10848390
  atomic energy  EATOM  =     56958.97092932
  Solvation  Ediel_sol  =         0.00000000
  ---------------------------------------------------
  free energy    TOTEN  =      -814.03152975 eV

  energy without entropy =     -813.86029857  energy(sigma->0) =     -813.94591416


--------------------------------------------------------------------------------------------------------




--------------------------------------- Iteration      1(   6)  ---------------------------------------


    POTLOK:  cpu time    0.2252: real time    0.2257
    SETDIJ:  cpu time    0.0313: real time    0.0314
     EDDAV:  cpu time    6.7299: real time    6.7459
    CHARGE:  cpu time    0.3529: real time    0.3538
    MIXING:  cpu time    0.0053: real time    0.0053
    --------------------------------------------
      LOOP:  cpu time    7.3446: real time    7.3620

 eigenvalue-minimisations  :  2688
 total energy-change (2. order) :-0.1186998E+01  (-0.1541403E+03)
 number of electron     663.0000016 magnetization      67.2966155
 augmentation part      245.4767456 magnetization      68.2988574

 Broyden mixing:
  rms(total) = 0.25541E+02    rms(broyden)= 0.25540E+02
  rms(prec ) = 0.26830E+02
  weight for this iteration     100.00

 eigenvalues of (default mixing * dielectric matrix)
  average eigenvalue GAMMA=   0.2565
  0.2565

 Free energy of the ion-electron system (eV)
  ---------------------------------------------------
  alpha Z        PSCENC =      2084.10950569
  Ewald energy   TEWEN  =    -41072.25745244
  -Hartree energ DENC   =    -16403.87482712
  -exchange      EXHF   =         0.00000000
  -V(xc)+E(xc)   XCENC  =      2744.34735937
  PAW double counting   =     50850.68007124   -52813.82250096
  entropy T*S    EENTRO =        -0.08496280
  eigenvalues    EBANDS =     -3163.28665053
  atomic energy  EATOM  =     56958.97092932
  Solvation  Ediel_sol  =         0.00000000
  ---------------------------------------------------
  free energy    TOTEN  =      -815.21852823 eV

  energy without entropy =     -815.13356543  energy(sigma->0) =     -815.17604683


--------------------------------------------------------------------------------------------------------




--------------------------------------- Iteration      1(   7)  ---------------------------------------


    POTLOK:  cpu time    0.2252: real time    0.2257
    SETDIJ:  cpu time    0.0313: real time    0.0314
     EDDAV:  cpu time    6.1351: real time    6.1498
    CHARGE:  cpu time    0.3571: real time    0.3580
    MIXING:  cpu time    0.0053: real time    0.0053
    --------------------------------------------
      LOOP:  cpu time    6.7540: real time    6.7702

 eigenvalue-minimisations  :  2400
 total energy-change (2. order) : 0.1484399E+03  (-0.4875031E+02)
 number of electron     663.0000014 magnetization      60.9836089
 augmentation part      234.1373407 magnetization      57.7007857

 Broyden mixing:
  rms(total) = 0.11430E+02    rms(broyden)= 0.11429E+02
  rms(prec ) = 0.12542E+02
  weight for this iteration     100.00

 eigenvalues of (default mixing * dielectric matrix)
  average eigenvalue GAMMA=   0.4591
  0.4591  0.4591

 Free energy of the ion-electron system (eV)
  ---------------------------------------------------
  alpha Z        PSCENC =      2084.10950569
  Ewald energy   TEWEN  =    -41072.25745244
  -Hartree energ DENC   =    -16624.03992805
  -exchange      EXHF   =         0.00000000
  -V(xc)+E(xc)   XCENC  =      2716.04552405
  PAW double counting   =     52590.25296810   -54708.89316850
  entropy T*S    EENTRO =        -0.06410266
  eigenvalues    EBANDS =     -2610.90291365
  atomic energy  EATOM  =     56958.97092932
  Solvation  Ediel_sol  =         0.00000000
  ---------------------------------------------------
  free energy    TOTEN  =      -666.77863814 eV

  energy without entropy =     -666.71453548  energy(sigma->0) =     -666.74658681


--------------------------------------------------------------------------------------------------------




--------------------------------------- Iteration      1(   8)  ---------------------------------------


    POTLOK:  cpu time    0.2249: real time    0.2254
    SETDIJ:  cpu time    0.0314: real time    0.0314
     EDDAV:  cpu time    6.2653: real time    6.2802
    CHARGE:  cpu time    0.3504: real time    0.3513
    MIXING:  cpu time    0.0056: real time    0.0056
    --------------------------------------------
      LOOP:  cpu time    6.8777: real time    6.8940

 eigenvalue-minimisations  :  2464
 total energy-change (2. order) :-0.1385404E+03  (-0.3165525E+02)
 number of electron     663.0000012 magnetization      57.6838678
 augmentation part      213.6311584 magnetization      56.4796983

 Broyden mixing:
  rms(total) = 0.20455E+02    rms(broyden)= 0.20454E+02
  rms(prec ) = 0.29473E+02
  weight for this iteration     100.00

 eigenvalues of (default mixing * dielectric matrix)
  average eigenvalue GAMMA=   0.3805
  0.5112  0.5112  0.1189

 Free energy of the ion-electron system (eV)
  ---------------------------------------------------
  alpha Z        PSCENC =      2084.10950569
  Ewald energy   TEWEN  =    -41072.25745244
  -Hartree energ DENC   =    -16747.61099866
  -exchange      EXHF   =         0.00000000
  -V(xc)+E(xc)   XCENC  =      2701.37281333
  PAW double counting   =     54251.96200840   -56487.31106512
  entropy T*S    EENTRO =        -0.03297119
  eigenvalues    EBANDS =     -2494.52178934
  atomic energy  EATOM  =     56958.97092932
  Solvation  Ediel_sol  =         0.00000000
  ---------------------------------------------------
  free energy    TOTEN  =      -805.31902000 eV

  energy without entropy =     -805.28604881  energy(sigma->0) =     -805.30253441


--------------------------------------------------------------------------------------------------------




--------------------------------------- Iteration      1(   9)  ---------------------------------------


    POTLOK:  cpu time    0.2248: real time    0.2253
    SETDIJ:  cpu time    0.0314: real time    0.0315
     EDDAV:  cpu time    6.0352: real time    6.0496
    CHARGE:  cpu time    0.3528: real time    0.3536
    MIXING:  cpu time    0.0056: real time    0.0056
    --------------------------------------------
      LOOP:  cpu time    6.6499: real time    6.6656

 eigenvalue-minimisations  :  2352
 total energy-change (2. order) : 0.1488641E+03  (-0.3864633E+02)
 number of electron     663.0000016 magnetization      50.0132497
 augmentation part      220.5921860 magnetization      44.1032848

 Broyden mixing:
  rms(total) = 0.77471E+01    rms(broyden)= 0.77451E+01
  rms(prec ) = 0.87165E+01
  weight for this iteration     100.00

 eigenvalues of (default mixing * dielectric matrix)
  average eigenvalue GAMMA=   0.4410
  0.6671  0.6671  0.3259  0.1038

 Free energy of the ion-electron system (eV)
  ---------------------------------------------------
  alpha Z        PSCENC =      2084.10950569
  Ewald energy   TEWEN  =    -41072.25745244
  -Hartree energ DENC   =    -16699.47381116
  -exchange      EXHF   =         0.00000000
  -V(xc)+E(xc)   XCENC  =      2696.96090888
  PAW double counting   =     54891.97212533   -57136.67019708
  entropy T*S    EENTRO =        -0.06250998
  eigenvalues    EBANDS =     -2380.00438792
  atomic energy  EATOM  =     56958.97092932
  Solvation  Ediel_sol  =         0.00000000
  ---------------------------------------------------
  free energy    TOTEN  =      -656.45488936 eV

  energy without entropy =     -656.39237938  energy(sigma->0) =     -656.42363437


--------------------------------------------------------------------------------------------------------




--------------------------------------- Iteration      1(  10)  ---------------------------------------


    POTLOK:  cpu time    0.2247: real time    0.2252
    SETDIJ:  cpu time    0.0316: real time    0.0316
     EDDAV:  cpu time    6.2377: real time    6.2525
    CHARGE:  cpu time    0.3569: real time    0.3577
    MIXING:  cpu time    0.0058: real time    0.0059
    --------------------------------------------
      LOOP:  cpu time    6.8567: real time    6.8730

 eigenvalue-minimisations  :  2448
 total energy-change (2. order) : 0.9054110E+01  (-0.1053820E+02)
 number of electron     663.0000011 magnetization      46.6379383
 augmentation part      220.3436582 magnetization      38.6914929

 Broyden mixing:
  rms(total) = 0.10847E+02    rms(broyden)= 0.10846E+02
  rms(prec ) = 0.13032E+02
  weight for this iteration     100.00

 eigenvalues of (default mixing * dielectric matrix)
  average eigenvalue GAMMA=   0.4194
  0.7332  0.7332  0.3071  0.2204  0.1034

 Free energy of the ion-electron system (eV)
  ---------------------------------------------------
  alpha Z        PSCENC =      2084.10950569
  Ewald energy   TEWEN  =    -41072.25745244
  -Hartree energ DENC   =    -16634.70168200
  -exchange      EXHF   =         0.00000000
  -V(xc)+E(xc)   XCENC  =      2692.16171722
  PAW double counting   =     56503.45508748   -58774.55534786
  entropy T*S    EENTRO =        -0.13573669
  eigenvalues    EBANDS =     -2404.44779970
  atomic energy  EATOM  =     56958.97092932
  Solvation  Ediel_sol  =         0.00000000
  ---------------------------------------------------
  free energy    TOTEN  =      -647.40077899 eV

  energy without entropy =     -647.26504230  energy(sigma->0) =     -647.33291064


--------------------------------------------------------------------------------------------------------




--------------------------------------- Iteration      1(  11)  ---------------------------------------


    POTLOK:  cpu time    0.2260: real time    0.2265
    SETDIJ:  cpu time    0.0315: real time    0.0316
     EDDAV:  cpu time    6.2485: real time    6.2634
    CHARGE:  cpu time    0.3505: real time    0.3513
    MIXING:  cpu time    0.0064: real time    0.0065
    --------------------------------------------
      LOOP:  cpu time    6.8629: real time    6.8792

 eigenvalue-minimisations  :  2448
 total energy-change (2. order) : 0.1050661E+02  (-0.1591445E+02)
 number of electron     663.0000015 magnetization      40.7411939
 augmentation part      221.9745243 magnetization      36.4743905

 Broyden mixing:
  rms(total) = 0.69253E+01    rms(broyden)= 0.69242E+01
  rms(prec ) = 0.77859E+01
  weight for this iteration     100.00

 eigenvalues of (default mixing * dielectric matrix)
  average eigenvalue GAMMA=   0.4567
  0.8691  0.8691  0.3973  0.3973  0.1037  0.1037

 Free energy of the ion-electron system (eV)
  ---------------------------------------------------
  alpha Z        PSCENC =      2084.10950569
  Ewald energy   TEWEN  =    -41072.25745244
  -Hartree energ DENC   =    -16617.72138193
  -exchange      EXHF   =         0.00000000
  -V(xc)+E(xc)   XCENC  =      2691.80917845
  PAW double counting   =     57253.73666853   -59534.85358119
  entropy T*S    EENTRO =        -0.02888871
  eigenvalues    EBANDS =     -2400.65914790
  atomic energy  EATOM  =     56958.97092932
  Solvation  Ediel_sol  =         0.00000000
  ---------------------------------------------------
  free energy    TOTEN  =      -636.89417019 eV

  energy without entropy =     -636.86528148  energy(sigma->0) =     -636.87972583


--------------------------------------------------------------------------------------------------------




--------------------------------------- Iteration      1(  12)  ---------------------------------------


    POTLOK:  cpu time    0.2249: real time    0.2255
    SETDIJ:  cpu time    0.0314: real time    0.0315
     EDDAV:  cpu time    6.0462: real time    6.0606
    CHARGE:  cpu time    0.3530: real time    0.3538
    MIXING:  cpu time    0.0064: real time    0.0064
    --------------------------------------------
      LOOP:  cpu time    6.6619: real time    6.6777

 eigenvalue-minimisations  :  2352
 total energy-change (2. order) : 0.7583545E+01  (-0.3172885E+01)
 number of electron     663.0000016 magnetization      35.4719952
 augmentation part      221.1545089 magnetization      29.7649570

 Broyden mixing:
  rms(total) = 0.61320E+01    rms(broyden)= 0.61310E+01
  rms(prec ) = 0.69873E+01
  weight for this iteration     100.00

 eigenvalues of (default mixing * dielectric matrix)
  average eigenvalue GAMMA=   0.4763
  1.2570  0.6725  0.4749  0.4749  0.2361  0.1095  0.1095

 Free energy of the ion-electron system (eV)
  ---------------------------------------------------
  alpha Z        PSCENC =      2084.10950569
  Ewald energy   TEWEN  =    -41072.25745244
  -Hartree energ DENC   =    -16638.22420588
  -exchange      EXHF   =         0.00000000
  -V(xc)+E(xc)   XCENC  =      2691.71446633
  PAW double counting   =     58247.79714805   -60559.04432632
  entropy T*S    EENTRO =        -0.09778247
  eigenvalues    EBANDS =     -2342.27890715
  atomic energy  EATOM  =     56958.97092932
  Solvation  Ediel_sol  =         0.00000000
  ---------------------------------------------------
  free energy    TOTEN  =      -629.31062486 eV

  energy without entropy =     -629.21284239  energy(sigma->0) =     -629.26173362


--------------------------------------------------------------------------------------------------------




--------------------------------------- Iteration      1(  13)  ---------------------------------------


    POTLOK:  cpu time    0.2248: real time    0.2254
    SETDIJ:  cpu time    0.0316: real time    0.0317
     EDDAV:  cpu time    5.6221: real time    5.6355
    CHARGE:  cpu time    0.3535: real time    0.3544
    MIXING:  cpu time    0.0067: real time    0.0067
    --------------------------------------------
      LOOP:  cpu time    6.2387: real time    6.2536

 eigenvalue-minimisations  :  2144
 total energy-change (2. order) :-0.1093574E+02  (-0.5860513E+01)
 number of electron     663.0000013 magnetization      31.8645223
 augmentation part      219.3891157 magnetization      27.0573859

 Broyden mixing:
  rms(total) = 0.74622E+01    rms(broyden)= 0.74614E+01
  rms(prec ) = 0.88646E+01
  weight for this iteration     100.00

 eigenvalues of (default mixing * dielectric matrix)
  average eigenvalue GAMMA=   0.4847
  1.5102  0.5993  0.5993  0.4079  0.4079  0.1431  0.1049  0.1049

 Free energy of the ion-electron system (eV)
  ---------------------------------------------------
  alpha Z        PSCENC =      2084.10950569
  Ewald energy   TEWEN  =    -41072.25745244
  -Hartree energ DENC   =    -16645.38594579
  -exchange      EXHF   =         0.00000000
  -V(xc)+E(xc)   XCENC  =      2691.03595196
  PAW double counting   =     59087.84470610   -61415.53107168
  entropy T*S    EENTRO =        -0.06322932
  eigenvalues    EBANDS =     -2328.96975758
  atomic energy  EATOM  =     56958.97092932
  Solvation  Ediel_sol  =         0.00000000
  ---------------------------------------------------
  free energy    TOTEN  =      -640.24636373 eV

  energy without entropy =     -640.18313441  energy(sigma->0) =     -640.21474907


--------------------------------------------------------------------------------------------------------




--------------------------------------- Iteration      1(  14)  ---------------------------------------


    POTLOK:  cpu time    0.2248: real time    0.2254
    SETDIJ:  cpu time    0.0315: real time    0.0316
     EDDAV:  cpu time    5.6533: real time    5.6667
    CHARGE:  cpu time    0.3569: real time    0.3578
    MIXING:  cpu time    0.0069: real time    0.0069
    --------------------------------------------
      LOOP:  cpu time    6.2734: real time    6.2883

 eigenvalue-minimisations  :  2160
 total energy-change (2. order) : 0.1211131E+02  (-0.5819938E+01)
 number of electron     663.0000015 magnetization      29.7390092
 augmentation part      220.7129854 magnetization      25.6467740

 Broyden mixing:
  rms(total) = 0.48363E+01    rms(broyden)= 0.48357E+01
  rms(prec ) = 0.57638E+01
  weight for this iteration     100.00

 eigenvalues of (default mixing * dielectric matrix)
  average eigenvalue GAMMA=   0.4671
  1.5057  0.6698  0.6698  0.3793  0.3793  0.2695  0.1066  0.1121  0.1121

 Free energy of the ion-electron system (eV)
  ---------------------------------------------------
  alpha Z        PSCENC =      2084.10950569
  Ewald energy   TEWEN  =    -41072.25745244
  -Hartree energ DENC   =    -16643.45957403
  -exchange      EXHF   =         0.00000000
  -V(xc)+E(xc)   XCENC  =      2690.35754128
  PAW double counting   =     59644.90569137   -61981.33800429
  entropy T*S    EENTRO =        -0.06661628
  eigenvalues    EBANDS =     -2309.35707477
  atomic energy  EATOM  =     56958.97092932
  Solvation  Ediel_sol  =         0.00000000
  ---------------------------------------------------
  free energy    TOTEN  =      -628.13505414 eV

  energy without entropy =     -628.06843787  energy(sigma->0) =     -628.10174601


--------------------------------------------------------------------------------------------------------




--------------------------------------- Iteration      1(  15)  ---------------------------------------


    POTLOK:  cpu time    0.2246: real time    0.2251
    SETDIJ:  cpu time    0.0315: real time    0.0316
     EDDAV:  cpu time    5.7884: real time    5.8022
    CHARGE:  cpu time    0.3581: real time    0.3589
    MIXING:  cpu time    0.0072: real time    0.0072
    --------------------------------------------
      LOOP:  cpu time    6.4097: real time    6.4249

 eigenvalue-minimisations  :  2224
 total energy-change (2. order) : 0.4452806E+01  (-0.9131101E+00)
 number of electron     663.0000016 magnetization      28.1829276
 augmentation part      220.7612921 magnetization      22.1168785

 Broyden mixing:
  rms(total) = 0.36024E+01    rms(broyden)= 0.36015E+01
  rms(prec ) = 0.41606E+01
  weight for this iteration     100.00

 eigenvalues of (default mixing * dielectric matrix)
  average eigenvalue GAMMA=   0.4744
  1.4732  0.7724  0.7724  0.4583  0.3982  0.3982  0.1075  0.1075  0.1282  0.1282

 Free energy of the ion-electron system (eV)
  ---------------------------------------------------
  alpha Z        PSCENC =      2084.10950569
  Ewald energy   TEWEN  =    -41072.25745244
  -Hartree energ DENC   =    -16650.02182979
  -exchange      EXHF   =         0.00000000
  -V(xc)+E(xc)   XCENC  =      2689.92698817
  PAW double counting   =     59854.75492858   -62195.30525164
  entropy T*S    EENTRO =        -0.08516407
  eigenvalues    EBANDS =     -2293.77490150
  atomic energy  EATOM  =     56958.97092932
  Solvation  Ediel_sol  =         0.00000000
  ---------------------------------------------------
  free energy    TOTEN  =      -623.68224768 eV

  energy without entropy =     -623.59708361  energy(sigma->0) =     -623.63966565


--------------------------------------------------------------------------------------------------------




--------------------------------------- Iteration      1(  16)  ---------------------------------------


    POTLOK:  cpu time    0.2256: real time    0.2261
    SETDIJ:  cpu time    0.0314: real time    0.0315
     EDDAV:  cpu time    6.2089: real time    6.2237
    CHARGE:  cpu time    0.3520: real time    0.3528
    MIXING:  cpu time    0.0074: real time    0.0074
    --------------------------------------------
      LOOP:  cpu time    6.8251: real time    6.8414

 eigenvalue-minimisations  :  2400
 total energy-change (2. order) :-0.3825813E+00  (-0.1977731E+01)
 number of electron     663.0000014 magnetization      28.1643774
 augmentation part      220.2065276 magnetization      22.3689987

 Broyden mixing:
  rms(total) = 0.31357E+01    rms(broyden)= 0.31346E+01
  rms(prec ) = 0.36661E+01
  weight for this iteration     100.00

 eigenvalues of (default mixing * dielectric matrix)
  average eigenvalue GAMMA=   0.4513
  1.3896  0.8100  0.8100  0.4890  0.4122  0.4122  0.1572  0.1572  0.1098  0.1098
  0.1073

 Free energy of the ion-electron system (eV)
  ---------------------------------------------------
  alpha Z        PSCENC =      2084.10950569
  Ewald energy   TEWEN  =    -41072.25745244
  -Hartree energ DENC   =    -16666.42689555
  -exchange      EXHF   =         0.00000000
  -V(xc)+E(xc)   XCENC  =      2689.66447589
  PAW double counting   =     59903.54708737   -62245.15447618
  entropy T*S    EENTRO =        -0.08114834
  eigenvalues    EBANDS =     -2276.43685479
  atomic energy  EATOM  =     56958.97092932
  Solvation  Ediel_sol  =         0.00000000
  ---------------------------------------------------
  free energy    TOTEN  =      -624.06482903 eV

  energy without entropy =     -623.98368069  energy(sigma->0) =     -624.02425486


--------------------------------------------------------------------------------------------------------




--------------------------------------- Iteration      1(  17)  ---------------------------------------


    POTLOK:  cpu time    0.2253: real time    0.2258
    SETDIJ:  cpu time    0.0316: real time    0.0317
     EDDAV:  cpu time    6.0398: real time    6.0542
    CHARGE:  cpu time    0.3520: real time    0.3528
    MIXING:  cpu time    0.0076: real time    0.0076
    --------------------------------------------
      LOOP:  cpu time    6.6564: real time    6.6722

 eigenvalue-minimisations  :  2320
 total energy-change (2. order) : 0.7324537E+00  (-0.1429229E+01)
 number of electron     663.0000015 magnetization      27.8908798
 augmentation part      220.2351720 magnetization      20.5077906

 Broyden mixing:
  rms(total) = 0.21983E+01    rms(broyden)= 0.21972E+01
  rms(prec ) = 0.24552E+01
  weight for this iteration     100.00

 eigenvalues of (default mixing * dielectric matrix)
  average eigenvalue GAMMA=   0.4477
  1.4350  0.8781  0.8781  0.4382  0.4382  0.3633  0.3633  0.1596  0.1096  0.1096
  0.1083  0.0907

 Free energy of the ion-electron system (eV)
  ---------------------------------------------------
  alpha Z        PSCENC =      2084.10950569
  Ewald energy   TEWEN  =    -41072.25745244
  -Hartree energ DENC   =    -16666.47728614
  -exchange      EXHF   =         0.00000000
  -V(xc)+E(xc)   XCENC  =      2689.60966084
  PAW double counting   =     59825.07364730   -62163.00388339
  entropy T*S    EENTRO =        -0.11283851
  eigenvalues    EBANDS =     -2279.24465799
  atomic energy  EATOM  =     56958.97092932
  Solvation  Ediel_sol  =         0.00000000
  ---------------------------------------------------
  free energy    TOTEN  =      -623.33237533 eV

  energy without entropy =     -623.21953682  energy(sigma->0) =     -623.27595608


--------------------------------------------------------------------------------------------------------




--------------------------------------- Iteration      1(  18)  ---------------------------------------


    POTLOK:  cpu time    0.2254: real time    0.2260
    SETDIJ:  cpu time    0.0314: real time    0.0315
     EDDAV:  cpu time    6.1077: real time    6.1222
    CHARGE:  cpu time    0.3555: real time    0.3563
    MIXING:  cpu time    0.0078: real time    0.0078
    --------------------------------------------
      LOOP:  cpu time    6.7278: real time    6.7438

 eigenvalue-minimisations  :  2352
 total energy-change (2. order) :-0.1385266E+00  (-0.2375600E+00)
 number of electron     663.0000015 magnetization      27.7993989
 augmentation part      220.1314602 magnetization      19.6478466

 Broyden mixing:
  rms(total) = 0.18374E+01    rms(broyden)= 0.18372E+01
  rms(prec ) = 0.19469E+01
  weight for this iteration     100.00

 eigenvalues of (default mixing * dielectric matrix)
  average eigenvalue GAMMA=   0.4347
  1.4645  0.9194  0.9194  0.4080  0.4080  0.3536  0.2993  0.2993  0.1447  0.1154
  0.1102  0.1102  0.0995

 Free energy of the ion-electron system (eV)
  ---------------------------------------------------
  alpha Z        PSCENC =      2084.10950569
  Ewald energy   TEWEN  =    -41072.25745244
  -Hartree energ DENC   =    -16668.34720530
  -exchange      EXHF   =         0.00000000
  -V(xc)+E(xc)   XCENC  =      2689.56804587
  PAW double counting   =     59872.99268253   -62209.51405609
  entropy T*S    EENTRO =        -0.07610012
  eigenvalues    EBANDS =     -2278.91725138
  atomic energy  EATOM  =     56958.97092932
  Solvation  Ediel_sol  =         0.00000000
  ---------------------------------------------------
  free energy    TOTEN  =      -623.47090192 eV

  energy without entropy =     -623.39480180  energy(sigma->0) =     -623.43285186


--------------------------------------------------------------------------------------------------------




--------------------------------------- Iteration      1(  19)  ---------------------------------------


    POTLOK:  cpu time    0.2251: real time    0.2257
    SETDIJ:  cpu time    0.0313: real time    0.0314
     EDDAV:  cpu time    6.1058: real time    6.1203
    CHARGE:  cpu time    0.3551: real time    0.3559
    MIXING:  cpu time    0.0083: real time    0.0083
    --------------------------------------------
      LOOP:  cpu time    6.7257: real time    6.7416

 eigenvalue-minimisations  :  2352
 total energy-change (2. order) :-0.4466627E+00  (-0.1857377E+00)
 number of electron     663.0000015 magnetization      27.9398743
 augmentation part      220.0357624 magnetization      19.7101501

 Broyden mixing:
  rms(total) = 0.18080E+01    rms(broyden)= 0.18078E+01
  rms(prec ) = 0.19057E+01
  weight for this iteration     100.00

 eigenvalues of (default mixing * dielectric matrix)
  average eigenvalue GAMMA=   0.4289
  1.5202  0.9202  0.9202  0.4038  0.4038  0.3923  0.3923  0.3689  0.1484  0.1233
  0.1094  0.1094  0.1085  0.0842

 Free energy of the ion-electron system (eV)
  ---------------------------------------------------
  alpha Z        PSCENC =      2084.10950569
  Ewald energy   TEWEN  =    -41072.25745244
  -Hartree energ DENC   =    -16669.67583084
  -exchange      EXHF   =         0.00000000
  -V(xc)+E(xc)   XCENC  =      2689.56872517
  PAW double counting   =     59913.77445989   -62250.28792625
  entropy T*S    EENTRO =        -0.05735755
  eigenvalues    EBANDS =     -2278.06261762
  atomic energy  EATOM  =     56958.97092932
  Solvation  Ediel_sol  =         0.00000000
  ---------------------------------------------------
  free energy    TOTEN  =      -623.91756461 eV

  energy without entropy =     -623.86020706  energy(sigma->0) =     -623.88888584


--------------------------------------------------------------------------------------------------------




--------------------------------------- Iteration      1(  20)  ---------------------------------------


    POTLOK:  cpu time    0.2251: real time    0.2257
    SETDIJ:  cpu time    0.0314: real time    0.0315
     EDDAV:  cpu time    5.9731: real time    5.9873
    CHARGE:  cpu time    0.3519: real time    0.3528
    MIXING:  cpu time    0.0084: real time    0.0084
    --------------------------------------------
      LOOP:  cpu time    6.5900: real time    6.6056

 eigenvalue-minimisations  :  2288
 total energy-change (2. order) :-0.4494031E+00  (-0.7645099E-01)
 number of electron     663.0000015 magnetization      27.9264619
 augmentation part      220.1127589 magnetization      19.8095121

 Broyden mixing:
  rms(total) = 0.16721E+01    rms(broyden)= 0.16721E+01
  rms(prec ) = 0.17780E+01
  weight for this iteration     100.00

 eigenvalues of (default mixing * dielectric matrix)
  average eigenvalue GAMMA=   0.4432
  1.5262  0.8881  0.8881  0.5597  0.5597  0.4174  0.4174  0.3495  0.3495  0.1535
  0.1116  0.1116  0.1100  0.1100  0.0958

 Free energy of the ion-electron system (eV)
  ---------------------------------------------------
  alpha Z        PSCENC =      2084.10950569
  Ewald energy   TEWEN  =    -41072.25745244
  -Hartree energ DENC   =    -16667.42030691
  -exchange      EXHF   =         0.00000000
  -V(xc)+E(xc)   XCENC  =      2689.53369003
  PAW double counting   =     59958.48571631   -62294.42437749
  entropy T*S    EENTRO =        -0.04536934
  eigenvalues    EBANDS =     -2281.31930287
  atomic energy  EATOM  =     56958.97092932
  Solvation  Ediel_sol  =         0.00000000
  ---------------------------------------------------
  free energy    TOTEN  =      -624.36696771 eV

  energy without entropy =     -624.32159837  energy(sigma->0) =     -624.34428304


--------------------------------------------------------------------------------------------------------




--------------------------------------- Iteration      1(  21)  ---------------------------------------


    POTLOK:  cpu time    0.2255: real time    0.2261
    SETDIJ:  cpu time    0.0315: real time    0.0316
     EDDAV:  cpu time    5.8829: real time    5.8969
    CHARGE:  cpu time    0.3569: real time    0.3578
    MIXING:  cpu time    0.0091: real time    0.0091
    --------------------------------------------
      LOOP:  cpu time    6.5059: real time    6.5214

 eigenvalue-minimisations  :  2256
 total energy-change (2. order) :-0.5359465E+00  (-0.1303617E+00)
 number of electron     663.0000015 magnetization      27.8154786
 augmentation part      220.1524738 magnetization      19.8318978

 Broyden mixing:
  rms(total) = 0.17704E+01    rms(broyden)= 0.17702E+01
  rms(prec ) = 0.19204E+01
  weight for this iteration     100.00

 eigenvalues of (default mixing * dielectric matrix)
  average eigenvalue GAMMA=   0.4894
  1.5912  1.1155  1.1155  0.7212  0.7212  0.4377  0.4377  0.4343  0.4343  0.1544
  0.1358  0.1108  0.1108  0.1086  0.1086  0.0934

 Free energy of the ion-electron system (eV)
  ---------------------------------------------------
  alpha Z        PSCENC =      2084.10950569
  Ewald energy   TEWEN  =    -41072.25745244
  -Hartree energ DENC   =    -16667.34578277
  -exchange      EXHF   =         0.00000000
  -V(xc)+E(xc)   XCENC  =      2689.60332230
  PAW double counting   =     60019.21061162   -62355.01168197
  entropy T*S    EENTRO =        -0.05679219
  eigenvalues    EBANDS =     -2282.12557379
  atomic energy  EATOM  =     56958.97092932
  Solvation  Ediel_sol  =         0.00000000
  ---------------------------------------------------
  free energy    TOTEN  =      -624.90291423 eV

  energy without entropy =     -624.84612204  energy(sigma->0) =     -624.87451813


--------------------------------------------------------------------------------------------------------




--------------------------------------- Iteration      1(  22)  ---------------------------------------


    POTLOK:  cpu time    0.2250: real time    0.2256
    SETDIJ:  cpu time    0.0312: real time    0.0313
     EDDAV:  cpu time    5.9127: real time    5.9267
    CHARGE:  cpu time    0.3536: real time    0.3544
    MIXING:  cpu time    0.0093: real time    0.0093
    --------------------------------------------
      LOOP:  cpu time    6.5317: real time    6.5472

 eigenvalue-minimisations  :  2272
 total energy-change (2. order) :-0.3569601E+00  (-0.1392230E+00)
 number of electron     663.0000015 magnetization      27.8696702
 augmentation part      220.6406144 magnetization      20.1866815

 Broyden mixing:
  rms(total) = 0.12634E+01    rms(broyden)= 0.12632E+01
  rms(prec ) = 0.13662E+01
  weight for this iteration     100.00

 eigenvalues of (default mixing * dielectric matrix)
  average eigenvalue GAMMA=   0.5081
  1.5075  1.3675  1.3675  0.6818  0.6818  0.4617  0.4617  0.4332  0.4285  0.4285
  0.1517  0.1353  0.1110  0.1110  0.1077  0.1077  0.0939

 Free energy of the ion-electron system (eV)
  ---------------------------------------------------
  alpha Z        PSCENC =      2084.10950569
  Ewald energy   TEWEN  =    -41072.25745244
  -Hartree energ DENC   =    -16660.72835704
  -exchange      EXHF   =         0.00000000
  -V(xc)+E(xc)   XCENC  =      2689.97500293
  PAW double counting   =     60225.32315561   -62558.41324793
  entropy T*S    EENTRO =        -0.04693733
  eigenvalues    EBANDS =     -2292.19247312
  atomic energy  EATOM  =     56958.97092932
[...]
      4.36217      0.83190     11.75016        -0.000182      0.002859     -0.001170
      2.91206      1.73343      2.36172         0.000511      0.001576     -0.001648
      1.47127      2.56527      7.02330         0.001110      0.001231      0.001648
      2.88865      3.35477     11.73113        -0.000087     -0.000151      0.000000
      1.50899      4.10237      2.36157        -0.008119      0.002965     -0.002923
      0.08355      4.92133      7.06176        -0.005781      0.003177     -0.000020
     -0.01642      6.59883      2.34745        -0.004467      0.002579     -0.001282
      1.48633      7.35101      7.06176        -0.005642      0.003417     -0.000020
      7.04496      0.81888     11.71302         0.000182     -0.002859      0.001170
      5.64633      1.70965      2.32327         0.005642     -0.003417      0.000020
      4.22437      2.53464      7.02346         0.006627     -0.005549      0.002923
      4.24555      5.70500     11.73113         0.000087      0.000151     -0.000000
      2.90829      6.52602      2.36157        -0.006627      0.005549     -0.002923
      0.00872      0.02069      0.00191         0.002489      0.001635     -0.004049
      1.42638      0.82382      4.69251        -0.000000     -0.000000     -0.000000
      0.02153      1.63491      9.36164         0.000624     -0.000360      0.003330
     -1.40616      2.45919     14.03979        -0.000711      0.000411     -0.000494
     -0.01233      3.29033      4.67646         0.001253     -0.000400      0.000816
     -1.44381      4.10703      9.38690         0.007532      0.010099      0.005791
      5.70011      4.93562     14.07641        -0.005651     -0.006159     -0.002520
     -1.40785      5.76630      4.70765        -0.001253      0.000400     -0.000816
     -2.83325      6.60352      9.38220         0.000171      0.002973      0.004049
      2.83122      0.01273      0.02339        -0.000624      0.000360     -0.003330
      4.28179      0.81112      4.70857        -0.000973      0.000885     -0.000816
      2.84403      1.62695      9.38312        -0.002489     -0.001635      0.004049
      1.41308      2.45311      0.00191        -0.000171     -0.002973     -0.004049
      2.85949      3.30606      4.69251         0.002283      0.003955     -0.000000
      1.43410      4.12415      9.38585         0.005651      0.006159      0.002520
      0.02518      4.94871     14.07444        -0.007532     -0.010099     -0.005791
      1.41483      5.77250      4.72502        -0.007962      0.004597      0.005096
     -0.01246      6.59655      9.42156         0.000711     -0.000411      0.000494
      1.43343      7.38786     14.07444         0.004980      0.011572     -0.005791
      7.12380      0.84055      4.67738         0.000973     -0.000885      0.000816
      5.70077      1.67191      9.38782        -0.004980     -0.011572      0.005791
      4.28223      2.47978     14.07641         0.002509      0.007974     -0.002520
      5.71783      3.28816      4.66001         0.007962     -0.004597     -0.005096
      4.29357      4.11046      9.37027        -0.007103      0.004101      0.002079
      2.83909      4.95020      0.01476         0.007103     -0.004101     -0.002079
      4.27317      5.75460      4.69251        -0.002283     -0.003955      0.000000
      2.85197      6.57999      9.38585        -0.002509     -0.007974      0.002520
     -4.25720      7.39578     10.39591         0.003675      0.000937     -0.002633
      4.26794      7.40205      3.66571        -0.000292      0.001422      0.003894
      1.42139      0.82670      1.02238         0.003037     -0.001753      0.005319
      1.43136      0.82094      8.36265        -0.003037      0.001753     -0.005319
      0.00866      1.64234      5.70145         0.014243     -0.008223     -0.001295
      0.00679      1.64342     13.05000         0.000176     -0.000102      0.002787
     -1.33902      2.42042     10.35137         0.003077     -0.001776     -0.001179
     -1.41892      2.46655      3.65945         0.004808     -0.002776      0.003134
      0.02128      3.27255      1.02996         0.004144     -0.000946     -0.001154
      0.01795      3.29583      8.34561        -0.001642      0.002359      0.004674
     -1.40905      4.10799      5.71948         0.001446     -0.005256     -0.001827
     -1.33471      4.15023     13.09462         0.009997      0.001036      0.003827
     -2.84263      5.02169     10.37008         0.008120      0.002365     -0.005628
     -2.75741      4.96872      3.70346         0.010104     -0.008392      0.000690
     -1.43812      5.76080      1.03850         0.001642     -0.002359     -0.004674
     -1.44145      5.78407      8.35415        -0.004144      0.000946      0.001154
     -2.85033      6.56977      5.71840         0.001377      0.000458     -0.003894
     -2.86457      6.59174     13.06451        -0.001026      0.003651      0.002633
      2.84750      0.00333     10.41226        -0.000176      0.000102     -0.002787
      2.84409      0.00530      3.68358        -0.014243      0.008223      0.001295
      4.27141      0.84009      1.03942         0.002864     -0.000242     -0.004674
      4.24959      0.83134      8.35507        -0.002891      0.003116      0.001154
      2.86472      1.65861      5.71932         0.000292     -0.001422     -0.003894
      2.83857      1.65996     13.06543        -0.003675     -0.000937      0.002633
      1.44594      2.46399     10.39683         0.001026     -0.003651     -0.002633
      1.43016      2.48686      3.66571        -0.001377     -0.000458      0.003894
      2.77080      3.25533      0.99935        -0.005541      0.001502      0.005143
      2.85992      3.20388      8.38567         0.004071     -0.004048     -0.005143
      1.33724      4.08791      5.68065        -0.010104      0.008392     -0.000690
      1.42400      4.03404     13.09127        -0.008120     -0.002365      0.005628
     -0.08391      4.90551     10.36672        -0.009997     -0.001036     -0.003827
     -0.01113      4.94863      3.66463        -0.001446      0.005256      0.001827
      1.42861      5.76455      1.00575         0.004580     -0.002644      0.005956
      1.35589      5.80653      8.43718         0.000583     -0.000336      0.003678
     -0.00125      6.59007      5.72466        -0.004808      0.002776     -0.003134
     -0.07961      6.63531     13.10998        -0.003077      0.001776      0.001179
      5.68922      0.09496     10.36764        -0.004101      0.009176     -0.003827
      5.68826      0.01036      3.66555        -0.005275     -0.001376      0.001827
      7.15599      0.82033      1.03088         0.002891     -0.003116     -0.001154
      7.13417      0.81158      8.34653        -0.002864      0.000242      0.004674
      5.71732      1.64131      5.72040         0.005275      0.001376     -0.001827
      5.71791      1.55582     13.09554         0.004101     -0.009176      0.003827
      4.20924      2.42598     10.37100         0.002012     -0.008215     -0.005628
      4.29772      2.37867      3.70438         0.012319     -0.004554      0.000690
      5.77677      3.25413      0.94785        -0.000583      0.000336     -0.003678
      5.70405      3.29612      8.37928        -0.004580      0.002644     -0.005956
      4.34492      4.08081      5.63811         0.000376     -0.000217     -0.008284
      4.21682      4.15477     13.13375        -0.005018      0.002897      0.009007
      2.91738      4.90500     10.32852         0.005018     -0.002897     -0.009007
      2.78774      4.97985      3.74692        -0.000376      0.000217      0.008284
      4.27274      5.85678      0.99935        -0.004071      0.004048      0.005143
      4.36186      5.80533      8.38567         0.005541     -0.001502     -0.005143
      2.83494      6.68199      5.68065        -0.012319      0.004554     -0.000690
      2.92496      6.63379     13.09127        -0.002012      0.008215      0.005628
 -----------------------------------------------------------------------------------
    total drift:                               -0.000855     -0.000276      0.001656


--------------------------------------------------------------------------------------------------------



  FREE ENERGIE OF THE ION-ELECTRON SYSTEM (eV)
  ---------------------------------------------------
  free  energy   TOTEN  =      -625.5358555897 eV

  energy  without entropy=     -625.5012294895  energy(sigma->0) =     -625.51854254
 
 d Force = 0.3782425E-03[ 0.790E-04, 0.677E-03]  d Energy = 0.4254013E-03-0.472E-04
 d Force = 0.1498962E+01[ 0.149E+01, 0.151E+01]  d Ewald  =-0.1930194E+01 0.343E+01


--------------------------------------------------------------------------------------------------------


    POTLOK:  cpu time    0.2576: real time    0.2582


--------------------------------------------------------------------------------------------------------


 Quasi-Newton relaxation of ions (Broydens 2nd method)
  g(Force)  = 0.280E-03   g(Stress)= 0.262E-03

 retain information from N=  1 steps
 eigenvalues of (default step * inverse Hessian matrix)
  average eigenvalue of G=   0.2714
 eigenvalue spectrum of G is  0.2714


--------------------------------------------------------------------------------------------------------


  
 reached required accuracy - stopping structural energy minimisation
     LOOP+:  cpu time   55.8983: real time   56.2205
    4ORBIT:  cpu time    0.0000: real time    0.0000

volume of typ            1:    20.1 %

volume of typ            2:    19.3 %

volume of typ            3:     9.9 %
 
total charge     
 
# of ion       s       p       d       tot
------------------------------------------
    1        2.083   0.265   0.101   2.448
    2        2.080   0.260   0.098   2.437
    3        2.083   0.265   0.101   2.449
    4        2.080   0.259   0.098   2.437
    5        2.080   0.258   0.098   2.436
    6        2.082   0.263   0.099   2.444
    7        2.081   0.261   0.099   2.442
    8        2.080   0.258   0.098   2.436
    9        2.083   0.265   0.101   2.448
   10        2.083   0.265   0.101   2.449
   11        2.080   0.258   0.098   2.436
   12        2.083   0.265   0.101   2.448
   13        2.083   0.265   0.101   2.448
   14        2.077   0.250   0.094   2.420
   15        2.081   0.261   0.099   2.442
   16        2.082   0.263   0.099   2.444
   17        2.080   0.259   0.098   2.437
   18        2.082   0.263   0.099   2.444
   19        2.080   0.258   0.098   2.436
   20        2.082   0.263   0.099   2.444
   21        2.081   0.261   0.099   2.442
   22        2.077   0.250   0.094   2.420
   23        2.081   0.261   0.099   2.442
   24        0.281   0.379   7.849   8.508
   25        0.256   0.329   7.861   8.446
   26        0.267   0.351   7.858   8.476
   27        0.265   0.347   7.855   8.467
   28        0.269   0.355   7.857   8.481
   29        0.264   0.344   7.856   8.464
   30        0.254   0.323   7.855   8.432
   31        0.269   0.355   7.857   8.481
   32        0.281   0.379   7.849   8.508
   33        0.267   0.351   7.858   8.476
   34        0.269   0.355   7.857   8.481
   35        0.281   0.379   7.849   8.508
   36        0.281   0.379   7.849   8.508
   37        0.255   0.324   7.857   8.435
   38        0.254   0.323   7.855   8.432
   39        0.264   0.344   7.856   8.464
   40        0.265   0.346   7.856   8.467
   41        0.265   0.347   7.855   8.467
   42        0.264   0.344   7.856   8.464
   43        0.269   0.355   7.857   8.481
   44        0.264   0.344   7.856   8.464
   45        0.254   0.323   7.855   8.432
   46        0.265   0.346   7.856   8.467
   47        0.263   0.340   7.855   8.458
   48        0.263   0.340   7.855   8.458
   49        0.255   0.324   7.857   8.435
   50        0.254   0.323   7.855   8.432
   51        1.262   2.784   0.005   4.051
   52        1.259   2.791   0.005   4.055
   53        1.258   2.791   0.006   4.055
   54        1.258   2.791   0.006   4.055
   55        1.261   2.785   0.005   4.052
   56        1.257   2.792   0.006   4.056
   57        1.266   2.773   0.006   4.045
   58        1.255   2.798   0.006   4.059
   59        1.262   2.781   0.005   4.049
   60        1.259   2.790   0.005   4.054
   61        1.262   2.783   0.005   4.050
   62        1.264   2.780   0.006   4.050
   63        1.267   2.770   0.006   4.043
   64        1.264   2.780   0.006   4.050
   65        1.259   2.790   0.005   4.054
   66        1.262   2.781   0.005   4.049
   67        1.259   2.791   0.005   4.055
   68        1.262   2.784   0.005   4.051
   69        1.257   2.792   0.006   4.056
   70        1.261   2.785   0.005   4.052
   71        1.259   2.790   0.005   4.054
   72        1.262   2.781   0.005   4.049
   73        1.259   2.791   0.005   4.055
   74        1.262   2.784   0.005   4.051
   75        1.262   2.784   0.005   4.051
   76        1.259   2.791   0.005   4.055
   77        1.265   2.776   0.006   4.047
   78        1.265   2.776   0.006   4.047
   79        1.264   2.780   0.006   4.050
   80        1.267   2.770   0.006   4.043
   81        1.264   2.780   0.006   4.050
   82        1.262   2.783   0.005   4.050
   83        1.254   2.800   0.006   4.060
   84        1.263   2.781   0.006   4.051
   85        1.255   2.798   0.006   4.059
   86        1.266   2.773   0.006   4.045
   87        1.264   2.780   0.006   4.050
   88        1.262   2.783   0.005   4.050
   89        1.262   2.781   0.005   4.049
   90        1.259   2.790   0.005   4.054
   91        1.262   2.783   0.005   4.050
   92        1.264   2.780   0.006   4.050
   93        1.267   2.770   0.006   4.043
   94        1.264   2.780   0.006   4.050
   95        1.263   2.781   0.006   4.051
   96        1.254   2.800   0.006   4.060
   97        1.263   2.782   0.006   4.051
   98        1.263   2.782   0.006   4.051
   99        1.263   2.782   0.006   4.051
  100        1.263   2.782   0.006   4.051
  101        1.265   2.776   0.006   4.047
  102        1.265   2.776   0.006   4.047
  103        1.264   2.780   0.006   4.050
  104        1.267   2.770   0.006   4.043
--------------------------------------------------
tot         123.15  165.66  214.66  503.47
 
magnetization (x)
 
# of ion       s       p       d       tot
------------------------------------------
    1        0.007   0.014   0.001   0.023
    2        0.006   0.012   0.000   0.018
    3        0.007   0.011   0.001   0.019
    4        0.007   0.012   0.001   0.020
    5        0.007   0.014   0.001   0.022
    6        0.007   0.013   0.001   0.022
    7        0.007   0.013   0.001   0.021
    8        0.007   0.014   0.001   0.022
    9        0.007   0.014   0.001   0.023
   10        0.007   0.011   0.001   0.019
   11        0.007   0.014   0.001   0.022
   12        0.007   0.014   0.001   0.023
   13        0.007   0.014   0.001   0.023
   14        0.007   0.013   0.001   0.021
   15        0.007   0.013   0.001   0.021
   16        0.007   0.013   0.001   0.022
   17        0.007   0.012   0.001   0.020
   18        0.007   0.013   0.001   0.022
   19        0.007   0.014   0.001   0.022
   20        0.007   0.013   0.001   0.022
   21        0.007   0.013   0.001   0.021
   22        0.007   0.013   0.001   0.021
   23        0.007   0.013   0.001   0.021
   24       -0.001  -0.001   0.355   0.353
   25       -0.000  -0.001   0.848   0.847
   26       -0.001  -0.001   0.629   0.628
   27       -0.000  -0.001   0.613   0.611
   28       -0.001  -0.001   0.569   0.568
   29       -0.000  -0.001   0.646   0.645
   30       -0.000  -0.001   0.813   0.812
   31       -0.001  -0.001   0.569   0.568
   32       -0.001  -0.001   0.355   0.353
   33       -0.001  -0.001   0.629   0.628
   34       -0.001  -0.001   0.569   0.568
   35       -0.001  -0.001   0.355   0.353
   36       -0.001  -0.001   0.355   0.353
   37       -0.000  -0.001   0.793   0.792
   38       -0.000  -0.001   0.813   0.812
   39       -0.000  -0.001   0.646   0.645
   40       -0.000  -0.001   0.627   0.626
   41       -0.000  -0.001   0.613   0.611
   42       -0.000  -0.001   0.646   0.645
   43       -0.001  -0.001   0.569   0.568
   44       -0.000  -0.001   0.646   0.645
   45       -0.000  -0.001   0.813   0.812
   46       -0.000  -0.001   0.627   0.626
   47       -0.000  -0.001   0.649   0.648
   48       -0.000  -0.001   0.649   0.648
   49       -0.000  -0.001   0.793   0.792
   50       -0.000  -0.001   0.813   0.812
   51        0.013   0.070   0.000   0.084
   52        0.014   0.079   0.000   0.093
   53        0.004  -0.001   0.000   0.003
   54        0.004  -0.001   0.000   0.003
   55        0.014   0.075   0.000   0.089
   56        0.004  -0.001   0.000   0.004
   57        0.012   0.071   0.000   0.083
   58        0.004   0.001   0.000   0.005
   59        0.013   0.086   0.000   0.099
   60        0.014   0.095   0.000   0.110
   61        0.013   0.081   0.000   0.095
   62        0.013   0.075   0.000   0.089
   63        0.012   0.078   0.000   0.090
   64        0.013   0.083   0.000   0.097
   65        0.014   0.095   0.000   0.110
   66        0.013   0.086   0.000   0.099
   67        0.014   0.079   0.000   0.093
   68        0.013   0.070   0.000   0.084
   69        0.004  -0.001   0.000   0.004
   70        0.014   0.075   0.000   0.089
   71        0.014   0.095   0.000   0.110
   72        0.013   0.086   0.000   0.099
   73        0.014   0.079   0.000   0.093
   74        0.013   0.070   0.000   0.084
   75        0.013   0.070   0.000   0.084
   76        0.014   0.079   0.000   0.093
   77        0.013   0.095   0.000   0.109
   78        0.013   0.095   0.000   0.109
   79        0.013   0.083   0.000   0.097
   80        0.012   0.078   0.000   0.090
   81        0.013   0.075   0.000   0.089
   82        0.013   0.081   0.000   0.095
   83        0.004  -0.003   0.000   0.000
   84        0.012   0.058   0.000   0.071
   85        0.004   0.001   0.000   0.005
   86        0.012   0.071   0.000   0.083
   87        0.013   0.075   0.000   0.089
   88        0.013   0.081   0.000   0.095
   89        0.013   0.086   0.000   0.099
   90        0.014   0.095   0.000   0.110
   91        0.013   0.081   0.000   0.095
   92        0.013   0.075   0.000   0.089
   93        0.012   0.078   0.000   0.090
   94        0.013   0.083   0.000   0.097
   95        0.012   0.058   0.000   0.071
   96        0.004  -0.003   0.000   0.000
   97        0.011   0.045   0.000   0.056
   98        0.011   0.044   0.000   0.055
   99        0.011   0.044   0.000   0.055
  100        0.011   0.045   0.000   0.056
  101        0.013   0.095   0.000   0.109
  102        0.013   0.095   0.000   0.109
  103        0.013   0.083   0.000   0.097
  104        0.012   0.078   0.000   0.090
--------------------------------------------------
tot           0.78    3.83   17.04   21.65
 

 total amount of memory used by VASP MPI-rank0   146973. kBytes
=======================================================================

   base      :      30000. kBytes
   nonlr-proj:      40439. kBytes
   fftplans  :       9349. kBytes
   grid      :      55332. kBytes
   one-center:       1617. kBytes
   wavefun   :      10236. kBytes
 
  
  
 General timing and accounting informations for this job:
 ========================================================
  
                  Total CPU time used (sec):      342.075
                            User time (sec):      338.053
                          System time (sec):        4.022
                         Elapsed time (sec):      347.448
  
                   Maximum memory used (kb):      199584.
                   Average memory used (kb):           0.
  
                          Minor page faults:        34535
                          Major page faults:           52
                 Voluntary context switches:          862
