 vasp.5.4.4.18Apr17-6-g9f103f2a35 (build May 12 2020 05:39:39) gamma-only       
  
 MD_VERSION_INFO: Compiled 2020-05-12T12:39:39-UTC in devlin.sd.materialsdesign.
 com:/home/medea2/data/build/wwolf/vasp-gpu5.4.4/13047/x86_64/src/src/build/gam 
 from svn 13047
 
 This VASP executable licensed from Materials Design, Inc.
 
 executed on                        Lin64 date 2023.01.19  19:20:21
 running on   16 total cores
 distrk:  each k-point on   16 cores,    1 groups
 distr:  one band on NCORES_PER_BAND=   1 cores,   16 groups


--------------------------------------------------------------------------------------------------------


 INCAR:
 POTCAR:    PAW_PBE Li_sv 10Sep2004               
 POTCAR:    PAW_PBE Ni 02Aug2007                  
 POTCAR:    PAW_PBE O 08Apr2002                   

 ----------------------------------------------------------------------------- 
|                                                                             |
|           W    W    AA    RRRRR   N    N  II  N    N   GGGG   !!!           |
|           W    W   A  A   R    R  NN   N  II  NN   N  G    G  !!!           |
|           W    W  A    A  R    R  N N  N  II  N N  N  G       !!!           |
|           W WW W  AAAAAA  RRRRR   N  N N  II  N  N N  G  GGG   !            |
|           WW  WW  A    A  R   R   N   NN  II  N   NN  G    G                |
|           W    W  A    A  R    R  N    N  II  N    N   GGGG   !!!           |
|                                                                             |
|      For optimal performance we recommend to set                            |
|        NCORE= 4 - approx SQRT( number of cores)                             |
|      NCORE specifies how many cores store one orbital (NPAR=cpu/NCORE).     |
|      This setting can  greatly improve the performance of VASP for DFT.     |
|      The default,   NCORE=1            might be grossly inefficient         |
|      on modern multi-core architectures or massively parallel machines.     |
|      Do your own testing !!!!                                               |
|      Unfortunately you need to use the default for GW and RPA calculations. |
|      (for HF NCORE is supported but not extensively tested yet)             |
|                                                                             |
 ----------------------------------------------------------------------------- 

 POTCAR:    PAW_PBE Li_sv 10Sep2004               
  local pseudopotential read in
  atomic valenz-charges read in
  non local Contribution for L=           0  read in
    real space projection operators read in
  non local Contribution for L=           0  read in
    real space projection operators read in
  non local Contribution for L=           1  read in
    real space projection operators read in
    PAW grid and wavefunctions read in
 
   number of l-projection  operators is LMAX  =           3
   number of lm-projection operators is LMMAX =           5
 
 POTCAR:    PAW_PBE Ni 02Aug2007                  
  local pseudopotential read in
  partial core-charges read in
  partial kinetic energy density read in
  atomic valenz-charges read in
  non local Contribution for L=           2  read in
    real space projection operators read in
  non local Contribution for L=           2  read in
    real space projection operators read in
  non local Contribution for L=           0  read in
    real space projection operators read in
  non local Contribution for L=           0  read in
    real space projection operators read in
  non local Contribution for L=           1  read in
    real space projection operators read in
  non local Contribution for L=           1  read in
    real space projection operators read in
    PAW grid and wavefunctions read in
 
   number of l-projection  operators is LMAX  =           6
   number of lm-projection operators is LMMAX =          18
 
 POTCAR:    PAW_PBE O 08Apr2002                   
  local pseudopotential read in
  partial core-charges read in
  partial kinetic energy density read in
  kinetic energy density of atom read in
  atomic valenz-charges read in
  non local Contribution for L=           0  read in
    real space projection operators read in
  non local Contribution for L=           0  read in
    real space projection operators read in
  non local Contribution for L=           1  read in
    real space projection operators read in
  non local Contribution for L=           1  read in
    real space projection operators read in
    PAW grid and wavefunctions read in
 
   number of l-projection  operators is LMAX  =           4
   number of lm-projection operators is LMMAX =           8
 
 Optimization of the real space projectors (new method)

 maximal supplied QI-value         = 22.11
 optimisation between [QCUT,QGAM] = [ 11.28, 22.77] = [ 35.61,145.23] Ry 
 Optimized for a Real-space Cutoff    1.10 Angstroem

   l    n(q)    QCUT    max X(q) W(low)/X(q) W(high)/X(q)  e(spline) 
   0      7    11.276    10.506    0.54E-04    0.58E-04    0.16E-07
   0      7    11.276     8.367    0.11E-03    0.14E-03    0.35E-07
   1      7    11.276     8.983    0.23E-03    0.43E-03    0.86E-07
 Optimization of the real space projectors (new method)

 maximal supplied QI-value         = 16.25
 optimisation between [QCUT,QGAM] = [ 11.38, 22.75] = [ 36.24,144.96] Ry 
 Optimized for a Real-space Cutoff    1.47 Angstroem

   l    n(q)    QCUT    max X(q) W(low)/X(q) W(high)/X(q)  e(spline) 
   2      9    11.376    60.317    0.17E-03    0.16E-04    0.16E-06
   2      9    11.376    55.921    0.17E-03    0.16E-04    0.17E-06
   0     10    11.376    51.690    0.45E-04    0.60E-04    0.21E-06
   0     10    11.376    30.015    0.37E-04    0.55E-04    0.19E-06
   1     10    11.376    18.849    0.83E-04    0.11E-03    0.92E-07
   1     10    11.376    14.624    0.69E-04    0.92E-04    0.82E-07
 Optimization of the real space projectors (new method)

 maximal supplied QI-value         = 24.76
 optimisation between [QCUT,QGAM] = [ 11.39, 22.77] = [ 36.31,145.25] Ry 
 Optimized for a Real-space Cutoff    1.10 Angstroem

   l    n(q)    QCUT    max X(q) W(low)/X(q) W(high)/X(q)  e(spline) 
   0      7    11.387    20.381    0.22E-03    0.48E-03    0.18E-06
   0      7    11.387    15.268    0.22E-03    0.52E-03    0.19E-06
   1      7    11.387     5.964    0.22E-03    0.73E-03    0.24E-06
   1      7    11.387     5.382    0.19E-03    0.60E-03    0.21E-06

 ----------------------------------------------------------------------------- 
|                                                                             |
|  ADVICE TO THIS USER RUNNING 'VASP/VAMP'   (HEAR YOUR MASTER'S VOICE ...):  |
|                                                                             |
|      You enforced a specific xc-type in the INCAR file,                     |
|      a different type was found on the POTCAR file                          |
|          I HOPE YOU KNOW, WHAT YOU ARE  DOING                               |
|                                                                             |
 ----------------------------------------------------------------------------- 

  PAW_PBE Li_sv 10Sep2004               :
 energy of atom  1       EATOM= -202.7858
 kinetic energy error for atom=    0.0143 (will be added to EATOM!!)
  PAW_PBE Ni 02Aug2007                  :
 energy of atom  2       EATOM=-1077.6739
 kinetic energy error for atom=    0.0030 (will be added to EATOM!!)
  PAW_PBE O 08Apr2002                   :
 energy of atom  3       EATOM= -432.3788
 kinetic energy error for atom=    0.0224 (will be added to EATOM!!)
 
 
 POSCAR: ce409356_1                              
  positions in direct lattice
  No initial velocities read in
 exchange correlation table for  LEXCH =       14
   RHO(1)=    0.500       N(1)  =     2000
   RHO(2)=  100.500       N(2)  =     4000
 


--------------------------------------------------------------------------------------------------------


 ion  position               nearest neighbor table
   1  0.998  0.500  0.999-  38 2.11  87 2.11  51 2.11  86 2.12  39 2.13  74 2.14
   2  0.112  0.834  0.223-  40 2.10  58 2.11  59 2.11  53 2.11  35 2.12  52 2.12
   3  0.225  0.166  0.111-  42 2.09  43 2.10  60 2.11  73 2.11  36 2.12  37 2.12
   4  0.666  0.500  0.331-  69 2.11  44 2.11  50 2.11  45 2.12  68 2.13  63 2.14
   5  0.777  0.834  0.558-  83 2.09  88 2.10  71 2.11  64 2.11  65 2.12  70 2.12
   6  0.890  0.166  0.445-  67 2.10  55 2.11  72 2.11  54 2.11  66 2.12  49 2.12
   7  0.333  0.500  0.666-  56 2.11  57 2.11  62 2.11  75 2.11  80 2.14  81 2.14
   8  0.999  0.999  0.999-  52 1.86  85 1.87  73 1.87  37 1.87  40 1.88  88 1.88  26 2.78  32 2.79
                            14 2.79  17 2.80  11 2.81  20 2.82
   9  0.111  0.333  0.224-  60 1.87  51 1.87  36 1.88  39 1.88  54 1.90  57 1.90  15 2.78  18 2.79
                            21 2.79  12 2.80  33 2.81  27 2.82
  10  0.224  0.666  0.111-  74 1.87  41 1.87  59 1.87  35 1.88  38 1.88  44 1.89  22 2.79  13 2.79
                            28 2.79  19 2.80  34 2.81  16 2.82
  11  0.334  0.997  1.000-  76 1.86  46 1.86  79 1.87  43 1.88  73 1.88  40 1.90  23 2.79  26 2.79
                            29 2.80  14 2.80  20 2.81   8 2.81
  12  0.444  0.333  0.222-  42 1.87  63 1.87  60 1.87  45 1.87  39 1.91  66 1.91  30 2.79  21 2.79
                            27 2.80   9 2.80  24 2.81  15 2.81
  13  0.555  0.669  0.110-  41 1.87  47 1.87  50 1.88  44 1.88  80 1.90  65 1.90  16 2.79  10 2.79
                            31 2.79  28 2.79  25 2.81  22 2.81
  14  0.667  0.000  0.001-  82 1.86  79 1.86  85 1.87  46 1.87  49 1.90  52 1.90  23 2.79   8 2.79
                            17 2.79  32 2.80  11 2.80  29 2.80
  15  0.778  0.334  0.221-  45 1.87  48 1.87  54 1.87  66 1.87  69 1.88  51 1.89   9 2.78  33 2.79
                            30 2.79  18 2.80  12 2.81  24 2.82
  16  0.887  0.666  0.111-  86 1.87  47 1.87  53 1.87  35 1.87  38 1.88  50 1.89  25 2.78  13 2.79
                            31 2.79  19 2.80  34 2.81  10 2.82
  17  1.000  0.000  0.333-  52 1.87  49 1.87  58 1.87  55 1.87  37 1.91  70 1.91  14 2.79  29 2.80
                             8 2.80  23 2.80  20 2.81  26 2.81
  18  0.111  0.334  0.556-  57 1.87  75 1.87  54 1.87  72 1.87  78 1.87  69 1.91  27 2.79   9 2.79
                            30 2.80  15 2.80  21 2.80  24 2.80
  19  0.222  0.666  0.445-  56 1.87  62 1.87  53 1.87  59 1.87  77 1.87  38 1.91  22 2.79  25 2.79
                            31 2.80  16 2.80  28 2.80  10 2.80
  20  0.335  0.999  0.335-  58 1.86  61 1.87  43 1.87  37 1.88  40 1.88  64 1.89  23 2.78  32 2.79
                            29 2.79  17 2.81  11 2.81   8 2.82
  21  0.445  0.331  0.555-  84 1.86  81 1.87  78 1.87  57 1.88  60 1.89  63 1.90  24 2.79   9 2.79
                            12 2.79  33 2.79  18 2.80  30 2.81
  22  0.554  0.667  0.445-  83 1.87  44 1.87  68 1.88  65 1.88  59 1.89  62 1.90  19 2.79  10 2.79
                            31 2.79  34 2.80  13 2.81  25 2.82
  23  0.665  0.001  0.332-  49 1.86  46 1.87  64 1.87  70 1.87  67 1.88  43 1.88  20 2.78  11 2.79
                            14 2.79  17 2.80  32 2.81  26 2.82
  24  0.778  0.334  0.557-  63 1.87  84 1.87  72 1.87  66 1.88  69 1.88  87 1.89  27 2.79  33 2.79
                            21 2.79  18 2.80  12 2.81  15 2.82
  25  0.890  0.667  0.444-  71 1.87  50 1.87  65 1.88  68 1.88  53 1.90  56 1.90  16 2.78  19 2.79
                            28 2.79  34 2.80  13 2.81  22 2.82
  26  0.001  0.001  0.668-  55 1.86  76 1.87  88 1.87  70 1.88  67 1.88  73 1.89   8 2.78  11 2.79
                            29 2.79  17 2.81  32 2.81  23 2.82
  27  0.111  0.333  0.887-  42 1.87  87 1.87  39 1.88  36 1.88  72 1.89  75 1.90  18 2.79  24 2.79
                            30 2.79  12 2.80  33 2.81   9 2.82
  28  0.221  0.669  0.778-  41 1.86  80 1.87  77 1.87  56 1.88  71 1.89  74 1.90  10 2.79  25 2.79
                            34 2.79  13 2.79  19 2.80  31 2.81
  29  0.333  0.000  0.666-  79 1.87  82 1.87  76 1.87  61 1.87  55 1.90  58 1.90  26 2.79  20 2.79
                            11 2.80  32 2.80  17 2.80  14 2.80
  30  0.445  0.331  0.890-  48 1.86  81 1.87  78 1.87  75 1.88  42 1.89  45 1.90  15 2.79  27 2.79
                            12 2.79  33 2.79  18 2.80  21 2.81
  31  0.557  0.669  0.778-  47 1.86  80 1.87  77 1.87  62 1.88  83 1.89  86 1.90  16 2.79  22 2.79
                            34 2.79  13 2.79  19 2.80  28 2.81
  32  0.666  0.003  0.667-  61 1.86  85 1.86  82 1.87  88 1.88  64 1.88  67 1.90   8 2.79  20 2.79
                            29 2.80  14 2.80  26 2.81  23 2.81
  33  0.777  0.331  0.888-  84 1.87  48 1.87  51 1.88  87 1.88  81 1.90  36 1.90  15 2.79  24 2.79
                            30 2.79  21 2.79   9 2.81  27 2.81
  34  0.889  0.667  0.778-  83 1.87  74 1.87  71 1.87  86 1.87  68 1.91  35 1.91  31 2.79  28 2.79
                            22 2.80  25 2.80  10 2.81  16 2.81
  35  0.002  0.734  0.005-  16 1.87  10 1.88  34 1.91   2 2.12
  36  0.005  0.264  0.002-   9 1.88  27 1.88  33 1.90   3 2.12
  37  0.114  0.067  0.219-   8 1.87  20 1.88  17 1.91   3 2.12
  38  0.109  0.598  0.219-  16 1.88  10 1.88  19 1.91   1 2.11
  39  0.218  0.401  0.109-  27 1.88   9 1.88  12 1.91   1 2.13
  40  0.220  0.930  0.113-  20 1.88   8 1.88  11 1.90   2 2.10
  41  0.332  0.735  0.001-  28 1.86  13 1.87  10 1.87
  42  0.331  0.265  0.002-  27 1.87  12 1.87  30 1.89   3 2.09
  43  0.440  0.067  0.219-  20 1.87  11 1.88  23 1.88   3 2.10
  44  0.449  0.600  0.223-  22 1.87  13 1.88  10 1.89   4 2.11
  45  0.557  0.401  0.113-  15 1.87  12 1.87  30 1.90   4 2.12
  46  0.557  0.932  0.112-  11 1.86  23 1.87  14 1.87
  47  0.668  0.735  0.000-  31 1.86  13 1.87  16 1.87
  48  0.667  0.265  0.001-  30 1.86  33 1.87  15 1.87
  49  0.779  0.068  0.225-  23 1.86  17 1.87  14 1.90   6 2.12
  50  0.775  0.600  0.223-  25 1.87  13 1.88  16 1.89   4 2.11
  51  0.890  0.400  0.108-   9 1.87  33 1.88  15 1.89   1 2.11
  52  0.892  0.932  0.112-   8 1.86  17 1.87  14 1.90   2 2.12
  53  0.002  0.735  0.331-  19 1.87  16 1.87  25 1.90   2 2.11
  54  0.998  0.265  0.336-  18 1.87  15 1.87   9 1.90   6 2.11
  55  0.108  0.068  0.554-  26 1.86  17 1.87  29 1.90   6 2.11
  56  0.116  0.599  0.559-  19 1.87  28 1.88  25 1.90   7 2.11
  57  0.225  0.401  0.449-  18 1.87  21 1.88   9 1.90   7 2.11
  58  0.221  0.932  0.441-  20 1.86  17 1.87  29 1.90   2 2.11
  59  0.329  0.735  0.332-  19 1.87  10 1.87  22 1.89   2 2.11
  60  0.331  0.264  0.329-   9 1.87  12 1.87  21 1.89   3 2.11
  61  0.443  0.068  0.555-  32 1.86  20 1.87  29 1.87
  62  0.443  0.599  0.559-  19 1.87  31 1.88  22 1.90   7 2.11
  63  0.556  0.401  0.443-  24 1.87  12 1.87  21 1.90   4 2.14
  64  0.560  0.933  0.448-  23 1.87  32 1.88  20 1.89   5 2.11
  65  0.669  0.736  0.338-  25 1.88  22 1.88  13 1.90   5 2.12
  66  0.672  0.266  0.336-  15 1.87  24 1.88  12 1.91   6 2.12
  67  0.780  0.070  0.554-  26 1.88  23 1.88  32 1.90   6 2.10
  68  0.775  0.599  0.551-  22 1.88  25 1.88  34 1.91   4 2.13
  69  0.885  0.402  0.443-  15 1.88  24 1.88  18 1.91   4 2.11
  70  0.886  0.933  0.447-  23 1.87  26 1.88  17 1.91   5 2.12
  71  0.995  0.736  0.664-  25 1.87  34 1.87  28 1.89   5 2.11
  72  0.998  0.265  0.663-  18 1.87  24 1.87  27 1.89   6 2.11
  73  0.114  0.067  0.893-   8 1.87  11 1.88  26 1.89   3 2.11
  74  0.110  0.599  0.890-  10 1.87  34 1.87  28 1.90   1 2.14
  75  0.226  0.401  0.777-  18 1.87  30 1.88  27 1.90   7 2.11
  76  0.221  0.932  0.776-  11 1.86  26 1.87  29 1.87
  77  0.333  0.735  0.665-  28 1.87  31 1.87  19 1.87
  78  0.332  0.265  0.666-  21 1.87  30 1.87  18 1.87
  79  0.444  0.065  0.890-  14 1.86  11 1.87  29 1.87
  80  0.443  0.602  0.885-  31 1.87  28 1.87  13 1.90   7 2.14
  81  0.552  0.398  0.776-  30 1.87  21 1.87  33 1.90   7 2.14
  82  0.557  0.935  0.777-  14 1.86  32 1.87  29 1.87
  83  0.669  0.735  0.664-  22 1.87  34 1.87  31 1.89   5 2.09
  84  0.667  0.265  0.666-  21 1.86  33 1.87  24 1.87
  85  0.779  0.068  0.891-  32 1.86   8 1.87  14 1.87
  86  0.780  0.599  0.890-  16 1.87  34 1.87  31 1.90   1 2.12
  87  0.890  0.400  0.782-  27 1.87  33 1.88  24 1.89   1 2.11
  88  0.886  0.933  0.773-  26 1.87  32 1.88   8 1.88   5 2.10
 
  LATTYP: Found a base centered monoclinic cell.
 ALAT       =    14.5416529443
 B/A-ratio  =     0.5771621352
 C/A-ratio  =     1.3945531890
 COS(beta)  =    -0.6207995633
  
  Lattice vectors:
  
 A1 = (   8.3949431530,  -0.0011845597,  -0.0015487924)
 A2 = (   4.1984974105,  -7.2696417709,  -0.0015487924)
 A3 = ( -12.5908445311,   7.2693275328, -14.1375299208)


Analysis of symmetry for initial positions (statically):
=====================================================================
 Subroutine PRICEL returns:
 Original cell was already a primitive cell.
 

 Routine SETGRP: Setting up the symmetry group for a 
 base centered monoclinic supercell.


 Subroutine GETGRP returns: Found  2 space group operations
 (whereof  1 operations were pure point group operations)
 out of a pool of  4 trial point group operations.


The static configuration has the point symmetry C_1 .
 The point group associated with its full space group is C_2 .


Analysis of symmetry for dynamics (positions and initial velocities):
=====================================================================
 Subroutine PRICEL returns:
 Original cell was already a primitive cell.
 

 Routine SETGRP: Setting up the symmetry group for a 
 base centered monoclinic supercell.


 Subroutine GETGRP returns: Found  2 space group operations
 (whereof  1 operations were pure point group operations)
 out of a pool of  4 trial point group operations.


The dynamic configuration has the point symmetry C_1 .
 The point group associated with its full space group is C_2 .


Analysis of structural, dynamic, and magnetic symmetry:
=====================================================================
 Subroutine PRICEL returns:
 Original cell was already a primitive cell.
 

 Routine SETGRP: Setting up the symmetry group for a 
 base centered monoclinic supercell.


 Subroutine GETGRP returns: Found  2 space group operations
 (whereof  1 operations were pure point group operations)
 out of a pool of  4 trial point group operations.


The magnetic configuration has the point symmetry C_1 .
 The point group associated with its full space group is C_2 .


 Subroutine INISYM returns: Found  2 space group operations
 (whereof  1 operations are pure point group operations),
 and found     1 'primitive' translations

 
 
 KPOINTS: Automatic mesh                          

Automatic generation of k-mesh.
Space group operators:
 irot       det(A)        alpha          n_x          n_y          n_z        tau_x        tau_y        tau_z
    1     1.000000     0.000000     1.000000     0.000000     0.000000     0.000000     0.000000     0.000000
    2     1.000000   180.000000     0.500000     0.866025     0.000000    -0.333333    -0.000000     0.333333
 
 Subroutine IBZKPT returns following result:
 ===========================================
 
 Found      1 irreducible k-points:
 
 Following reciprocal coordinates:
            Coordinates               Weight
  0.000000  0.000000  0.000000      1.000000
 
 Following cartesian coordinates:
            Coordinates               Weight
  0.000000  0.000000  0.000000      1.000000
 


--------------------------------------------------------------------------------------------------------




 Dimension of arrays:
   k-points           NKPTS =      1   k-points in BZ     NKDIM =      1   number of bands    NBANDS=    416
   number of dos      NEDOS =    301   number of ions     NIONS =     88
   non local maximal  LDIM  =      6   non local SUM 2l+1 LMDIM =     18
   total plane-waves  NPLWV = 442368
   max r-space proj   IRMAX =   6932   max aug-charges    IRDMAX=  16815
   dimension x,y,z NGX =    64 NGY =  108 NGZ =   64
   dimension x,y,z NGXF=   128 NGYF=  216 NGZF=  128
   support grid    NGXF=   128 NGYF=  216 NGZF=  128
   ions per type =               7  27  54
   NGX,Y,Z   is equivalent  to a cutoff of  12.67, 12.70, 12.67 a.u.
   NGXF,Y,Z  is equivalent  to a cutoff of  25.35, 25.39, 25.35 a.u.

 SYSTEM =  unknown system                          
 POSCAR =  ce409356_1                              

 Startparameter for this run:
   NWRITE =      1    write-flag & timer
   PREC   = accura    normal or accurate (medium, high low for compatibility)
   ISTART =      0    job   : 0-new  1-cont  2-samecut
   ICHARG =      2    charge: 1-file 2-atom 10-const
   ISPIN  =      2    spin polarized calculation?
   LNONCOLLINEAR =      F non collinear calculations
   LSORBIT =      F    spin-orbit coupling
   INIWAV =      1    electr: 0-lowe 1-rand  2-diag
   LASPH  =      F    aspherical Exc in radial PAW
   METAGGA=      F    non-selfconsistent MetaGGA calc.

 Electronic Relaxation 1
   ENCUT  =  500.0 eV  36.75 Ry    6.06 a.u.  15.31 25.78 15.31*2*pi/ulx,y,z
   ENINI  =  500.0     initial cutoff
   ENAUG  =  628.9 eV  augmentation charge cutoff
   NELM   =     80;   NELMIN=  2; NELMDL= -5     # of ELM steps 
   EDIFF  = 0.1E-04   stopping-criterion for ELM
   LREAL  =      T    real-space projection
   NLSPLINE    = F    spline interpolate recip. space projectors
   LCOMPAT=      F    compatible to vasp.4.4
   GGA_COMPAT  = T    GGA compatible to vasp.4.4-vasp.4.6
   LMAXPAW     = -100 max onsite density
   LMAXMIX     =    2 max onsite mixed and CHGCAR
   VOSKOWN=      1    Vosko Wilk Nusair interpolation
   ROPT   =   -0.00025  -0.00025  -0.00025
 Ionic relaxation
   EDIFFG = -.2E-01   stopping-criterion for IOM
   NSW    =     20    number of steps for IOM
   NBLOCK =      1;   KBLOCK =     20    inner block; outer block 
   IBRION =      1    ionic relax: 0-MD 1-quasi-New 2-CG
   NFREE  =      0    steps in history (QN), initial steepest desc. (CG)
   ISIF   =      3    stress and relaxation
   IWAVPR =     11    prediction:  0-non 1-charg 2-wave 3-comb
   ISYM   =      2    0-nonsym 1-usesym 2-fastsym
   LCORR  =      T    Harris-Foulkes like correction to forces

   POTIM  = 0.5000    time-step for ionic-motion
   TEIN   =    0.0    initial temperature
   TEBEG  =    0.0;   TEEND  =   0.0 temperature during run
   SMASS  =  -3.00    Nose mass-parameter (am)
   estimated Nose-frequenzy (Omega)   =  0.10E-29 period in steps =****** mass=  -0.161E-26a.u.
   SCALEE = 1.0000    scale energy and forces
   NPACO  =    256;   APACO  = 16.0  distance and # of slots for P.C.
   PSTRESS=    0.0 pullay stress

  Mass of Ions in am
   POMASS =   7.01 58.69 16.00
  Ionic Valenz
   ZVAL   =   3.00 10.00  6.00
  Atomic Wigner-Seitz radii
   RWIGS  =   1.23  1.15  0.73
  virtual crystal weights 
   VCA    =   1.00  1.00  1.00
   NELECT =     615.0000    total number of electrons
   NUPDOWN=      -1.0000    fix difference up-down

 DOS related values:
   EMIN   =  10.00;   EMAX   =-10.00  energy-range for DOS
   EFERMI =   0.00
   ISMEAR =     0;   SIGMA  =   0.05  broadening in eV -4-tet -1-fermi 0-gaus

 Electronic relaxation 2 (details)
   IALGO  =     38    algorithm
   LDIAG  =      T    sub-space diagonalisation (order eigenvalues)
   LSUBROT=      F    optimize rotation matrix (better conditioning)
   TURBO    =      0    0=normal 1=particle mesh
   IRESTART =      0    0=no restart 2=restart with 2 vectors
   NREBOOT  =      0    no. of reboots
   NMIN     =      0    reboot dimension
   EREF     =   0.00    reference energy to select bands
   IMIX   =      4    mixing-type and parameters
     AMIX     =   0.40;   BMIX     =  1.00
     AMIX_MAG =   1.60;   BMIX_MAG =  1.00
     AMIN     =   0.10
     WC   =   100.;   INIMIX=   1;  MIXPRE=   1;  MAXMIX= -45

 Intra band minimization:
   WEIMIN = 0.0010     energy-eigenvalue tresh-hold
   EBREAK =  0.60E-08  absolut break condition
   DEPER  =   0.30     relativ break condition  

   TIME   =   0.40     timestep for ELM

  volume/ion in A,a.u.               =       9.81        66.17
  Fermi-wavevector in a.u.,A,eV,Ry     =   1.462329  2.763402 29.094794  2.138407
  Thomas-Fermi vector in A             =   2.578556
 
 Write flags
   LWAVE        =      F    write WAVECAR
   LDOWNSAMPLE  =      F    k-point downsampling of WAVECAR
   LCHARG       =      T    write CHGCAR
   LVTOT        =      F    write LOCPOT, total local potential
   LVHAR        =      F    write LOCPOT, Hartree potential only
   LELF         =      F    write electronic localiz. function (ELF)
   LORBIT       =      0    0 simple, 1 ext, 2 COOP (PROOUT), +10 PAW based schemes


 Dipole corrections
   LMONO  =      F    monopole corrections only (constant potential shift)
   LDIPOL =      F    correct potential (dipole corrections)
   IDIPOL =      0    1-x, 2-y, 3-z, 4-all directions 
   EPSILON=  1.0000000 bulk dielectric constant

 Exchange correlation treatment:
   GGA     =    PS    GGA type
   LEXCH   =    14    internal setting for exchange type
   VOSKOWN=      1    Vosko Wilk Nusair interpolation
   LHFCALC =     F    Hartree Fock is set to
   LHFONE  =     F    Hartree Fock one center treatment
   AEXX    =    0.0000 exact exchange contribution

 Linear response parameters
   LEPSILON=     F    determine dielectric tensor
   LRPA    =     F    only Hartree local field effects (RPA)
   LNABLA  =     F    use nabla operator in PAW spheres
   LVEL    =     F    velocity operator in full k-point grid
   LINTERFAST=   F  fast interpolation
   KINTER  =     0    interpolate to denser k-point grid
   CSHIFT  =0.1000    complex shift for real part using Kramers Kronig
   OMEGAMAX=  -1.0    maximum frequency
   DEG_THRESHOLD= 0.2000000E-02 threshold for treating states as degnerate
   RTIME   =   -0.100 relaxation time in fs
  (WPLASMAI=    0.000 imaginary part of plasma frequency in eV, 0.658/RTIME)
   DFIELD  = 0.0000000 0.0000000 0.0000000 field for delta impulse in time
 
 Orbital magnetization related:
   ORBITALMAG=     F  switch on orbital magnetization
   LCHIMAG   =     F  perturbation theory with respect to B field
   DQ        =  0.001000  dq finite difference perturbation B field
   LLRAUG    =     F  two centre corrections for induced B field



--------------------------------------------------------------------------------------------------------


 quasi-Newton-method for relaxation of ions
 charge density and potential will be updated during run
 spin polarized calculation
 Variant of blocked Davidson
 Davidson routine will perform the subspace rotation
 perform sub-space diagonalisation
    after iterative eigenvector-optimisation
 modified Broyden-mixing scheme, WC =      100.0
 initial mixing is a Kerker type mixing with AMIX =  0.4000 and BMIX =      1.0000
 Hartree-type preconditioning will be used
 using additional bands          108
 real space projection scheme for non local part
 use partial core corrections
 calculate Harris-corrections to forces 
   (improved forces if not selfconsistent)
 use gradient corrections 
 use of overlap-Matrix (Vanderbilt PP)
 Gauss-broadening in eV      SIGMA  =   0.05


--------------------------------------------------------------------------------------------------------


  energy-cutoff  :      500.00
  volume of cell :      862.91
      direct lattice vectors                 reciprocal lattice vectors
    -4.198497410  7.269641771  0.001548792     0.000019409  0.137569573 -0.000014578
    -0.002596032  0.001498798 14.140627506     0.000013046 -0.000007532  0.070718223
     8.394943153 -0.001184560 -0.001548792     0.119129040  0.068801594  0.000014578

  length of vectors
     8.394943382 14.140627823  8.394943379     0.137569575  0.070718224  0.137569575


 
 k-points in units of 2pi/SCALE and weight: Automatic mesh                          
   0.00000000  0.00000000  0.00000000       1.000
 
 k-points in reciprocal lattice and weights: Automatic mesh                          
   0.00000000  0.00000000  0.00000000       1.000
 
 position of ions in fractional coordinates (direct lattice) 
   0.99762363  0.49989312  0.99903362
   0.11188037  0.83350354  0.22349752
   0.22481277  0.16606581  0.11063248
   0.66570029  0.50010688  0.33095696
   0.77729915  0.83393419  0.55814611
   0.89016419  0.16649646  0.44521370
   0.33258119  0.50000000  0.66591453
   0.99870620  0.99919727  0.99853288
   0.11101471  0.33284976  0.22370171
   0.22367398  0.66622123  0.11120433
   0.33381915  0.99673315  0.99964921
   0.44425146  0.33307607  0.22203710
   0.55516621  0.66944112  0.11030008
   0.66718294  0.00000000  0.00051627
   0.77788239  0.33371097  0.22079331
   0.88745998  0.66628903  0.11121572
   0.99979240  0.00000000  0.33312573
   0.11123005  0.33367241  0.55564752
   0.22231418  0.66632759  0.44456338
   0.33486339  0.99918017  0.33460457
   0.44474140  0.33063352  0.55469815
   0.55410004  0.66704514  0.44457485
   0.66519955  0.00080273  0.33203953
   0.77787100  0.33377877  0.55700732
   0.89036838  0.66715024  0.44434804
   0.00127124  0.00081983  0.66819673
   0.11124152  0.33295486  0.88743337
   0.22136481  0.66936648  0.77807474
   0.33297192  0.00000000  0.66630526
   0.44482610  0.33070114  0.88992947
   0.55659614  0.66929886  0.77815944
   0.66631588  0.00326685  0.66715249
   0.77696675  0.33055888  0.88849954
   0.88870377  0.66692393  0.77758480
   0.00224895  0.73443674  0.00497045
   0.00475211  0.26446738  0.00227908
   0.11370535  0.06740122  0.21936192
   0.10934100  0.59768776  0.21874612
   0.21780501  0.40100964  0.10879395
   0.22017070  0.93027250  0.11319863
   0.33238330  0.73488722  0.00055494
   0.33109522  0.26457686  0.00215118
   0.44008472  0.06692799  0.21897843
   0.44868097  0.59953335  0.22348652
   0.55673414  0.40087434  0.11319282
   0.55717215  0.93235894  0.11198079
   0.66796079  0.73494153  0.00046869
   0.66713536  0.26505847  0.00129412
   0.77911456  0.06798963  0.22537502
   0.77487628  0.59954488  0.22320926
   0.88987593  0.40045512  0.10820961
   0.89204169  0.93201037  0.11244789
   0.00239891  0.73475158  0.33132042
   0.99798709  0.26524842  0.33573224
   0.10765157  0.06794051  0.55394656
   0.11565417  0.59931720  0.55875218
   0.22541884  0.40068280  0.44898750
   0.22061322  0.93205949  0.44098490
   0.32917191  0.73465101  0.33152151
   0.33088783  0.26448754  0.32873180
   0.44301711  0.06753628  0.55481707
   0.44327262  0.59915181  0.55894834
   0.55648488  0.40070031  0.44315279
   0.56012967  0.93298011  0.44772521
   0.66894575  0.73553262  0.33808544
   0.67163712  0.26556326  0.33558228
   0.77986530  0.06972750  0.55350404
   0.77546062  0.59899036  0.55113835
   0.88541279  0.40231224  0.44267433
   0.88602859  0.93259878  0.44703868
   0.99539847  0.73551246  0.66422117
   0.99818818  0.26534899  0.66250525
   0.11439188  0.06701989  0.89346300
   0.10981946  0.59929969  0.88981821
   0.22561500  0.40084819  0.77660596
   0.22148373  0.93246372  0.77635045
   0.33256122  0.73472843  0.66532980
   0.33199646  0.26527157  0.66589456
   0.44390598  0.06495510  0.89001146
   0.44258426  0.60152655  0.88519255
   0.55185922  0.39847345  0.77591760
   0.55667813  0.93504490  0.77723932
   0.66881785  0.73542314  0.66442856
   0.66722161  0.26511278  0.66571664
   0.77864746  0.06764106  0.89050548
   0.77985949  0.59912566  0.89006747
   0.89015319  0.40046665  0.78201431
   0.88564510  0.93307201  0.77341806
 
 position of ions in cartesian coordinates  (Angst):
   4.19701248  7.25193224  7.06880022
   1.40435573  0.81431472 11.78609021
  -0.01555356  1.63442615  2.34845160
  -0.01787437  4.83976016  7.07234355
   1.41995148  5.65127511 11.79269217
  -0.00024057  6.47089694  2.35505356
   4.19267534  2.41770669  7.06979749
   4.18696742  7.26055108 14.12927667
   1.41100408  0.80727106  4.70652994
  -0.00727013  1.62689651  9.42096044
   6.98787190  2.42705539 14.09340096
  -0.00206445  3.22978517  4.71024880
  -1.40663888  4.03673217  9.46700652
  -2.79683179  4.85018036  0.00103253
  -1.41325624  5.65516494  4.71974534
  -2.79407849  6.45238303  9.42294723
  -1.40105424  7.26773799  0.00103253
   4.19676404  0.80844453  4.71764895
   2.79696899  1.61661653  9.42194603
   1.40046936  2.43543810 14.12903500
   2.78855548  3.23294914  4.67519515
   1.40406134  4.02858194  9.43260649
  -0.00538769  4.83537032  0.01186710
   1.40928891  5.65468397  4.72018333
  -0.00966475  6.47313273  9.43461383
   5.60413414  0.00845117  0.01055998
   6.98204110  0.80813381  4.70698849
   5.60075593  1.60932444  9.46439983
   4.19561304  2.41979730 -0.00051626
   5.60244757  3.23316788  4.67563226
   4.19399929  4.04633592  9.46396271
   2.80317325  4.84309237  0.04619401
   4.19595210  5.64771290  4.67413725
   2.79482836  6.46063654  9.43089497
   0.03037781  0.01744395 10.38539215
  -0.00150554  0.03493982  3.73973854
   1.36396426  0.82643834  0.95293191
   1.37574172  0.79550660  8.45151053
  -0.00217578  1.58383656  5.67069678
   0.02349493  1.60182232 13.15480258
  -1.39275953  2.41740831 10.39228037
  -1.37273024  2.40733764  3.74179229
  -0.00955683  3.19909918  0.94674622
  -0.00918567  3.26238377  8.47812656
  -1.38824024  4.04772451  5.66930167
  -1.40163390  4.05170670 13.18482998
  -2.80240495  4.85693663 10.39356822
  -2.79079012  4.85023082  3.74912434
  -1.37927648  5.66371868  0.96227366
  -1.38104344  5.63370716  8.47879524
  -2.82876786  6.46955125  5.66389732
  -2.80366061  6.48608722 13.18041890
   2.76943683  0.01814799 10.38933897
  -1.37228174  7.25500850  3.75180480
   4.19819867  0.78203400  0.96003023
   4.20356321  0.84100077  8.47403502
   2.82176394  1.63878291  5.66555996
   2.77337948  1.60465368 13.17956475
   1.39916964  2.39367025 10.38842264
   1.36976646  2.40544300  3.74002312
   2.79747625  3.22001970  0.95483222
   2.82970518  3.22266905  8.47220341
   1.38280192  4.04552136  5.66632935
   1.40450267  4.07281004 13.19309830
   0.02773158  4.86369790 10.40140523
  -0.00336196  4.88256177  3.75575162
   1.37219149  5.66879021  0.98634119
   1.36945071  5.63756582  8.47044699
  -0.00222189  6.43671241  5.68963324
   0.03045451  6.44197868 13.18821186
   1.39501165  7.23650587 10.40112065
   1.37011457  7.25608342  3.75272113
   7.02012310  0.83063008  0.94649668
   7.00734077  0.79819232  8.47326562
   5.57127828  1.63982108  5.66739157
   5.58509832  1.61058532 13.18476275
   4.18724105  2.41791402 10.38900566
   4.19557205  2.41310413  3.75058932
   5.60768888  3.22608054  0.91781495
   5.57139068  3.21728203  8.50527737
   4.19577019  4.01149695  5.63431761
   4.18524081  4.04733134 13.22178003
   2.76790080  4.86238137 10.39935148
   2.78663691  4.85007086  3.74886340
   4.20641794  5.65953462  0.95631379
   4.19627241  5.66914275  8.47184210
   2.82662019  6.47076869  5.66301721
   2.77199970  6.43880494 13.19439755
 


--------------------------------------------------------------------------------------------------------


 use serial FFT for orbitals x direction half grid
 k-point  1 :   0.0000 0.0000 0.0000  plane waves:   10918

 maximum and minimum number of plane-waves per node :     10918    10918

 maximum number of plane-waves:     10918
 maximum index in each direction: 
   IXMAX=   15   IYMAX=   25   IZMAX=   13
   IXMIN=    0   IYMIN=  -25   IZMIN=  -15

 The following grids will avoid any aliasing or wrap around errors in the Hartre
 e energy
  - symmetry arguments have not been applied
  - exchange correlation energies might require even more grid points
  - we recommend to set PREC=Normal or Accurate and rely on VASP defaults
 NGX is ok and might be reduce to    64
 NGY is ok and might be reduce to   108
 NGZ is ok and might be reduce to    60

 serial   3D FFT for wavefunctions
 parallel 3D FFT for charge:
    minimum data exchange during FFTs selected (reduces bandwidth)


 total amount of memory used by VASP MPI-rank0   145399. kBytes
=======================================================================

   base      :      30000. kBytes
   nonlr-proj:      39859. kBytes
   fftplans  :       9349. kBytes
   grid      :      55332. kBytes
   one-center:       1368. kBytes
   wavefun   :       9491. kBytes
 
     INWAV:  cpu time    0.0000: real time    0.0000
 Broyden mixing: mesh for mixing (old mesh)
   NGX = 31   NGY = 51   NGZ = 31
  (NGX  =128   NGY  =216   NGZ  =128)
  gives a total of  49011 points

 initial charge density was supplied:
 charge density of overlapping atoms calculated
 number of electron     615.0000000 magnetization      67.5000000
 keeping initial charge density in first step


--------------------------------------------------------------------------------------------------------


 Maximum index for non-local projection operator         6698
 Maximum index for augmentation-charges         1101 (set IRDMAX)


--------------------------------------------------------------------------------------------------------


 First call to EWALD:  gamma=   0.186
 Maximum number of real-space cells 3x 2x 3
 Maximum number of reciprocal cells 2x 4x 2

    FEWALD:  cpu time    0.0032: real time    0.0032


--------------------------------------- Iteration      1(   1)  ---------------------------------------


    POTLOK:  cpu time    0.2657: real time    0.3212
    SETDIJ:  cpu time    0.0289: real time    0.0290
     EDDAV:  cpu time    5.0138: real time    5.0520
    --------------------------------------------
      LOOP:  cpu time    5.3089: real time    5.4027

 eigenvalue-minimisations  :  1664
 total energy-change (2. order) : 0.1102438E+05  (-0.2803060E+05)
 number of electron     615.0000000 magnetization      67.5000000
 augmentation part      615.0000000 magnetization      67.5000000

 Free energy of the ion-electron system (eV)
  ---------------------------------------------------
  alpha Z        PSCENC =      1910.97222159
  Ewald energy   TEWEN  =    -35396.89251313
  -Hartree energ DENC   =    -19708.74081805
  -exchange      EXHF   =         0.00000000
  -V(xc)+E(xc)   XCENC  =      2494.39943810
  PAW double counting   =     45216.04084387   -47205.31274247
  entropy T*S    EENTRO =        -0.02495946
  eigenvalues    EBANDS =      9971.24735192
  atomic energy  EATOM  =     53742.69348082
  Solvation  Ediel_sol  =         0.00000000
  ---------------------------------------------------
  free energy    TOTEN  =     11024.38230318 eV

  energy without entropy =    11024.40726264  energy(sigma->0) =    11024.39478291


--------------------------------------------------------------------------------------------------------




--------------------------------------- Iteration      1(   2)  ---------------------------------------


     EDDAV:  cpu time    4.7287: real time    4.7400
    --------------------------------------------
      LOOP:  cpu time    4.7285: real time    4.7398

 eigenvalue-minimisations  :  1776
 total energy-change (2. order) :-0.8951792E+04  (-0.8078958E+04)
 number of electron     615.0000000 magnetization      67.5000000
 augmentation part      615.0000000 magnetization      67.5000000

 Free energy of the ion-electron system (eV)
  ---------------------------------------------------
  alpha Z        PSCENC =      1910.97222159
  Ewald energy   TEWEN  =    -35396.89251313
  -Hartree energ DENC   =    -19708.74081805
  -exchange      EXHF   =         0.00000000
  -V(xc)+E(xc)   XCENC  =      2494.39943810
  PAW double counting   =     45216.04084387   -47205.31274247
  entropy T*S    EENTRO =        -0.03239088
  eigenvalues    EBANDS =      1019.46326518
  atomic energy  EATOM  =     53742.69348082
  Solvation  Ediel_sol  =         0.00000000
  ---------------------------------------------------
  free energy    TOTEN  =      2072.59078503 eV

  energy without entropy =     2072.62317591  energy(sigma->0) =     2072.60698047


--------------------------------------------------------------------------------------------------------




--------------------------------------- Iteration      1(   3)  ---------------------------------------


     EDDAV:  cpu time    4.8349: real time    4.8464
    --------------------------------------------
      LOOP:  cpu time    4.8349: real time    4.8465

 eigenvalue-minimisations  :  1824
 total energy-change (2. order) :-0.2418170E+04  (-0.2043074E+04)
 number of electron     615.0000000 magnetization      67.5000000
 augmentation part      615.0000000 magnetization      67.5000000

 Free energy of the ion-electron system (eV)
  ---------------------------------------------------
  alpha Z        PSCENC =      1910.97222159
  Ewald energy   TEWEN  =    -35396.89251313
  -Hartree energ DENC   =    -19708.74081805
  -exchange      EXHF   =         0.00000000
  -V(xc)+E(xc)   XCENC  =      2494.39943810
  PAW double counting   =     45216.04084387   -47205.31274247
  entropy T*S    EENTRO =        -0.13899005
  eigenvalues    EBANDS =     -1398.59975711
  atomic energy  EATOM  =     53742.69348082
  Solvation  Ediel_sol  =         0.00000000
  ---------------------------------------------------
  free energy    TOTEN  =      -345.57883644 eV

  energy without entropy =     -345.43984639  energy(sigma->0) =     -345.50934142


--------------------------------------------------------------------------------------------------------




--------------------------------------- Iteration      1(   4)  ---------------------------------------


     EDDAV:  cpu time    5.0533: real time    5.0654
    --------------------------------------------
      LOOP:  cpu time    5.0533: real time    5.0654

 eigenvalue-minimisations  :  1936
 total energy-change (2. order) :-0.3727973E+03  (-0.3580994E+03)
 number of electron     615.0000000 magnetization      67.5000000
 augmentation part      615.0000000 magnetization      67.5000000

 Free energy of the ion-electron system (eV)
  ---------------------------------------------------
  alpha Z        PSCENC =      1910.97222159
  Ewald energy   TEWEN  =    -35396.89251313
  -Hartree energ DENC   =    -19708.74081805
  -exchange      EXHF   =         0.00000000
  -V(xc)+E(xc)   XCENC  =      2494.39943810
  PAW double counting   =     45216.04084387   -47205.31274247
  entropy T*S    EENTRO =        -0.26747070
  eigenvalues    EBANDS =     -1771.26853276
  atomic energy  EATOM  =     53742.69348082
  Solvation  Ediel_sol  =         0.00000000
  ---------------------------------------------------
  free energy    TOTEN  =      -718.37609273 eV

  energy without entropy =     -718.10862204  energy(sigma->0) =     -718.24235738


--------------------------------------------------------------------------------------------------------




--------------------------------------- Iteration      1(   5)  ---------------------------------------


     EDDAV:  cpu time    5.7682: real time    5.7819
    CHARGE:  cpu time    0.3547: real time    0.3555
    MIXING:  cpu time    0.0057: real time    0.0057
    --------------------------------------------
      LOOP:  cpu time    6.1282: real time    6.1428

 eigenvalue-minimisations  :  2288
 total energy-change (2. order) :-0.1585058E+02  (-0.1568366E+02)
 number of electron     614.9999963 magnetization      69.0201388
 augmentation part      179.5735592 magnetization      51.2168464

 Broyden mixing:
  rms(total) = 0.16125E+02    rms(broyden)= 0.16124E+02
  rms(prec ) = 0.17895E+02
  weight for this iteration     100.00

 Free energy of the ion-electron system (eV)
  ---------------------------------------------------
  alpha Z        PSCENC =      1910.97222159
  Ewald energy   TEWEN  =    -35396.89251313
  -Hartree energ DENC   =    -19708.74081805
  -exchange      EXHF   =         0.00000000
  -V(xc)+E(xc)   XCENC  =      2494.39943810
  PAW double counting   =     45216.04084387   -47205.31274247
  entropy T*S    EENTRO =        -0.26652041
  eigenvalues    EBANDS =     -1787.12005890
  atomic energy  EATOM  =     53742.69348082
  Solvation  Ediel_sol  =         0.00000000
  ---------------------------------------------------
  free energy    TOTEN  =      -734.22666860 eV

  energy without entropy =     -733.96014818  energy(sigma->0) =     -734.09340839


--------------------------------------------------------------------------------------------------------




--------------------------------------- Iteration      1(   6)  ---------------------------------------


    POTLOK:  cpu time    0.2265: real time    0.2270
    SETDIJ:  cpu time    0.0286: real time    0.0286
     EDDAV:  cpu time    6.3991: real time    6.4143
    CHARGE:  cpu time    0.3415: real time    0.3423
    MIXING:  cpu time    0.0051: real time    0.0051
    --------------------------------------------
      LOOP:  cpu time    7.0007: real time    7.0174

 eigenvalue-minimisations  :  2592
 total energy-change (2. order) :-0.1664506E+03  (-0.1761930E+03)
 number of electron     614.9999976 magnetization      64.9789776
 augmentation part      229.6892018 magnetization      66.1575157

 Broyden mixing:
  rms(total) = 0.31150E+02    rms(broyden)= 0.31149E+02
  rms(prec ) = 0.32619E+02
  weight for this iteration     100.00

 eigenvalues of (default mixing * dielectric matrix)
  average eigenvalue GAMMA=   0.2021
  0.2021

 Free energy of the ion-electron system (eV)
  ---------------------------------------------------
  alpha Z        PSCENC =      1910.97222159
  Ewald energy   TEWEN  =    -35396.89251313
  -Hartree energ DENC   =    -18767.53874521
  -exchange      EXHF   =         0.00000000
  -V(xc)+E(xc)   XCENC  =      2510.46408761
  PAW double counting   =     50084.86346833   -51773.77330762
  entropy T*S    EENTRO =        -0.04202936
  eigenvalues    EBANDS =     -3211.42389556
  atomic energy  EATOM  =     53742.69348082
  Solvation  Ediel_sol  =         0.00000000
  ---------------------------------------------------
  free energy    TOTEN  =      -900.67723253 eV

  energy without entropy =     -900.63520317  energy(sigma->0) =     -900.65621785


--------------------------------------------------------------------------------------------------------




--------------------------------------- Iteration      1(   7)  ---------------------------------------


    POTLOK:  cpu time    0.2255: real time    0.2260
    SETDIJ:  cpu time    0.0285: real time    0.0285
     EDDAV:  cpu time    5.8487: real time    5.8626
    CHARGE:  cpu time    0.3449: real time    0.3457
    MIXING:  cpu time    0.0052: real time    0.0052
    --------------------------------------------
      LOOP:  cpu time    6.4528: real time    6.4681

 eigenvalue-minimisations  :  2304
 total energy-change (2. order) : 0.2002130E+03  (-0.5884440E+02)
 number of electron     614.9999971 magnetization      58.8969702
 augmentation part      220.5677310 magnetization      53.8746805

 Broyden mixing:
  rms(total) = 0.16247E+02    rms(broyden)= 0.16246E+02
  rms(prec ) = 0.17483E+02
  weight for this iteration     100.00

 eigenvalues of (default mixing * dielectric matrix)
  average eigenvalue GAMMA=   0.4878
  0.4878  0.4878

 Free energy of the ion-electron system (eV)
  ---------------------------------------------------
  alpha Z        PSCENC =      1910.97222159
  Ewald energy   TEWEN  =    -35396.89251313
  -Hartree energ DENC   =    -18985.67186759
  -exchange      EXHF   =         0.00000000
  -V(xc)+E(xc)   XCENC  =      2495.07279536
  PAW double counting   =     51687.25175530   -53515.63545985
  entropy T*S    EENTRO =        -0.05719264
  eigenvalues    EBANDS =     -2638.19744619
  atomic energy  EATOM  =     53742.69348082
  Solvation  Ediel_sol  =         0.00000000
  ---------------------------------------------------
  free energy    TOTEN  =      -700.46422633 eV

  energy without entropy =     -700.40703369  energy(sigma->0) =     -700.43563001


--------------------------------------------------------------------------------------------------------




--------------------------------------- Iteration      1(   8)  ---------------------------------------


    POTLOK:  cpu time    0.2259: real time    0.2265
    SETDIJ:  cpu time    0.0285: real time    0.0285
     EDDAV:  cpu time    6.7646: real time    6.7806
    CHARGE:  cpu time    0.3425: real time    0.3433
    MIXING:  cpu time    0.0061: real time    0.0062
    --------------------------------------------
      LOOP:  cpu time    7.3676: real time    7.3851

 eigenvalue-minimisations  :  2752
 total energy-change (2. order) :-0.3817578E+02  (-0.5504164E+02)
 number of electron     614.9999972 magnetization      54.4447751
 augmentation part      203.7569132 magnetization      52.7852201

 Broyden mixing:
  rms(total) = 0.15584E+02    rms(broyden)= 0.15583E+02
  rms(prec ) = 0.21488E+02
  weight for this iteration     100.00

 eigenvalues of (default mixing * dielectric matrix)
  average eigenvalue GAMMA=   0.4483
  0.5689  0.5689  0.2070

 Free energy of the ion-electron system (eV)
  ---------------------------------------------------
  alpha Z        PSCENC =      1910.97222159
  Ewald energy   TEWEN  =    -35396.89251313
  -Hartree energ DENC   =    -19165.90830204
  -exchange      EXHF   =         0.00000000
  -V(xc)+E(xc)   XCENC  =      2479.06797317
  PAW double counting   =     53763.38259115   -55759.17844967
  entropy T*S    EENTRO =        -0.08502467
  eigenvalues    EBANDS =     -2312.69198588
  atomic energy  EATOM  =     53742.69348082
  Solvation  Ediel_sol  =         0.00000000
  ---------------------------------------------------
  free energy    TOTEN  =      -738.64000866 eV

  energy without entropy =     -738.55498399  energy(sigma->0) =     -738.59749633


--------------------------------------------------------------------------------------------------------




--------------------------------------- Iteration      1(   9)  ---------------------------------------


    POTLOK:  cpu time    0.2318: real time    0.2324
    SETDIJ:  cpu time    0.0282: real time    0.0283
     EDDAV:  cpu time    5.9596: real time    5.9737
    CHARGE:  cpu time    0.3409: real time    0.3417
    MIXING:  cpu time    0.0059: real time    0.0059
    --------------------------------------------
      LOOP:  cpu time    6.5664: real time    6.5820

 eigenvalue-minimisations  :  2336
 total energy-change (2. order) : 0.1151096E+03  (-0.3634844E+02)
 number of electron     614.9999963 magnetization      50.2201910
 augmentation part      197.3539996 magnetization      46.3451510

 Broyden mixing:
  rms(total) = 0.12699E+02    rms(broyden)= 0.12698E+02
  rms(prec ) = 0.14097E+02
  weight for this iteration     100.00

 eigenvalues of (default mixing * dielectric matrix)
  average eigenvalue GAMMA=   0.3859
  0.5888  0.5888  0.2265  0.1395

 Free energy of the ion-electron system (eV)
  ---------------------------------------------------
  alpha Z        PSCENC =      1910.97222159
  Ewald energy   TEWEN  =    -35396.89251313
  -Hartree energ DENC   =    -19149.34271259
  -exchange      EXHF   =         0.00000000
  -V(xc)+E(xc)   XCENC  =      2475.22375388
  PAW double counting   =     54875.37480750   -56903.29214499
  entropy T*S    EENTRO =        -0.08676448
  eigenvalues    EBANDS =     -2178.18058259
  atomic energy  EATOM  =     53742.69348082
  Solvation  Ediel_sol  =         0.00000000
  ---------------------------------------------------
  free energy    TOTEN  =      -623.53045400 eV

  energy without entropy =     -623.44368952  energy(sigma->0) =     -623.48707176


--------------------------------------------------------------------------------------------------------




--------------------------------------- Iteration      1(  10)  ---------------------------------------


    POTLOK:  cpu time    0.2253: real time    0.2259
    SETDIJ:  cpu time    0.0284: real time    0.0284
     EDDAV:  cpu time    5.8242: real time    5.8381
    CHARGE:  cpu time    0.3403: real time    0.3411
    MIXING:  cpu time    0.0058: real time    0.0058
    --------------------------------------------
      LOOP:  cpu time    6.4239: real time    6.4393

 eigenvalue-minimisations  :  2272
 total energy-change (2. order) : 0.5287493E+02  (-0.1173014E+02)
 number of electron     614.9999963 magnetization      46.0248304
 augmentation part      200.8689747 magnetization      43.8140614

 Broyden mixing:
  rms(total) = 0.76089E+01    rms(broyden)= 0.76085E+01
  rms(prec ) = 0.84689E+01
  weight for this iteration     100.00

 eigenvalues of (default mixing * dielectric matrix)
  average eigenvalue GAMMA=   0.4131
  0.6434  0.6434  0.3043  0.3043  0.1702

 Free energy of the ion-electron system (eV)
  ---------------------------------------------------
  alpha Z        PSCENC =      1910.97222159
  Ewald energy   TEWEN  =    -35396.89251313
  -Hartree energ DENC   =    -19124.36477183
  -exchange      EXHF   =         0.00000000
  -V(xc)+E(xc)   XCENC  =      2474.81104085
  PAW double counting   =     55915.27883608   -57967.32653245
  entropy T*S    EENTRO =        -0.03426553
  eigenvalues    EBANDS =     -2125.79301693
  atomic energy  EATOM  =     53742.69348082
  Solvation  Ediel_sol  =         0.00000000
  ---------------------------------------------------
  free energy    TOTEN  =      -570.65552054 eV

  energy without entropy =     -570.62125501  energy(sigma->0) =     -570.63838778


--------------------------------------------------------------------------------------------------------




--------------------------------------- Iteration      1(  11)  ---------------------------------------


    POTLOK:  cpu time    0.2258: real time    0.2263
    SETDIJ:  cpu time    0.0292: real time    0.0293
     EDDAV:  cpu time    5.4453: real time    5.4582
    CHARGE:  cpu time    0.3465: real time    0.3473
    MIXING:  cpu time    0.0065: real time    0.0065
    --------------------------------------------
      LOOP:  cpu time    6.0532: real time    6.0676

 eigenvalue-minimisations  :  2048
 total energy-change (2. order) : 0.4659470E+01  (-0.1012885E+02)
 number of electron     614.9999962 magnetization      40.9629471
 augmentation part      201.2726709 magnetization      38.6477516

 Broyden mixing:
  rms(total) = 0.81163E+01    rms(broyden)= 0.81157E+01
  rms(prec ) = 0.10101E+02
  weight for this iteration     100.00

 eigenvalues of (default mixing * dielectric matrix)
  average eigenvalue GAMMA=   0.4555
  0.7940  0.7940  0.4024  0.4024  0.1700  0.1700

 Free energy of the ion-electron system (eV)
  ---------------------------------------------------
  alpha Z        PSCENC =      1910.97222159
  Ewald energy   TEWEN  =    -35396.89251313
  -Hartree energ DENC   =    -19144.97411763
  -exchange      EXHF   =         0.00000000
  -V(xc)+E(xc)   XCENC  =      2477.93180401
  PAW double counting   =     56542.26306170   -58607.02395779
  entropy T*S    EENTRO =        -0.05472085
  eigenvalues    EBANDS =     -2090.91130939
  atomic energy  EATOM  =     53742.69348082
  Solvation  Ediel_sol  =         0.00000000
  ---------------------------------------------------
  free energy    TOTEN  =      -565.99605069 eV

  energy without entropy =     -565.94132984  energy(sigma->0) =     -565.96869026


--------------------------------------------------------------------------------------------------------




--------------------------------------- Iteration      1(  12)  ---------------------------------------


    POTLOK:  cpu time    0.2246: real time    0.2252
    SETDIJ:  cpu time    0.0284: real time    0.0284
     EDDAV:  cpu time    6.2797: real time    6.2946
    CHARGE:  cpu time    0.3473: real time    0.3482
    MIXING:  cpu time    0.0069: real time    0.0069
    --------------------------------------------
      LOOP:  cpu time    6.8869: real time    6.9032

 eigenvalue-minimisations  :  2496
 total energy-change (2. order) : 0.3156544E+02  (-0.8713168E+01)
 number of electron     614.9999963 magnetization      36.2771075
 augmentation part      201.6402027 magnetization      32.9033922

 Broyden mixing:
  rms(total) = 0.55204E+01    rms(broyden)= 0.55197E+01
  rms(prec ) = 0.64795E+01
  weight for this iteration     100.00

 eigenvalues of (default mixing * dielectric matrix)
  average eigenvalue GAMMA=   0.4523
  0.8193  0.8193  0.4517  0.4517  0.3052  0.1773  0.1416

 Free energy of the ion-electron system (eV)
  ---------------------------------------------------
  alpha Z        PSCENC =      1910.97222159
  Ewald energy   TEWEN  =    -35396.89251313
  -Hartree energ DENC   =    -19169.47908898
  -exchange      EXHF   =         0.00000000
  -V(xc)+E(xc)   XCENC  =      2481.94130815
  PAW double counting   =     57042.77935720   -59107.40547631
  entropy T*S    EENTRO =        -0.05858515
  eigenvalues    EBANDS =     -2038.98131544
  atomic energy  EATOM  =     53742.69348082
  Solvation  Ediel_sol  =         0.00000000
  ---------------------------------------------------
  free energy    TOTEN  =      -534.43061126 eV

  energy without entropy =     -534.37202610  energy(sigma->0) =     -534.40131868


--------------------------------------------------------------------------------------------------------




--------------------------------------- Iteration      1(  13)  ---------------------------------------


    POTLOK:  cpu time    0.2274: real time    0.2280
    SETDIJ:  cpu time    0.0311: real time    0.0312
     EDDAV:  cpu time    6.0954: real time    6.1099
    CHARGE:  cpu time    0.3398: real time    0.3407
    MIXING:  cpu time    0.0066: real time    0.0066
    --------------------------------------------
      LOOP:  cpu time    6.7004: real time    6.7164

 eigenvalue-minimisations  :  2400
 total energy-change (2. order) : 0.6677379E+01  (-0.4204230E+01)
 number of electron     614.9999963 magnetization      30.4428557
 augmentation part      200.8900671 magnetization      27.3008227

 Broyden mixing:
  rms(total) = 0.44898E+01    rms(broyden)= 0.44893E+01
  rms(prec ) = 0.52789E+01
  weight for this iteration     100.00

 eigenvalues of (default mixing * dielectric matrix)
  average eigenvalue GAMMA=   0.4422
  0.8388  0.8388  0.4768  0.4768  0.3576  0.2381  0.1552  0.1552

 Free energy of the ion-electron system (eV)
  ---------------------------------------------------
  alpha Z        PSCENC =      1910.97222159
  Ewald energy   TEWEN  =    -35396.89251313
  -Hartree energ DENC   =    -19192.58734524
  -exchange      EXHF   =         0.00000000
  -V(xc)+E(xc)   XCENC  =      2483.85148699
  PAW double counting   =     57788.26351562   -59866.90197528
  entropy T*S    EENTRO =        -0.03517802
  eigenvalues    EBANDS =     -1997.11692576
  atomic energy  EATOM  =     53742.69348082
  Solvation  Ediel_sol  =         0.00000000
  ---------------------------------------------------
  free energy    TOTEN  =      -527.75323241 eV

  energy without entropy =     -527.71805440  energy(sigma->0) =     -527.73564340


--------------------------------------------------------------------------------------------------------




--------------------------------------- Iteration      1(  14)  ---------------------------------------


    POTLOK:  cpu time    0.2247: real time    0.2253
    SETDIJ:  cpu time    0.0283: real time    0.0284
     EDDAV:  cpu time    6.0030: real time    6.0173
    CHARGE:  cpu time    0.3503: real time    0.3512
    MIXING:  cpu time    0.0078: real time    0.0078
    --------------------------------------------
      LOOP:  cpu time    6.6142: real time    6.6299

 eigenvalue-minimisations  :  2352
 total energy-change (2. order) : 0.7622419E+01  (-0.2374638E+01)
 number of electron     614.9999962 magnetization      24.6890525
 augmentation part      203.0361399 magnetization      20.7490643

 Broyden mixing:
  rms(total) = 0.25980E+01    rms(broyden)= 0.25975E+01
  rms(prec ) = 0.30683E+01
  weight for this iteration     100.00

 eigenvalues of (default mixing * dielectric matrix)
  average eigenvalue GAMMA=   0.4911
  1.2669  0.6425  0.6425  0.5532  0.4073  0.4073  0.1847  0.1620  0.1535

 Free energy of the ion-electron system (eV)
  ---------------------------------------------------
  alpha Z        PSCENC =      1910.97222159
  Ewald energy   TEWEN  =    -35396.89251313
  -Hartree energ DENC   =    -19193.23664144
  -exchange      EXHF   =         0.00000000
  -V(xc)+E(xc)   XCENC  =      2484.60950688
  PAW double counting   =     58596.67537514   -60679.61648698
  entropy T*S    EENTRO =        -0.02949530
  eigenvalues    EBANDS =     -1985.30626075
  atomic energy  EATOM  =     53742.69348082
  Solvation  Ediel_sol  =         0.00000000
  ---------------------------------------------------
  free energy    TOTEN  =      -520.13081318 eV

  energy without entropy =     -520.10131788  energy(sigma->0) =     -520.11606553


--------------------------------------------------------------------------------------------------------




--------------------------------------- Iteration      1(  15)  ---------------------------------------


    POTLOK:  cpu time    0.2319: real time    0.2324
    SETDIJ:  cpu time    0.0301: real time    0.0301
     EDDAV:  cpu time    5.9714: real time    5.9856
    CHARGE:  cpu time    0.3413: real time    0.3421
    MIXING:  cpu time    0.0071: real time    0.0071
    --------------------------------------------
      LOOP:  cpu time    6.5818: real time    6.5974

 eigenvalue-minimisations  :  2352
 total energy-change (2. order) :-0.5242840E+01  (-0.2560738E+01)
 number of electron     614.9999962 magnetization      23.7153359
 augmentation part      203.0171003 magnetization      20.0239960

 Broyden mixing:
  rms(total) = 0.30039E+01    rms(broyden)= 0.30034E+01
  rms(prec ) = 0.33348E+01
  weight for this iteration     100.00

 eigenvalues of (default mixing * dielectric matrix)
  average eigenvalue GAMMA=   0.4720
  1.3282  0.6456  0.6456  0.5410  0.4207  0.4207  0.2008  0.2008  0.1583  0.1583

 Free energy of the ion-electron system (eV)
  ---------------------------------------------------
  alpha Z        PSCENC =      1910.97222159
  Ewald energy   TEWEN  =    -35396.89251313
  -Hartree energ DENC   =    -19216.71193917
  -exchange      EXHF   =         0.00000000
  -V(xc)+E(xc)   XCENC  =      2483.14004583
  PAW double counting   =     59290.98372111   -61379.97678159
  entropy T*S    EENTRO =        -0.04410064
  eigenvalues    EBANDS =     -1959.53778848
  atomic energy  EATOM  =     53742.69348082
  Solvation  Ediel_sol  =         0.00000000
  ---------------------------------------------------
  free energy    TOTEN  =      -525.37365365 eV

  energy without entropy =     -525.32955301  energy(sigma->0) =     -525.35160333


--------------------------------------------------------------------------------------------------------




--------------------------------------- Iteration      1(  16)  ---------------------------------------


    POTLOK:  cpu time    0.2250: real time    0.2255
    SETDIJ:  cpu time    0.0295: real time    0.0296
     EDDAV:  cpu time    6.3780: real time    6.3931
    CHARGE:  cpu time    0.3446: real time    0.3454
    MIXING:  cpu time    0.0074: real time    0.0074
    --------------------------------------------
      LOOP:  cpu time    6.9845: real time    7.0011

 eigenvalue-minimisations  :  2464
 total energy-change (2. order) : 0.1386156E+00  (-0.8645282E+00)
 number of electron     614.9999963 magnetization      23.1584570
 augmentation part      202.8066388 magnetization      19.0711610

 Broyden mixing:
  rms(total) = 0.20011E+01    rms(broyden)= 0.20008E+01
  rms(prec ) = 0.21224E+01
  weight for this iteration     100.00

 eigenvalues of (default mixing * dielectric matrix)
  average eigenvalue GAMMA=   0.4757
  1.3956  0.6582  0.6582  0.4946  0.4946  0.3899  0.3899  0.2304  0.2075  0.1571
  0.1571

 Free energy of the ion-electron system (eV)
  ---------------------------------------------------
  alpha Z        PSCENC =      1910.97222159
  Ewald energy   TEWEN  =    -35396.89251313
  -Hartree energ DENC   =    -19220.45612680
  -exchange      EXHF   =         0.00000000
  -V(xc)+E(xc)   XCENC  =      2482.07426383
  PAW double counting   =     59372.78717476   -61462.85979276
  entropy T*S    EENTRO =        -0.04010583
  eigenvalues    EBANDS =     -1953.51364053
  atomic energy  EATOM  =     53742.69348082
  Solvation  Ediel_sol  =         0.00000000
  ---------------------------------------------------
  free energy    TOTEN  =      -525.23503805 eV

  energy without entropy =     -525.19493222  energy(sigma->0) =     -525.21498513


--------------------------------------------------------------------------------------------------------




--------------------------------------- Iteration      1(  17)  ---------------------------------------


    POTLOK:  cpu time    0.2245: real time    0.2251
    SETDIJ:  cpu time    0.0284: real time    0.0285
     EDDAV:  cpu time    5.8185: real time    5.8323
    CHARGE:  cpu time    0.3452: real time    0.3460
    MIXING:  cpu time    0.0078: real time    0.0079
    --------------------------------------------
      LOOP:  cpu time    6.4245: real time    6.4398

 eigenvalue-minimisations  :  2256
 total energy-change (2. order) :-0.4184415E+01  (-0.9465212E+00)
 number of electron     614.9999961 magnetization      21.8617602
 augmentation part      202.5735245 magnetization      18.6512753

 Broyden mixing:
  rms(total) = 0.24884E+01    rms(broyden)= 0.24881E+01
  rms(prec ) = 0.27456E+01
  weight for this iteration     100.00

 eigenvalues of (default mixing * dielectric matrix)
  average eigenvalue GAMMA=   0.4713
  1.3669  0.7087  0.7087  0.5567  0.5567  0.3862  0.3862  0.3475  0.1919  0.1579
  0.1579  0.1306

 Free energy of the ion-electron system (eV)
  ---------------------------------------------------
  alpha Z        PSCENC =      1910.97222159
  Ewald energy   TEWEN  =    -35396.89251313
  -Hartree energ DENC   =    -19215.84782335
  -exchange      EXHF   =         0.00000000
  -V(xc)+E(xc)   XCENC  =      2480.18359090
  PAW double counting   =     59380.29467711   -61469.11482692
  entropy T*S    EENTRO =        -0.03377024
  eigenvalues    EBANDS =     -1961.67448964
  atomic energy  EATOM  =     53742.69348082
  Solvation  Ediel_sol  =         0.00000000
  ---------------------------------------------------
  free energy    TOTEN  =      -529.41945287 eV

  energy without entropy =     -529.38568262  energy(sigma->0) =     -529.40256775


--------------------------------------------------------------------------------------------------------




--------------------------------------- Iteration      1(  18)  ---------------------------------------


    POTLOK:  cpu time    0.2336: real time    0.2341
    SETDIJ:  cpu time    0.0304: real time    0.0305
     EDDAV:  cpu time    5.7289: real time    5.7425
    CHARGE:  cpu time    0.3460: real time    0.3469
    MIXING:  cpu time    0.0080: real time    0.0081
    --------------------------------------------
      LOOP:  cpu time    6.3469: real time    6.3621

 eigenvalue-minimisations  :  2240
 total energy-change (2. order) :-0.2166788E+01  (-0.4396768E+00)
 number of electron     614.9999962 magnetization      19.4404480
 augmentation part      202.3698447 magnetization      15.5645230

 Broyden mixing:
  rms(total) = 0.19816E+01    rms(broyden)= 0.19815E+01
  rms(prec ) = 0.21658E+01
  weight for this iteration     100.00

 eigenvalues of (default mixing * dielectric matrix)
  average eigenvalue GAMMA=   0.4998
  1.3812  0.9358  0.9358  0.5943  0.5943  0.4016  0.4016  0.4037  0.1858  0.1576
  0.1576  0.1741  0.1741

 Free energy of the ion-electron system (eV)
  ---------------------------------------------------
  alpha Z        PSCENC =      1910.97222159
  Ewald energy   TEWEN  =    -35396.89251313
  -Hartree energ DENC   =    -19214.74012357
  -exchange      EXHF   =         0.00000000
  -V(xc)+E(xc)   XCENC  =      2478.79192255
  PAW double counting   =     59472.07287770   -61561.31292976
  entropy T*S    EENTRO =        -0.02773483
  eigenvalues    EBANDS =     -1963.14344177
  atomic energy  EATOM  =     53742.69348082
  Solvation  Ediel_sol  =         0.00000000
  ---------------------------------------------------
  free energy    TOTEN  =      -531.58624041 eV

  energy without entropy =     -531.55850558  energy(sigma->0) =     -531.57237299


--------------------------------------------------------------------------------------------------------




--------------------------------------- Iteration      1(  19)  ---------------------------------------


    POTLOK:  cpu time    0.2246: real time    0.2252
    SETDIJ:  cpu time    0.0286: real time    0.0287
     EDDAV:  cpu time    5.9841: real time    5.9983
    CHARGE:  cpu time    0.3448: real time    0.3456
    MIXING:  cpu time    0.0082: real time    0.0082
    --------------------------------------------
      LOOP:  cpu time    6.5903: real time    6.6060

 eigenvalue-minimisations  :  2320
 total energy-change (2. order) :-0.5701984E+01  (-0.6709916E+00)
 number of electron     614.9999962 magnetization      17.3307476
 augmentation part      202.2609674 magnetization      13.9141055

 Broyden mixing:
  rms(total) = 0.18772E+01    rms(broyden)= 0.18770E+01
  rms(prec ) = 0.20647E+01
  weight for this iteration     100.00

 eigenvalues of (default mixing * dielectric matrix)
  average eigenvalue GAMMA=   0.5161
  1.4067  1.0963  1.0963  0.6022  0.6022  0.4141  0.4141  0.4451  0.2969  0.2016
  0.2016  0.1572  0.1572  0.1339

 Free energy of the ion-electron system (eV)
  ---------------------------------------------------
  alpha Z        PSCENC =      1910.97222159
  Ewald energy   TEWEN  =    -35396.89251313
  -Hartree energ DENC   =    -19200.01972110
  -exchange      EXHF   =         0.00000000
  -V(xc)+E(xc)   XCENC  =      2475.51052690
  PAW double counting   =     59655.46625962   -61743.10945463
  entropy T*S    EENTRO =        -0.01133905
  eigenvalues    EBANDS =     -1981.89768554
  atomic energy  EATOM  =     53742.69348082
  Solvation  Ediel_sol  =         0.00000000
  ---------------------------------------------------
  free energy    TOTEN  =      -537.28822453 eV

  energy without entropy =     -537.27688548  energy(sigma->0) =     -537.28255500


--------------------------------------------------------------------------------------------------------




--------------------------------------- Iteration      1(  20)  ---------------------------------------


    POTLOK:  cpu time    0.2249: real time    0.2254
    SETDIJ:  cpu time    0.0287: real time    0.0288
     EDDAV:  cpu time    5.9889: real time    6.0031
    CHARGE:  cpu time    0.3449: real time    0.3457
    MIXING:  cpu time    0.0085: real time    0.0085
    --------------------------------------------
      LOOP:  cpu time    6.5958: real time    6.6115

 eigenvalue-minimisations  :  2336
 total energy-change (2. order) :-0.4071332E+01  (-0.6700042E+00)
 number of electron     614.9999962 magnetization      14.7396517
 augmentation part      202.4717004 magnetization      11.7304161

 Broyden mixing:
  rms(total) = 0.15021E+01    rms(broyden)= 0.15019E+01
  rms(prec ) = 0.16607E+01
  weight for this iteration     100.00

 eigenvalues of (default mixing * dielectric matrix)
  average eigenvalue GAMMA=   0.5439
  1.4407  1.2435  1.2435  0.6897  0.6897  0.4910  0.4910  0.4186  0.4186  0.1982
  0.1982  0.1662  0.1662  0.1546  0.1484

 Free energy of the ion-electron system (eV)
  ---------------------------------------------------
  alpha Z        PSCENC =      1910.97222159
  Ewald energy   TEWEN  =    -35396.89251313
  -Hartree energ DENC   =    -19184.73596866
  -exchange      EXHF   =         0.00000000
  -V(xc)+E(xc)   XCENC  =      2473.22443514
  PAW double counting   =     59781.88683450   -61866.91090448
  entropy T*S    EENTRO =        -0.02034921
  eigenvalues    EBANDS =     -2001.57679329
  atomic energy  EATOM  =     53742.69348082
  Solvation  Ediel_sol  =         0.00000000
  ---------------------------------------------------
  free energy    TOTEN  =      -541.35955673 eV

  energy without entropy =     -541.33920752  energy(sigma->0) =     -541.34938213


--------------------------------------------------------------------------------------------------------




--------------------------------------- Iteration      1(  21)  ---------------------------------------


    POTLOK:  cpu time    0.2253: real time    0.2259
    SETDIJ:  cpu time    0.0298: real time    0.0299
     EDDAV:  cpu time    5.7370: real time    5.7506
    CHARGE:  cpu time    0.3595: real time    0.3603
    MIXING:  cpu time    0.0094: real time    0.0094
    --------------------------------------------
      LOOP:  cpu time    6.3610: real time    6.3761

 eigenvalue-minimisations  :  2224
 total energy-change (2. order) :-0.2914699E+01  (-0.4798076E+00)
 number of electron     614.9999962 magnetization      13.5820799
 augmentation part      202.5396608 magnetization      10.9881775

 Broyden mixing:
  rms(total) = 0.11019E+01    rms(broyden)= 0.11018E+01
  rms(prec ) = 0.12570E+01
  weight for this iteration     100.00

 eigenvalues of (default mixing * dielectric matrix)
  average eigenvalue GAMMA=   0.5513
  1.2485  1.2485  1.1758  0.7386  0.7386  0.6557  0.6557  0.4872  0.4129  0.4129
  0.2121  0.1899  0.1899  0.1566  0.1566  0.1421

 Free energy of the ion-electron system (eV)
  ---------------------------------------------------
  alpha Z        PSCENC =      1910.97222159
  Ewald energy   TEWEN  =    -35396.89251313
  -Hartree energ DENC   =    -19176.71714324
  -exchange      EXHF   =         0.00000000
  -V(xc)+E(xc)   XCENC  =      2471.74198109
  PAW double counting   =     59914.87968723   -61999.16562550
  entropy T*S    EENTRO =        -0.02717440
  eigenvalues    EBANDS =     -2011.75917008
  atomic energy  EATOM  =     53742.69348082
  Solvation  Ediel_sol  =         0.00000000
  ---------------------------------------------------
  free energy    TOTEN  =      -544.27425564 eV

  energy without entropy =     -544.24708124  energy(sigma->0) =     -544.26066844


--------------------------------------------------------------------------------------------------------




--------------------------------------- Iteration      1(  22)  ---------------------------------------


    POTLOK:  cpu time    0.2361: real time    0.2366
    SETDIJ:  cpu time    0.0291: real time    0.0292
     EDDAV:  cpu time    5.3558: real time    5.3685
    CHARGE:  cpu time    0.3419: real time    0.3427
    MIXING:  cpu time    0.0091: real time    0.0091
    --------------------------------------------
      LOOP:  cpu time    5.9720: real time    5.9861

 eigenvalue-minimisations  :  2032
 total energy-change (2. order) :-0.7641430E+00  (-0.1973480E+00)
 number of electron     614.9999962 magnetization      11.2418838
 augmentation part      202.5925463 magnetization       8.7381402

 Broyden mixing:
  rms(total) = 0.91404E+00    rms(broyden)= 0.91393E+00
  rms(prec ) = 0.10326E+01
  weight for this iteration     100.00

 eigenvalues of (default mixing * dielectric matrix)
  average eigenvalue GAMMA=   0.5892
  1.6543  1.6543  1.0850  1.0850  0.6534  0.6534  0.6445  0.4725  0.4163  0.4163
  0.2489  0.2015  0.2015  0.1743  0.1568  0.1568  0.1426

 Free energy of the ion-electron system (eV)
  ---------------------------------------------------
  alpha Z        PSCENC =      1910.97222159
  Ewald energy   TEWEN  =    -35396.89251313
  -Hartree energ DENC   =    -19176.66359239
  -exchange      EXHF   =         0.00000000
  -V(xc)+E(xc)   XCENC  =      2471.57344029
  PAW double counting   =     59959.26684731   -62043.85630423
  entropy T*S    EENTRO =        -0.03126447
  eigenvalues    EBANDS =     -2012.10071439
  atomic energy  EATOM  =     53742.69348082
  Solvation  Ediel_sol  =         0.00000000
  ---------------------------------------------------
  free energy    TOTEN  =      -545.03839861 eV

  energy without entropy =     -545.00713413  energy(sigma->0) =     -545.02276637


--------------------------------------------------------------------------------------------------------




--------------------------------------- Iteration      1(  23)  ---------------------------------------


    POTLOK:  cpu time    0.2246: real time    0.2252
    SETDIJ:  cpu time    0.0285: real time    0.0286
     EDDAV:  cpu time    5.5833: real time    5.5966
    CHARGE:  cpu time    0.3707: real time    0.3716
    MIXING:  cpu time    0.0101: real time    0.0101
    --------------------------------------------
      LOOP:  cpu time    6.2172: real time    6.2320

 eigenvalue-minimisations  :  2112
 total energy-change (2. order) :-0.4071532E+00  (-0.1577661E+00)
 number of electron     614.9999963 magnetization       9.6734947
 augmentation part      202.8111996 magnetization       7.4568298

 Broyden mixing:
  rms(total) = 0.65390E+00    rms(broyden)= 0.65377E+00
  rms(prec ) = 0.75351E+00
  weight for this iteration     100.00

 eigenvalues of (default mixing * dielectric matrix)
  average eigenvalue GAMMA=   0.6113
  1.9620  1.9620  1.0353  1.0353  0.7016  0.7016  0.5750  0.5750  0.4158  0.4158
  0.3952  0.2167  0.1920  0.1920  0.1424  0.1566  0.1566  0.1725

 Free energy of the ion-electron system (eV)
  ---------------------------------------------------
  alpha Z        PSCENC =      1910.97222159
  Ewald energy   TEWEN  =    -35396.89251313
  -Hartree energ DENC   =    -19167.16505136
  -exchange      EXHF   =         0.00000000
  -V(xc)+E(xc)   XCENC  =      2471.02829591
  PAW double counting   =     60063.68596205   -62147.65824341
  entropy T*S    EENTRO =        -0.04144838
  eigenvalues    EBANDS =     -2022.06825590
  atomic energy  EATOM  =     53742.69348082
  Solvation  Ediel_sol  =         0.00000000
  ---------------------------------------------------
  free energy    TOTEN  =      -545.44555182 eV

  energy without entropy =     -545.40410344  energy(sigma->0) =     -545.42482763


--------------------------------------------------------------------------------------------------------




--------------------------------------- Iteration      1(  24)  ---------------------------------------


    POTLOK:  cpu time    0.2262: real time    0.2268
    SETDIJ:  cpu time    0.0288: real time    0.0289
     EDDAV:  cpu time    5.7000: real time    5.7135
    CHARGE:  cpu time    0.3530: real time    0.3539
    MIXING:  cpu time    0.0105: real time    0.0105
    --------------------------------------------
      LOOP:  cpu time    6.3185: real time    6.3335

 eigenvalue-minimisations  :  2208
 total energy-change (2. order) : 0.1430530E-01  (-0.5775037E-01)
 number of electron     614.9999963 magnetization       9.0760864
 augmentation part      202.6385723 magnetization       7.0929771

 Broyden mixing:
  rms(total) = 0.56456E+00    rms(broyden)= 0.56447E+00
  rms(prec ) = 0.62912E+00
  weight for this iteration     100.00

 eigenvalues of (default mixing * dielectric matrix)
  average eigenvalue GAMMA=   0.6124
  2.4064  1.6774  1.0827  1.0827  0.7453  0.7453  0.5824  0.5824  0.4143  0.4143
  0.3776  0.3010  0.2135  0.1925  0.1925  0.1424  0.1568  0.1568  0.1701

 Free energy of the ion-electron system (eV)
  ---------------------------------------------------
  alpha Z        PSCENC =      1910.97222159
  Ewald energy   TEWEN  =    -35396.89251313
  -Hartree energ DENC   =    -19164.55250391
  -exchange      EXHF   =         0.00000000
  -V(xc)+E(xc)   XCENC  =      2470.77360330
  PAW double counting   =     60117.25109500   -62202.24556996
  entropy T*S    EENTRO =        -0.04183163
  eigenvalues    EBANDS =     -2023.38922861
  atomic energy  EATOM  =     53742.69348082
  Solvation  Ediel_sol  =         0.00000000
  ---------------------------------------------------
  free energy    TOTEN  =      -545.43124653 eV

  energy without entropy =     -545.38941490  energy(sigma->0) =     -545.41033071


[...]
   -.271E+02 0.549E+01 -.347E+03   0.300E+02 -.640E+01 0.369E+03   -.295E+01 0.894E+00 -.222E+02   -.280E-01 0.107E-01 0.204E-01
   0.851E+01 -.141E+02 0.374E+03   -.930E+01 0.139E+02 -.400E+03   0.804E+00 0.192E+00 0.269E+02   -.141E-01 -.166E-01 -.428E-01
   -.982E+01 -.727E+01 -.389E+03   0.969E+01 0.718E+01 0.415E+03   0.136E+00 0.997E-01 -.264E+02   0.940E-02 -.471E-02 -.878E-01
   -.139E+01 -.121E+02 0.389E+03   0.138E+01 0.120E+02 -.415E+03   0.184E-01 0.167E+00 0.264E+02   -.878E-02 0.578E-02 0.878E-01
   0.992E+01 -.467E+01 -.368E+03   -.972E+01 0.449E+01 0.395E+03   -.206E+00 0.175E+00 -.268E+02   -.273E-02 0.616E-02 0.435E-01
   -.242E+02 -.151E+02 0.342E+03   0.267E+02 0.165E+02 -.364E+03   -.252E+01 -.141E+01 0.218E+02   0.645E-02 0.702E-03 0.569E-02
   -.100E+01 -.285E+02 -.342E+03   0.967E+00 0.314E+02 0.364E+03   0.402E-01 -.289E+01 -.218E+02   -.262E-02 0.594E-02 -.569E-02
   -.901E+01 0.626E+01 0.368E+03   0.875E+01 -.617E+01 -.395E+03   0.255E+00 -.906E-01 0.268E+02   0.670E-02 0.716E-03 -.435E-01
   -.362E+02 0.201E+02 -.355E+03   0.387E+02 -.215E+02 0.377E+03   -.250E+01 0.140E+01 -.223E+02   0.189E-01 -.386E-01 -.413E-01
   -.102E+02 0.587E+01 0.380E+03   0.996E+01 -.570E+01 -.407E+03   0.211E+00 -.170E+00 0.268E+02   0.231E-01 -.137E-02 0.895E-01
   -.792E+01 0.144E+02 -.374E+03   0.868E+01 -.143E+02 0.401E+03   -.784E+00 -.155E+00 -.269E+02   0.178E-01 0.251E-01 0.354E-01
   0.933E+00 0.383E+02 0.346E+03   -.129E+01 -.418E+02 -.369E+03   0.321E+00 0.353E+01 0.222E+02   0.406E-01 -.291E-01 -.394E-01
   0.181E+02 0.193E+02 -.345E+03   -.199E+02 -.209E+02 0.367E+03   0.180E+01 0.160E+01 -.221E+02   0.143E-01 -.260E-01 0.712E-02
   -.263E+02 -.683E+01 0.344E+03   0.285E+02 0.753E+01 -.367E+03   -.223E+01 -.710E+00 0.225E+02   0.284E-02 0.135E-01 -.292E-01
 -----------------------------------------------------------------------------------------------
   -.297E-01 -.537E-01 0.361E-03   -.391E-12 0.398E-12 0.227E-12   0.345E-01 0.598E-01 0.355E-14   -.148E-02 -.257E-02 -.356E-07
 
 
 POSITION                                       TOTAL-FORCE (eV/Angst)
 -----------------------------------------------------------------------------------
      4.19701      7.25193      7.06880         0.000242     -0.014387     -0.003071
      1.40436      0.81431     11.78609         0.006014      0.002009     -0.005382
     -0.01555      1.63443      2.34845        -0.012760      0.013334     -0.006348
     -0.01787      4.83976      7.07234        -0.012581     -0.006984      0.003071
      1.41995      5.65128     11.79269         0.017927     -0.004384      0.006348
     -0.00024      6.47090      2.35505        -0.001267      0.006213      0.005382
      4.19268      2.41771      7.06980         0.001560      0.002702     -0.000000
      4.18697      7.26055     14.12928        -0.000007     -0.007132      0.003177
      1.41100      0.80727      4.70653         0.004764      0.003765     -0.008344
     -0.00727      1.62690      9.42096        -0.008436      0.004851      0.011770
      6.98787      2.42706     14.09340        -0.003925      0.002551      0.013728
     -0.00206      3.22979      4.71025        -0.000021      0.000280     -0.008703
     -1.40664      4.03673      9.46701        -0.001485      0.000249      0.000338
     -2.79683      4.85018      0.00103         0.000367      0.000636      0.000000
     -1.41326      5.65516      4.71975        -0.012045     -0.006965     -0.013932
     -2.79408      6.45238      9.42295        -0.000009     -0.013914      0.013932
     -1.40105      7.26774      0.00103        -0.000496     -0.000859      0.000000
      4.19676      0.80844      4.71765        -0.000357      0.002046     -0.007191
      2.79697      1.61662      9.42195         0.001950      0.000713      0.007191
      1.40047      2.43544     14.12903         0.006062      0.005028      0.003663
      2.78856      3.23295      4.67520        -0.003488      0.001215      0.003356
      1.40406      4.02858      9.43261         0.005497     -0.005418      0.007393
     -0.00539      4.83537      0.01187        -0.006173     -0.003572     -0.003177
      1.40929      5.65468      4.72018         0.008419     -0.004881     -0.011770
     -0.00966      6.47313      9.43461         0.000879      0.006008      0.008344
      5.60413      0.00845      0.01056         0.001323      0.007764     -0.003663
      6.98204      0.80813      4.70699        -0.007440      0.002052     -0.007393
      5.60076      1.60932      9.46440         0.002796     -0.002413     -0.003356
      4.19561      2.41980     -0.00052         0.000363      0.000629      0.000000
      5.60245      3.23317      4.67563         0.002067      0.003606      0.004716
      4.19400      4.04634      9.46396         0.002089      0.003593     -0.004716
      2.80317      4.84309      0.04619         0.004172     -0.002123     -0.013728
      4.19595      5.64771      4.67414         0.000958     -0.001161     -0.000338
      2.79483      6.46064      9.43089         0.000253      0.000121      0.008703
      0.03038      0.01744     10.38539         0.005165      0.000805      0.012766
     -0.00151      0.03494      3.73974        -0.001421      0.000983     -0.010935
      1.36396      0.82644      0.95293         0.000799      0.000873      0.005516
      1.37574      0.79551      8.45151        -0.002227     -0.002901     -0.002146
     -0.00218      1.58384      5.67070         0.000606     -0.006837     -0.000879
      0.02349      1.60182     13.15480         0.000515      0.000256     -0.006575
     -1.39276      2.41741     10.39228        -0.004149      0.001030     -0.006477
     -1.37273      2.40734      3.74179        -0.001880     -0.001102     -0.004209
     -0.00956      3.19910      0.94675         0.003825      0.000630      0.000029
     -0.00919      3.26238      8.47813         0.005719      0.001290      0.002426
     -1.38824      4.04772      5.66930         0.004997      0.005594     -0.000983
     -1.40163      4.05171     13.18483         0.000497     -0.001885      0.008759
     -2.80240      4.85694     10.39357        -0.000085     -0.005294     -0.005406
     -2.79079      4.85023      3.74912        -0.004542     -0.002720      0.005406
     -1.37928      5.66372      0.96227         0.003055      0.002816      0.001159
     -1.38104      5.63371      8.47880         0.003883      0.002273      0.003492
     -2.82877      6.46955      5.66390         0.000028      0.004499     -0.003492
     -2.80366      6.48609     13.18042         0.000911      0.004053     -0.001159
      2.76944      0.01815     10.38934        -0.001100      0.000127      0.005502
     -1.37228      7.25501      3.75180         0.000660     -0.000889     -0.005502
      4.19820      0.78203      0.96003        -0.000146     -0.004694      0.003024
      4.20356      0.84100      8.47404        -0.001703     -0.000719      0.003208
      2.82176      1.63878      5.66556         0.000228     -0.001834     -0.003208
      2.77338      1.60465     13.17956        -0.003992     -0.002473     -0.003024
      1.39917      2.39367     10.38842         0.001732     -0.001837      0.004713
      1.36977      2.40544      3.74002        -0.000220      0.000063     -0.004729
      2.79748      3.22002      0.95483         0.000292      0.003654     -0.008274
      2.82971      3.22267      8.47220        -0.001666     -0.003826      0.001307
      1.38280      4.04552      5.66633        -0.007456      0.002624      0.000208
      1.40450      4.07281     13.19310        -0.002210      0.002151     -0.001872
      0.02773      4.86370     10.40141         0.001562     -0.000739      0.010935
     -0.00336      4.88256      3.75575        -0.001885      0.004876     -0.012766
      1.37219      5.66879      0.98634        -0.000036      0.000575      0.006575
      1.36945      5.63757      8.47045        -0.006224     -0.002894      0.000879
     -0.00222      6.43671      5.68963        -0.001398     -0.003379      0.002146
      0.03045      6.44198     13.18821         0.000356      0.001129     -0.005516
      1.39501      7.23651     10.40112         0.000165     -0.000159      0.004729
      1.37011      7.25608      3.75272        -0.002457      0.000581     -0.004713
      7.02012      0.83063      0.94650         0.002968     -0.000838      0.001872
      7.00734      0.79819      8.47327         0.006000     -0.005145     -0.000208
      5.57128      1.63982      5.66739        -0.002481     -0.003356     -0.001307
      5.58510      1.61059     13.18476         0.003019      0.002080      0.008274
      4.18724      2.41791     10.38901         0.007209      0.003084      0.002848
      4.19557      2.41310      3.75059        -0.000934      0.007786     -0.002848
      5.60769      3.22608      0.91781        -0.002076      0.002546     -0.000666
      5.57139      3.21728      8.50528        -0.005555     -0.002183     -0.010941
      4.19577      4.01150      5.63432         0.000887     -0.005902      0.010941
      4.18524      4.04733     13.22178         0.003243     -0.000525      0.000666
      2.76790      4.86238     10.39935        -0.000014     -0.002179      0.004209
      2.78664      4.85007      3.74886         0.002967     -0.003078      0.006477
      4.20642      5.65953      0.95631        -0.001881     -0.000512     -0.008759
      4.19627      5.66914      8.47184         0.002346      0.007124      0.000983
      2.82662      6.47077      5.66302        -0.001743      0.005598     -0.002426
      2.77200      6.43880     13.19440        -0.001367      0.003627     -0.000029
 -----------------------------------------------------------------------------------
    total drift:                                0.003369      0.003570      0.000361


--------------------------------------------------------------------------------------------------------



  FREE ENERGIE OF THE ION-ELECTRON SYSTEM (eV)
  ---------------------------------------------------
  free  energy   TOTEN  =      -545.4279439874 eV

  energy  without entropy=     -545.3971889702  energy(sigma->0) =     -545.41256648
 


--------------------------------------------------------------------------------------------------------


    POTLOK:  cpu time    0.2546: real time    0.2552


--------------------------------------------------------------------------------------------------------


 Quasi-Newton relaxation of ions (Broydens 2nd method)
  g(Force)  = 0.332E-03   g(Stress)= 0.164E-03

 Reset! Starting new Quasi-Newton update for ions 


--------------------------------------------------------------------------------------------------------


  
 reached required accuracy - stopping structural energy minimisation
     LOOP+:  cpu time  264.7575: real time  265.5143
    4ORBIT:  cpu time    0.0000: real time    0.0000

volume of typ            1:     6.3 %

volume of typ            2:    19.9 %

volume of typ            3:    10.2 %
 
total charge     
 
# of ion       s       p       d       tot
------------------------------------------
    1        2.067   0.221   0.086   2.375
    2        2.070   0.228   0.089   2.388
    3        2.071   0.228   0.089   2.388
    4        2.067   0.221   0.086   2.375
    5        2.071   0.228   0.089   2.388
    6        2.070   0.228   0.089   2.388
    7        2.068   0.217   0.084   2.369
    8        0.297   0.413   7.831   8.541
    9        0.291   0.402   7.835   8.527
   10        0.296   0.411   7.832   8.539
   11        0.296   0.411   7.826   8.533
   12        0.290   0.401   7.838   8.529
   13        0.291   0.401   7.828   8.519
   14        0.292   0.403   7.821   8.516
   15        0.296   0.413   7.832   8.541
   16        0.296   0.413   7.832   8.541
   17        0.290   0.400   7.836   8.525
   18        0.297   0.413   7.833   8.542
   19        0.297   0.413   7.833   8.542
   20        0.296   0.413   7.833   8.542
   21        0.292   0.402   7.827   8.521
   22        0.292   0.403   7.835   8.530
   23        0.297   0.413   7.831   8.541
   24        0.296   0.411   7.832   8.539
   25        0.291   0.402   7.835   8.527
   26        0.296   0.413   7.833   8.542
   27        0.292   0.403   7.835   8.530
   28        0.292   0.402   7.827   8.521
   29        0.291   0.401   7.822   8.514
   30        0.292   0.402   7.827   8.521
   31        0.292   0.402   7.827   8.521
   32        0.296   0.411   7.826   8.533
   33        0.291   0.401   7.828   8.520
   34        0.290   0.401   7.838   8.529
   35        1.278   2.743   0.007   4.029
   36        1.279   2.741   0.007   4.027
   37        1.279   2.742   0.007   4.028
   38        1.276   2.749   0.007   4.032
   39        1.278   2.743   0.007   4.029
   40        1.276   2.749   0.007   4.032
   41        1.286   2.723   0.008   4.016
   42        1.275   2.755   0.007   4.037
   43        1.275   2.755   0.007   4.037
   44        1.275   2.754   0.007   4.036
   45        1.275   2.753   0.007   4.035
   46        1.286   2.721   0.008   4.015
   47        1.286   2.722   0.008   4.016
   48        1.286   2.722   0.008   4.016
   49        1.275   2.752   0.007   4.035
   50        1.275   2.754   0.007   4.036
   51        1.275   2.754   0.007   4.036
   52        1.275   2.752   0.007   4.035
   53        1.275   2.754   0.007   4.036
   54        1.275   2.754   0.007   4.036
   55        1.275   2.753   0.007   4.035
   56        1.275   2.753   0.007   4.036
   57        1.275   2.753   0.007   4.036
   58        1.275   2.753   0.007   4.035
   59        1.275   2.754   0.007   4.036
   60        1.275   2.753   0.007   4.036
   61        1.286   2.722   0.008   4.016
   62        1.275   2.752   0.007   4.035
   63        1.275   2.751   0.007   4.034
   64        1.275   2.754   0.007   4.036
   65        1.279   2.741   0.007   4.027
   66        1.278   2.743   0.007   4.029
   67        1.276   2.749   0.007   4.032
   68        1.278   2.743   0.007   4.029
   69        1.276   2.749   0.007   4.032
   70        1.279   2.742   0.007   4.028
   71        1.275   2.753   0.007   4.036
   72        1.275   2.754   0.007   4.036
   73        1.275   2.754   0.007   4.036
   74        1.275   2.751   0.007   4.034
   75        1.275   2.752   0.007   4.035
   76        1.286   2.722   0.008   4.016
   77        1.289   2.712   0.008   4.008
   78        1.289   2.712   0.008   4.008
   79        1.288   2.715   0.008   4.012
   80        1.278   2.744   0.007   4.030
   81        1.278   2.744   0.007   4.030
   82        1.288   2.715   0.008   4.012
   83        1.275   2.755   0.007   4.037
   84        1.286   2.723   0.008   4.016
   85        1.286   2.721   0.008   4.016
   86        1.275   2.753   0.007   4.035
   87        1.275   2.754   0.007   4.036
   88        1.275   2.755   0.007   4.037
--------------------------------------------------
tot          91.44  160.69  212.45  464.57
 
magnetization (x)
 
# of ion       s       p       d       tot
------------------------------------------
    1        0.003   0.005  -0.000   0.008
    2        0.004   0.004  -0.000   0.008
    3        0.001   0.004  -0.000   0.005
    4        0.003   0.005  -0.000   0.008
    5        0.001   0.004  -0.000   0.005
    6        0.004   0.004  -0.000   0.008
    7        0.003   0.005  -0.000   0.008
    8        0.000  -0.000   0.122   0.122
    9       -0.000  -0.000   0.212   0.212
   10       -0.000  -0.000   0.154   0.154
   11       -0.000  -0.000   0.103   0.103
   12       -0.000  -0.000   0.209   0.208
   13       -0.000  -0.000   0.111   0.111
   14       -0.000  -0.000   0.095   0.095
   15       -0.000  -0.000   0.137   0.137
   16       -0.000  -0.000   0.137   0.137
   17       -0.000   0.000  -0.000  -0.000
   18       -0.000  -0.000   0.122   0.122
   19       -0.000  -0.000   0.122   0.122
   20       -0.000  -0.000   0.079   0.079
   21       -0.000  -0.000   0.107   0.107
   22       -0.000  -0.000   0.161   0.161
   23        0.000  -0.000   0.122   0.122
   24       -0.000  -0.000   0.154   0.154
   25       -0.000  -0.000   0.212   0.212
   26       -0.000  -0.000   0.079   0.079
   27       -0.000  -0.000   0.161   0.161
   28       -0.000  -0.000   0.107   0.107
   29       -0.000  -0.000   0.142   0.142
   30       -0.000  -0.000   0.152   0.152
   31       -0.000  -0.000   0.152   0.152
   32       -0.000  -0.000   0.103   0.103
   33       -0.000  -0.000   0.111   0.111
   34       -0.000  -0.000   0.209   0.208
   35        0.005   0.027   0.000   0.032
   36        0.003   0.017   0.000   0.020
   37       -0.000  -0.011   0.000  -0.011
   38        0.003   0.005   0.000   0.008
   39        0.006   0.033   0.000   0.039
   40        0.002   0.006   0.000   0.008
   41        0.003   0.018   0.000   0.021
   42        0.004   0.018   0.000   0.022
   43        0.003   0.011   0.000   0.014
   44        0.004   0.009   0.000   0.013
   45        0.004   0.014   0.000   0.018
   46        0.003   0.015   0.000   0.017
   47        0.003   0.014   0.000   0.017
   48        0.003   0.014   0.000   0.017
   49        0.002   0.005   0.000   0.008
   50        0.004   0.012   0.000   0.016
   51        0.004   0.012   0.000   0.016
   52        0.002   0.005   0.000   0.008
   53        0.004   0.014   0.000   0.018
   54        0.004   0.014   0.000   0.018
   55        0.003   0.009   0.000   0.012
   56        0.004   0.016   0.000   0.020
   57        0.004   0.016   0.000   0.020
   58        0.003   0.009   0.000   0.012
   59        0.004   0.015   0.000   0.019
   60        0.004   0.015   0.000   0.019
   61        0.002   0.010   0.000   0.013
   62        0.003   0.007   0.000   0.010
   63        0.003   0.007   0.000   0.011
   64        0.003   0.008   0.000   0.011
   65        0.003   0.017   0.000   0.020
   66        0.005   0.027   0.000   0.032
   67        0.002   0.006   0.000   0.008
   68        0.006   0.033   0.000   0.039
   69        0.003   0.005   0.000   0.008
   70       -0.000  -0.011   0.000  -0.011
   71        0.004   0.015   0.000   0.019
   72        0.004   0.015   0.000   0.019
   73        0.003   0.008   0.000   0.011
   74        0.003   0.007   0.000   0.011
   75        0.003   0.007   0.000   0.010
   76        0.002   0.010   0.000   0.013
   77        0.002   0.013   0.000   0.015
   78        0.002   0.013   0.000   0.015
   79        0.002   0.015   0.000   0.018
   80        0.003   0.010   0.000   0.013
   81        0.003   0.010   0.000   0.013
   82        0.002   0.015   0.000   0.018
   83        0.004   0.018   0.000   0.022
   84        0.003   0.018   0.000   0.021
   85        0.003   0.015   0.000   0.017
   86        0.004   0.014   0.000   0.018
   87        0.004   0.009   0.000   0.013
   88        0.003   0.011   0.000   0.014
--------------------------------------------------
tot           0.19    0.69    3.58    4.46
 

 total amount of memory used by VASP MPI-rank0   145399. kBytes
=======================================================================

   base      :      30000. kBytes
   nonlr-proj:      39859. kBytes
   fftplans  :       9349. kBytes
   grid      :      55332. kBytes
   one-center:       1368. kBytes
   wavefun   :       9491. kBytes
 
  
  
 General timing and accounting informations for this job:
 ========================================================
  
                  Total CPU time used (sec):      276.150
                            User time (sec):      272.342
                          System time (sec):        3.807
                         Elapsed time (sec):      281.283
  
                   Maximum memory used (kb):      195912.
                   Average memory used (kb):           0.
  
                          Minor page faults:        32726
                          Major page faults:           53
                 Voluntary context switches:          834
