 vasp.5.4.4.18Apr17-6-g9f103f2a35 (build May 12 2020 05:39:39) gamma-only       
  
 MD_VERSION_INFO: Compiled 2020-05-12T12:39:39-UTC in devlin.sd.materialsdesign.
 com:/home/medea2/data/build/wwolf/vasp-gpu5.4.4/13047/x86_64/src/src/build/gam 
 from svn 13047
 
 This VASP executable licensed from Materials Design, Inc.
 
 executed on                        Lin64 date 2023.01.19  21:57:28
 running on   16 total cores
 distrk:  each k-point on   16 cores,    1 groups
 distr:  one band on NCORES_PER_BAND=   1 cores,   16 groups


--------------------------------------------------------------------------------------------------------


 INCAR:
 POTCAR:    PAW_PBE Li_sv 10Sep2004               
 POTCAR:    PAW_PBE Ni 02Aug2007                  
 POTCAR:    PAW_PBE O 08Apr2002                   

 ----------------------------------------------------------------------------- 
|                                                                             |
|           W    W    AA    RRRRR   N    N  II  N    N   GGGG   !!!           |
|           W    W   A  A   R    R  NN   N  II  NN   N  G    G  !!!           |
|           W    W  A    A  R    R  N N  N  II  N N  N  G       !!!           |
|           W WW W  AAAAAA  RRRRR   N  N N  II  N  N N  G  GGG   !            |
|           WW  WW  A    A  R   R   N   NN  II  N   NN  G    G                |
|           W    W  A    A  R    R  N    N  II  N    N   GGGG   !!!           |
|                                                                             |
|      For optimal performance we recommend to set                            |
|        NCORE= 4 - approx SQRT( number of cores)                             |
|      NCORE specifies how many cores store one orbital (NPAR=cpu/NCORE).     |
|      This setting can  greatly improve the performance of VASP for DFT.     |
|      The default,   NCORE=1            might be grossly inefficient         |
|      on modern multi-core architectures or massively parallel machines.     |
|      Do your own testing !!!!                                               |
|      Unfortunately you need to use the default for GW and RPA calculations. |
|      (for HF NCORE is supported but not extensively tested yet)             |
|                                                                             |
 ----------------------------------------------------------------------------- 

 POTCAR:    PAW_PBE Li_sv 10Sep2004               
  local pseudopotential read in
  atomic valenz-charges read in
  non local Contribution for L=           0  read in
    real space projection operators read in
  non local Contribution for L=           0  read in
    real space projection operators read in
  non local Contribution for L=           1  read in
    real space projection operators read in
    PAW grid and wavefunctions read in
 
   number of l-projection  operators is LMAX  =           3
   number of lm-projection operators is LMMAX =           5
 
 POTCAR:    PAW_PBE Ni 02Aug2007                  
  local pseudopotential read in
  partial core-charges read in
  partial kinetic energy density read in
  atomic valenz-charges read in
  non local Contribution for L=           2  read in
    real space projection operators read in
  non local Contribution for L=           2  read in
    real space projection operators read in
  non local Contribution for L=           0  read in
    real space projection operators read in
  non local Contribution for L=           0  read in
    real space projection operators read in
  non local Contribution for L=           1  read in
    real space projection operators read in
  non local Contribution for L=           1  read in
    real space projection operators read in
    PAW grid and wavefunctions read in
 
   number of l-projection  operators is LMAX  =           6
   number of lm-projection operators is LMMAX =          18
 
 POTCAR:    PAW_PBE O 08Apr2002                   
  local pseudopotential read in
  partial core-charges read in
  partial kinetic energy density read in
  kinetic energy density of atom read in
  atomic valenz-charges read in
  non local Contribution for L=           0  read in
    real space projection operators read in
  non local Contribution for L=           0  read in
    real space projection operators read in
  non local Contribution for L=           1  read in
    real space projection operators read in
  non local Contribution for L=           1  read in
    real space projection operators read in
    PAW grid and wavefunctions read in
 
   number of l-projection  operators is LMAX  =           4
   number of lm-projection operators is LMMAX =           8
 
 Optimization of the real space projectors (new method)

 maximal supplied QI-value         = 22.11
 optimisation between [QCUT,QGAM] = [ 11.28, 22.77] = [ 35.61,145.23] Ry 
 Optimized for a Real-space Cutoff    1.10 Angstroem

   l    n(q)    QCUT    max X(q) W(low)/X(q) W(high)/X(q)  e(spline) 
   0      7    11.276    10.506    0.54E-04    0.58E-04    0.16E-07
   0      7    11.276     8.367    0.11E-03    0.14E-03    0.35E-07
   1      7    11.276     8.983    0.23E-03    0.43E-03    0.86E-07
 Optimization of the real space projectors (new method)

 maximal supplied QI-value         = 16.25
 optimisation between [QCUT,QGAM] = [ 11.38, 22.75] = [ 36.24,144.96] Ry 
 Optimized for a Real-space Cutoff    1.47 Angstroem

   l    n(q)    QCUT    max X(q) W(low)/X(q) W(high)/X(q)  e(spline) 
   2      9    11.376    60.317    0.17E-03    0.16E-04    0.16E-06
   2      9    11.376    55.921    0.17E-03    0.16E-04    0.17E-06
   0     10    11.376    51.690    0.45E-04    0.60E-04    0.21E-06
   0     10    11.376    30.015    0.37E-04    0.55E-04    0.19E-06
   1     10    11.376    18.849    0.83E-04    0.11E-03    0.92E-07
   1     10    11.376    14.624    0.69E-04    0.92E-04    0.82E-07
 Optimization of the real space projectors (new method)

 maximal supplied QI-value         = 24.76
 optimisation between [QCUT,QGAM] = [ 11.39, 22.77] = [ 36.31,145.25] Ry 
 Optimized for a Real-space Cutoff    1.10 Angstroem

   l    n(q)    QCUT    max X(q) W(low)/X(q) W(high)/X(q)  e(spline) 
   0      7    11.387    20.381    0.22E-03    0.48E-03    0.18E-06
   0      7    11.387    15.268    0.22E-03    0.52E-03    0.19E-06
   1      7    11.387     5.964    0.22E-03    0.73E-03    0.24E-06
   1      7    11.387     5.382    0.19E-03    0.60E-03    0.21E-06

 ----------------------------------------------------------------------------- 
|                                                                             |
|  ADVICE TO THIS USER RUNNING 'VASP/VAMP'   (HEAR YOUR MASTER'S VOICE ...):  |
|                                                                             |
|      You enforced a specific xc-type in the INCAR file,                     |
|      a different type was found on the POTCAR file                          |
|          I HOPE YOU KNOW, WHAT YOU ARE  DOING                               |
|                                                                             |
 ----------------------------------------------------------------------------- 

  PAW_PBE Li_sv 10Sep2004               :
 energy of atom  1       EATOM= -202.7858
 kinetic energy error for atom=    0.0143 (will be added to EATOM!!)
  PAW_PBE Ni 02Aug2007                  :
 energy of atom  2       EATOM=-1077.6739
 kinetic energy error for atom=    0.0030 (will be added to EATOM!!)
  PAW_PBE O 08Apr2002                   :
 energy of atom  3       EATOM= -432.3788
 kinetic energy error for atom=    0.0224 (will be added to EATOM!!)
 
 
 POSCAR: ce213062_1                              
  positions in direct lattice
  No initial velocities read in
 exchange correlation table for  LEXCH =       14
   RHO(1)=    0.500       N(1)  =     2000
   RHO(2)=  100.500       N(2)  =     4000
 


--------------------------------------------------------------------------------------------------------


 ion  position               nearest neighbor table
   1  0.976  0.500  0.975-  95 1.98  94 1.99  82 2.13  59 2.13  46 2.24  47 2.28  41 2.78  42 2.78

   2  0.084  0.833  0.196-  60 2.00  43 2.01  61 2.09  48 2.12  67 2.28  16 2.74  24 2.76
   3  0.222  0.165  0.112-  51 2.09  45 2.10  44 2.10  81 2.11  50 2.12  68 2.15
   4  0.334  0.500  0.001-  88 2.08  53 2.09  47 2.11  83 2.12  82 2.12  52 2.13
   5  0.445  0.833  0.221-  49 2.08  48 2.11  73 2.11  67 2.11  54 2.12  72 2.14
   6  0.556  0.166  0.089-  56 2.02  87 2.02  57 2.11  50 2.12  74 2.21  51 2.23  38 2.78  22 2.78

   7  0.002  0.501  0.334-  64 2.08  77 2.11  46 2.11  58 2.11  65 2.12  59 2.14
   8  0.111  0.834  0.554-  85 2.08  66 2.09  78 2.11  84 2.12  79 2.12  61 2.13
   9  0.246  0.167  0.467-  69 2.02  86 2.02  68 2.11  63 2.12  45 2.21  62 2.23  37 2.78  29 2.78

  10  0.666  0.500  0.360-  71 2.00  76 2.01  52 2.09  77 2.12  58 2.28  32 2.74  30 2.76
  11  0.778  0.833  0.580-  96 1.98  91 1.99  79 2.13  72 2.13  73 2.24  78 2.28  40 2.78  42 2.78

  12  0.888  0.169  0.444-  62 2.09  74 2.10  75 2.10  80 2.11  63 2.12  57 2.15
  13  0.357  0.501  0.666-  70 2.00  89 2.02  65 2.08  88 2.11  64 2.27  39 2.76  29 2.78
  14  0.469  0.832  0.889-  55 2.00  90 2.02  54 2.08  85 2.11  49 2.27  39 2.76  22 2.78
  15  0.861  0.167  0.778-  92 2.02  93 2.02  44 2.08  75 2.08  41 2.77  40 2.77
  16  0.001  0.998  0.003-  60 1.86  81 1.88  93 1.88  48 1.92  96 1.95  45 1.97   2 2.74  19 2.80
                            25 2.81  22 2.82  28 2.83  34 2.84  40 2.85
  17  0.112  0.333  0.223-  68 1.86  59 1.86  62 1.93  47 1.94  44 1.99  65 1.99  20 2.81  23 2.81
                            29 2.81  41 2.82  35 2.85  26 2.85
  18  0.223  0.665  0.112-  67 1.87  82 1.87  49 1.91  43 1.91  46 1.92  52 1.95  27 2.80  36 2.81
                            30 2.82  42 2.83  21 2.83  24 2.84
  19  0.329  0.998  0.996-  51 1.87  54 1.87  87 1.89  84 1.89  81 1.90  48 1.93  34 2.77  16 2.80
                            37 2.81  22 2.84  28 2.85  31 2.85
  20  0.443  0.331  0.222-  71 1.87  50 1.88  53 1.88  47 1.91  74 1.91  68 1.91  17 2.81  32 2.81
                            29 2.82  38 2.82  35 2.82  23 2.85
  21  0.559  0.665  0.113-  49 1.87  55 1.87  52 1.88  58 1.89  73 1.95  88 1.95  24 2.78  33 2.80
                            39 2.82  18 2.83  30 2.84  36 2.86
  22  0.667  0.999  0.000-  90 1.88  87 1.89  93 1.90  60 1.91  54 1.91  57 1.92  14 2.78   6 2.78
                            31 2.81  25 2.82  16 2.82  37 2.84  19 2.84  40 2.84
  23  0.778  0.335  0.219-  56 1.87  74 1.87  77 1.88  59 1.90  53 1.95  62 1.95  41 2.78  17 2.81
                            38 2.82  32 2.83  20 2.85  26 2.85
  24  0.886  0.668  0.109-  94 1.87  46 1.88  43 1.88  55 1.89  61 1.92  58 1.92   2 2.76  21 2.78
                            39 2.81  42 2.82  33 2.82  18 2.84  27 2.84
  25  0.999  0.002  0.334-  60 1.87  63 1.88  66 1.88  78 1.91  45 1.91  57 1.91  31 2.81  16 2.81
                            22 2.82  37 2.82  34 2.82  28 2.85
  26  0.111  0.335  0.560-  62 1.87  65 1.87  86 1.89  83 1.89  80 1.90  77 1.93  35 2.77  32 2.80
                            38 2.81  29 2.84  23 2.85  17 2.85
  27  0.224  0.669  0.442-  64 1.87  70 1.87  61 1.88  67 1.89  46 1.95  85 1.95  30 2.78  18 2.80
                            39 2.82  33 2.83  24 2.84  36 2.86
  28  0.337  0.999  0.336-  69 1.87  45 1.87  48 1.88  72 1.90  66 1.95  51 1.95  40 2.78  31 2.81
                            37 2.82  16 2.83  25 2.85  19 2.85
  29  0.445  0.334  0.555-  89 1.88  86 1.89  92 1.90  71 1.91  65 1.91  68 1.92  13 2.78   9 2.78
                            17 2.81  20 2.82  32 2.82  38 2.84  26 2.84  41 2.84
  30  0.555  0.665  0.447-  91 1.87  73 1.88  76 1.88  70 1.89  52 1.92  67 1.92  10 2.76  27 2.78
                            39 2.81  42 2.82  18 2.82  33 2.84  21 2.84
  31  0.667  0.001  0.332-  57 1.86  72 1.86  51 1.93  78 1.94  75 1.99  54 1.99  25 2.81  28 2.81
                            22 2.81  40 2.82  34 2.85  19 2.85
  32  0.776  0.335  0.553-  71 1.86  80 1.88  92 1.88  77 1.92  95 1.95  74 1.97  10 2.74  26 2.80
                            20 2.81  29 2.82  23 2.83  35 2.84  41 2.85
  33  0.889  0.668  0.444-  58 1.87  79 1.87  64 1.91  76 1.91  73 1.92  61 1.95  21 2.80  36 2.81
                            24 2.82  42 2.83  27 2.83  30 2.84
  34  0.003  0.002  0.669-  75 1.86  96 1.87  78 1.87  84 1.89  81 1.90  63 1.92  19 2.77  37 2.80
                            25 2.82  40 2.84  16 2.84  31 2.85
  35  0.112  0.331  0.887-  44 1.86  95 1.87  47 1.87  83 1.89  80 1.90  50 1.92  26 2.77  38 2.80
                            20 2.82  41 2.84  32 2.84  17 2.85
  36  0.219  0.667  0.778-  85 1.87  88 1.87  79 1.90  82 1.90  49 1.96  64 1.96  42 2.78  18 2.81
                            33 2.81  39 2.83  21 2.86  27 2.86
  37  0.332  0.001  0.666-  69 1.87  84 1.88  90 1.88  87 1.90  66 1.90  63 1.92   9 2.78  34 2.80
                            19 2.81  28 2.82  25 2.82  40 2.83  22 2.84
  38  0.444  0.332  0.889-  56 1.87  83 1.88  89 1.88  86 1.90  53 1.90  50 1.92   6 2.78  35 2.80
                            26 2.81  23 2.82  20 2.82  41 2.83  29 2.84
  39  0.554  0.667  0.778-  55 1.86  70 1.86  91 1.94  94 1.94  85 1.95  88 1.95  14 2.76  13 2.76
                            24 2.81  30 2.81  21 2.82  27 2.82  36 2.83  42 2.85
  40  0.666  1.000  0.664-  96 1.87  93 1.88  69 1.90  72 1.91  90 1.92  75 1.95  15 2.77  11 2.78
                            28 2.78  31 2.82  37 2.83  34 2.84  22 2.84  16 2.85
  41  0.779  0.334  0.891-  95 1.87  92 1.88  56 1.90  59 1.91  89 1.92  44 1.95  15 2.77   1 2.78
                            23 2.78  17 2.82  38 2.83  35 2.84  29 2.84  32 2.85
  42  0.890  0.667  0.778-  91 1.87  94 1.87  43 1.89  76 1.89  79 1.91  82 1.91  11 2.78   1 2.78
                            36 2.78  24 2.82  30 2.82  18 2.83  33 2.83  39 2.85
  43  1.000  0.734  0.000-  24 1.88  42 1.89  18 1.91   2 2.01
  44  0.003  0.260  0.991-  35 1.86  41 1.95  17 1.99  15 2.08   3 2.10
  45  0.122  0.070  0.232-  28 1.87  25 1.91  16 1.97   3 2.10   9 2.21
  46  0.102  0.597  0.216-  24 1.88  18 1.92  27 1.95   7 2.11   1 2.24
  47  0.221  0.401  0.103-  35 1.87  20 1.91  17 1.94   4 2.11   1 2.28
  48  0.226  0.929  0.119-  28 1.88  16 1.92  19 1.93   5 2.11   2 2.12
  49  0.344  0.735  0.010-  21 1.87  18 1.91  36 1.96   5 2.08  14 2.27
  50  0.336  0.261  0.005-  20 1.88  35 1.92  38 1.92   6 2.12   3 2.12
  51  0.439  0.069  0.210-  19 1.87  31 1.93  28 1.95   3 2.09   6 2.23
  52  0.452  0.595  0.224-  21 1.88  30 1.92  18 1.95  10 2.09   4 2.13
  53  0.547  0.403  0.109-  20 1.88  38 1.90  23 1.95   4 2.09
  54  0.546  0.928  0.100-  19 1.87  22 1.91  31 1.99  14 2.08   5 2.12
  55  0.661  0.732  0.996-  39 1.86  21 1.87  24 1.89  14 2.00
  56  0.665  0.267  0.002-  38 1.87  23 1.87  41 1.90   6 2.02
  57  0.773  0.070  0.223-  31 1.86  25 1.91  22 1.92   6 2.11  12 2.15
  58  0.783  0.598  0.229-  33 1.87  21 1.89  24 1.92   7 2.11  10 2.28
  59  0.898  0.402  0.115-  17 1.86  23 1.90  41 1.91   1 2.13   7 2.14
  60  0.894  0.933  0.117-  16 1.86  25 1.87  22 1.91   2 2.00
  61  0.005  0.738  0.331-  27 1.88  24 1.92  33 1.95   2 2.09   8 2.13
  62  0.006  0.264  0.345-  26 1.87  17 1.93  23 1.95  12 2.09   9 2.23
  63  0.109  0.072  0.551-  25 1.88  34 1.92  37 1.92   9 2.12  12 2.12
  64  0.112  0.598  0.546-  27 1.87  33 1.91  36 1.96   7 2.08  13 2.27
  65  0.223  0.405  0.455-  26 1.87  29 1.91  17 1.99  13 2.08   7 2.12
  66  0.216  0.931  0.446-  25 1.88  37 1.90  28 1.95   8 2.09
  67  0.332  0.736  0.327-  18 1.87  27 1.89  30 1.92   5 2.11   2 2.28
  68  0.327  0.264  0.332-  17 1.86  20 1.91  29 1.92   9 2.11   3 2.15
  69  0.441  0.067  0.554-  37 1.87  28 1.87  40 1.90   9 2.02
  70  0.443  0.601  0.560-  39 1.86  27 1.87  30 1.89  13 2.00
  71  0.555  0.400  0.439-  32 1.86  20 1.87  29 1.91  10 2.00
  72  0.561  0.931  0.441-  31 1.86  28 1.90  40 1.91  11 2.13   5 2.14
  73  0.664  0.736  0.339-  30 1.88  33 1.92  21 1.95   5 2.11  11 2.24
  74  0.668  0.263  0.324-  23 1.87  20 1.91  32 1.97  12 2.10   6 2.21
  75  0.789  0.073  0.564-  34 1.86  40 1.95  31 1.99  15 2.08  12 2.10
  76  0.777  0.599  0.555-  30 1.88  42 1.89  33 1.91  10 2.01
  77  0.885  0.405  0.437-  23 1.88  32 1.92  26 1.93   7 2.11  10 2.12
  78  0.896  0.932  0.453-  34 1.87  25 1.91  31 1.94   8 2.11  11 2.28
  79  0.997  0.736  0.661-  33 1.87  36 1.90  42 1.91   8 2.12  11 2.13
  80  0.994  0.265  0.662-  32 1.88  26 1.90  35 1.90  12 2.11
  81  0.109  0.068  0.893-  16 1.88  19 1.90  34 1.90   3 2.11
  82  0.114  0.597  0.895-  18 1.87  36 1.90  42 1.91   4 2.12   1 2.13
  83  0.227  0.402  0.783-  38 1.88  35 1.89  26 1.89   4 2.12
  84  0.222  0.931  0.773-  37 1.88  34 1.89  19 1.89   8 2.12
  85  0.326  0.738  0.671-  36 1.87  27 1.95  39 1.95   8 2.08  14 2.11
  86  0.332  0.266  0.664-  26 1.89  29 1.89  38 1.90   9 2.02
  87  0.445  0.067  0.891-  19 1.89  22 1.89  37 1.90   6 2.02
  88  0.433  0.595  0.884-  36 1.87  21 1.95  39 1.95   4 2.08  13 2.11
  89  0.551  0.400  0.776-  29 1.88  38 1.88  41 1.92  13 2.02
  90  0.552  0.933  0.779-  22 1.88  37 1.88  40 1.92  14 2.02
  91  0.670  0.734  0.665-  42 1.87  30 1.87  39 1.94  11 1.99
  92  0.670  0.269  0.669-  41 1.88  32 1.88  29 1.90  15 2.02
  93  0.779  0.065  0.887-  40 1.88  16 1.88  22 1.90  15 2.02
  94  0.783  0.599  0.891-  42 1.87  24 1.87  39 1.94   1 1.99
  95  0.895  0.400  0.787-  35 1.87  41 1.87  32 1.95   1 1.98
  96  0.886  0.933  0.768-  34 1.87  40 1.87  16 1.95  11 1.98
 
  LATTYP: Found a base centered monoclinic cell.
 ALAT       =    14.6798462748
 B/A-ratio  =     0.5763116014
 C/A-ratio  =     1.3924915860
 COS(beta)  =    -0.6229452742
  
  Lattice vectors:
  
 A1 = (   4.2415172538,   7.3333200920,   0.0045317836)
 A2 = (   8.4716001115,   0.0066016623,   0.0045317836)
 A3 = ( -12.7206523641,  -7.3442720531, -14.2163337636)


Analysis of symmetry for initial positions (statically):
=====================================================================
 Subroutine PRICEL returns:
 Original cell was already a primitive cell.
 

 Routine SETGRP: Setting up the symmetry group for a 
 base centered monoclinic supercell.


 Subroutine GETGRP returns: Found  2 space group operations
 (whereof  1 operations were pure point group operations)
 out of a pool of  4 trial point group operations.


The static configuration has the point symmetry C_1 .
 The point group associated with its full space group is C_2 .


Analysis of symmetry for dynamics (positions and initial velocities):
=====================================================================
 Subroutine PRICEL returns:
 Original cell was already a primitive cell.
 

 Routine SETGRP: Setting up the symmetry group for a 
 base centered monoclinic supercell.


 Subroutine GETGRP returns: Found  2 space group operations
 (whereof  1 operations were pure point group operations)
 out of a pool of  4 trial point group operations.


The dynamic configuration has the point symmetry C_1 .
 The point group associated with its full space group is C_2 .


Analysis of structural, dynamic, and magnetic symmetry:
=====================================================================
 Subroutine PRICEL returns:
 Original cell was already a primitive cell.
 

 Routine SETGRP: Setting up the symmetry group for a 
 base centered monoclinic supercell.


 Subroutine GETGRP returns: Found  2 space group operations
 (whereof  1 operations were pure point group operations)
 out of a pool of  4 trial point group operations.


The magnetic configuration has the point symmetry C_1 .
 The point group associated with its full space group is C_2 .


 Subroutine INISYM returns: Found  2 space group operations
 (whereof  1 operations are pure point group operations),
 and found     1 'primitive' translations

 
 
 KPOINTS: Automatic mesh                          

Automatic generation of k-mesh.
Space group operators:
 irot       det(A)        alpha          n_x          n_y          n_z        tau_x        tau_y        tau_z
    1     1.000000     0.000001     1.000000     0.000000     0.000000     0.000000     0.000000     0.000000
    2     1.000000   180.000000    -0.500000     0.866025     0.000000    -0.222222    -0.666667    -0.444444
 
 Subroutine IBZKPT returns following result:
 ===========================================
 
 Found      1 irreducible k-points:
 
 Following reciprocal coordinates:
            Coordinates               Weight
  0.000000  0.000000  0.000000      1.000000
 
 Following cartesian coordinates:
            Coordinates               Weight
  0.000000  0.000000  0.000000      1.000000
 


--------------------------------------------------------------------------------------------------------




 Dimension of arrays:
   k-points           NKPTS =      1   k-points in BZ     NKDIM =      1   number of bands    NBANDS=    432
   number of dos      NEDOS =    301   number of ions     NIONS =     96
   non local maximal  LDIM  =      6   non local SUM 2l+1 LMDIM =     18
   total plane-waves  NPLWV = 442368
   max r-space proj   IRMAX =   6781   max aug-charges    IRDMAX=  16451
   dimension x,y,z NGX =    64 NGY =  108 NGZ =   64
   dimension x,y,z NGXF=   128 NGYF=  216 NGZF=  128
   support grid    NGXF=   128 NGYF=  216 NGZF=  128
   ions per type =              15  27  54
   NGX,Y,Z   is equivalent  to a cutoff of  12.58, 12.64, 12.56 a.u.
   NGXF,Y,Z  is equivalent  to a cutoff of  25.15, 25.28, 25.12 a.u.

 SYSTEM =  unknown system                          
 POSCAR =  ce213062_1                              

 Startparameter for this run:
   NWRITE =      1    write-flag & timer
   PREC   = accura    normal or accurate (medium, high low for compatibility)
   ISTART =      0    job   : 0-new  1-cont  2-samecut
   ICHARG =      2    charge: 1-file 2-atom 10-const
   ISPIN  =      2    spin polarized calculation?
   LNONCOLLINEAR =      F non collinear calculations
   LSORBIT =      F    spin-orbit coupling
   INIWAV =      1    electr: 0-lowe 1-rand  2-diag
   LASPH  =      F    aspherical Exc in radial PAW
   METAGGA=      F    non-selfconsistent MetaGGA calc.

 Electronic Relaxation 1
   ENCUT  =  500.0 eV  36.75 Ry    6.06 a.u.  15.42 25.90 15.45*2*pi/ulx,y,z
   ENINI  =  500.0     initial cutoff
   ENAUG  =  628.9 eV  augmentation charge cutoff
   NELM   =     80;   NELMIN=  2; NELMDL= -5     # of ELM steps 
   EDIFF  = 0.1E-04   stopping-criterion for ELM
   LREAL  =      T    real-space projection
   NLSPLINE    = F    spline interpolate recip. space projectors
   LCOMPAT=      F    compatible to vasp.4.4
   GGA_COMPAT  = T    GGA compatible to vasp.4.4-vasp.4.6
   LMAXPAW     = -100 max onsite density
   LMAXMIX     =    2 max onsite mixed and CHGCAR
   VOSKOWN=      1    Vosko Wilk Nusair interpolation
   ROPT   =   -0.00025  -0.00025  -0.00025
 Ionic relaxation
   EDIFFG = -.2E-01   stopping-criterion for IOM
   NSW    =     20    number of steps for IOM
   NBLOCK =      1;   KBLOCK =     20    inner block; outer block 
   IBRION =      1    ionic relax: 0-MD 1-quasi-New 2-CG
   NFREE  =      0    steps in history (QN), initial steepest desc. (CG)
   ISIF   =      3    stress and relaxation
   IWAVPR =     11    prediction:  0-non 1-charg 2-wave 3-comb
   ISYM   =      2    0-nonsym 1-usesym 2-fastsym
   LCORR  =      T    Harris-Foulkes like correction to forces

   POTIM  = 0.5000    time-step for ionic-motion
   TEIN   =    0.0    initial temperature
   TEBEG  =    0.0;   TEEND  =   0.0 temperature during run
   SMASS  =  -3.00    Nose mass-parameter (am)
   estimated Nose-frequenzy (Omega)   =  0.10E-29 period in steps =****** mass=  -0.164E-26a.u.
   SCALEE = 1.0000    scale energy and forces
   NPACO  =    256;   APACO  = 16.0  distance and # of slots for P.C.
   PSTRESS=    0.0 pullay stress

  Mass of Ions in am
   POMASS =   7.01 58.69 16.00
  Ionic Valenz
   ZVAL   =   3.00 10.00  6.00
  Atomic Wigner-Seitz radii
   RWIGS  =   1.23  1.15  0.73
  virtual crystal weights 
   VCA    =   1.00  1.00  1.00
   NELECT =     639.0000    total number of electrons
   NUPDOWN=      -1.0000    fix difference up-down

 DOS related values:
   EMIN   =  10.00;   EMAX   =-10.00  energy-range for DOS
   EFERMI =   0.00
   ISMEAR =     0;   SIGMA  =   0.05  broadening in eV -4-tet -1-fermi 0-gaus

 Electronic relaxation 2 (details)
   IALGO  =     38    algorithm
   LDIAG  =      T    sub-space diagonalisation (order eigenvalues)
   LSUBROT=      F    optimize rotation matrix (better conditioning)
   TURBO    =      0    0=normal 1=particle mesh
   IRESTART =      0    0=no restart 2=restart with 2 vectors
   NREBOOT  =      0    no. of reboots
   NMIN     =      0    reboot dimension
   EREF     =   0.00    reference energy to select bands
   IMIX   =      4    mixing-type and parameters
     AMIX     =   0.40;   BMIX     =  1.00
     AMIX_MAG =   1.60;   BMIX_MAG =  1.00
     AMIN     =   0.10
     WC   =   100.;   INIMIX=   1;  MIXPRE=   1;  MAXMIX= -45

 Intra band minimization:
   WEIMIN = 0.0010     energy-eigenvalue tresh-hold
   EBREAK =  0.58E-08  absolut break condition
   DEPER  =   0.30     relativ break condition  

   TIME   =   0.40     timestep for ELM

  volume/ion in A,a.u.               =       9.19        62.02
  Fermi-wavevector in a.u.,A,eV,Ry     =   1.470217  2.778308 29.409522  2.161539
  Thomas-Fermi vector in A             =   2.585501
 
 Write flags
   LWAVE        =      F    write WAVECAR
   LDOWNSAMPLE  =      F    k-point downsampling of WAVECAR
   LCHARG       =      T    write CHGCAR
   LVTOT        =      F    write LOCPOT, total local potential
   LVHAR        =      F    write LOCPOT, Hartree potential only
   LELF         =      F    write electronic localiz. function (ELF)
   LORBIT       =      0    0 simple, 1 ext, 2 COOP (PROOUT), +10 PAW based schemes


 Dipole corrections
   LMONO  =      F    monopole corrections only (constant potential shift)
   LDIPOL =      F    correct potential (dipole corrections)
   IDIPOL =      0    1-x, 2-y, 3-z, 4-all directions 
   EPSILON=  1.0000000 bulk dielectric constant

 Exchange correlation treatment:
   GGA     =    PS    GGA type
   LEXCH   =    14    internal setting for exchange type
   VOSKOWN=      1    Vosko Wilk Nusair interpolation
   LHFCALC =     F    Hartree Fock is set to
   LHFONE  =     F    Hartree Fock one center treatment
   AEXX    =    0.0000 exact exchange contribution

 Linear response parameters
   LEPSILON=     F    determine dielectric tensor
   LRPA    =     F    only Hartree local field effects (RPA)
   LNABLA  =     F    use nabla operator in PAW spheres
   LVEL    =     F    velocity operator in full k-point grid
   LINTERFAST=   F  fast interpolation
   KINTER  =     0    interpolate to denser k-point grid
   CSHIFT  =0.1000    complex shift for real part using Kramers Kronig
   OMEGAMAX=  -1.0    maximum frequency
   DEG_THRESHOLD= 0.2000000E-02 threshold for treating states as degnerate
   RTIME   =   -0.100 relaxation time in fs
  (WPLASMAI=    0.000 imaginary part of plasma frequency in eV, 0.658/RTIME)
   DFIELD  = 0.0000000 0.0000000 0.0000000 field for delta impulse in time
 
 Orbital magnetization related:
   ORBITALMAG=     F  switch on orbital magnetization
   LCHIMAG   =     F  perturbation theory with respect to B field
   DQ        =  0.001000  dq finite difference perturbation B field
   LLRAUG    =     F  two centre corrections for induced B field



--------------------------------------------------------------------------------------------------------


 quasi-Newton-method for relaxation of ions
 charge density and potential will be updated during run
 spin polarized calculation
 Variant of blocked Davidson
 Davidson routine will perform the subspace rotation
 perform sub-space diagonalisation
    after iterative eigenvector-optimisation
 modified Broyden-mixing scheme, WC =      100.0
 initial mixing is a Kerker type mixing with AMIX =  0.4000 and BMIX =      1.0000
 Hartree-type preconditioning will be used
 using additional bands          112
 real space projection scheme for non local part
 use partial core corrections
 calculate Harris-corrections to forces 
   (improved forces if not selfconsistent)
 use gradient corrections 
 use of overlap-Matrix (Vanderbilt PP)
 Gauss-broadening in eV      SIGMA  =   0.05


--------------------------------------------------------------------------------------------------------


  energy-cutoff  :      500.00
  volume of cell :      882.23
      direct lattice vectors                 reciprocal lattice vectors
    -4.230082858  7.326718430  0.000000000    -0.000106290  0.136425385 -0.000041717
     0.007534999  0.004350299 14.207270196    -0.000037636 -0.000021729  0.070386525
     8.471600111  0.006601662  0.004531784     0.117988415  0.068120643 -0.000083435

  length of vectors
     8.460165715 14.207272861  8.471603896     0.136425433  0.070386538  0.136241312


 
 k-points in units of 2pi/SCALE and weight: Automatic mesh                          
   0.00000000  0.00000000  0.00000000       1.000
 
 k-points in reciprocal lattice and weights: Automatic mesh                          
   0.00000000  0.00000000  0.00000000       1.000
 
 position of ions in fractional coordinates (direct lattice) 
   0.97566298  0.50019007  0.97536130
   0.08428750  0.83308291  0.19578434
   0.22187756  0.16463151  0.11175504
   0.33404102  0.49981522  0.00116728
   0.44513798  0.83261972  0.22121987
   0.55645954  0.16597922  0.08853812
   0.00169589  0.50071361  0.33433568
   0.11065153  0.83351811  0.55438828
   0.24569919  0.16735412  0.46701743
   0.66628094  0.50025042  0.35977121
   0.77807946  0.83314326  0.58019426
   0.88790031  0.16870183  0.44380051
   0.35745346  0.50095380  0.66633431
   0.46889693  0.83237953  0.88922125
   0.86060061  0.16666667  0.77777778
   0.00136196  0.99808159  0.00264182
   0.11228353  0.33269013  0.22313377
   0.22347292  0.66542763  0.11195050
   0.32943219  0.99811151  0.99601093
   0.44320878  0.33133296  0.22186695
   0.55903516  0.66459979  0.11323101
   0.66726349  0.99917166  0.00048683
   0.77839285  0.33475595  0.21949373
   0.88571817  0.66790932  0.10859203
   0.99911961  0.00200037  0.33368860
   0.11119904  0.33522182  0.55954463
   0.22358192  0.66873355  0.44232454
   0.33667689  0.99857738  0.33606182
   0.44455444  0.33416167  0.55506873
   0.55490392  0.66542402  0.44696352
   0.66692753  0.00064320  0.33242178
   0.77649793  0.33525174  0.55291374
   0.88930019  0.66790571  0.44360505
   0.00307422  0.00209467  0.66866250
   0.11218950  0.33123866  0.88689306
   0.21882100  0.66666667  0.77777778
   0.33222294  0.00132081  0.66610897
   0.44389176  0.33201252  0.88944659
   0.55378471  0.66666667  0.77777778
   0.66575273  0.99983279  0.66439610
   0.77913441  0.33350054  0.89115946
   0.89009593  0.66666667  0.77777778
   0.99967275  0.73421632  0.00017413
   0.00289253  0.26008710  0.99139006
   0.12195191  0.07027888  0.23204869
   0.10203108  0.59728400  0.21625275
   0.22073816  0.40131401  0.10266256
   0.22646919  0.92872905  0.11900385
   0.34352856  0.73516155  0.00954249
   0.33567235  0.26112511  0.00466981
   0.43870747  0.06894774  0.21011061
   0.45157686  0.59520163  0.22435735
   0.54742459  0.40262417  0.10943622
   0.54553465  0.92807765  0.10022416
   0.66069135  0.73242763  0.99596730
   0.66503576  0.26651326  0.00202115
   0.77309121  0.06951978  0.22341637
   0.78254151  0.59755910  0.22874813
   0.89781124  0.40219066  0.11491329
   0.89438579  0.93344703  0.11669341
   0.00499730  0.73813170  0.33119820
   0.00637464  0.26438559  0.34544494
   0.10878032  0.07220822  0.55088575
   0.11176386  0.59817178  0.54601307
   0.22308827  0.40525569  0.45533139
   0.21576614  0.93070917  0.44611933
   0.33157115  0.73577423  0.32680742
   0.32745261  0.26381355  0.33213918
   0.44079238  0.06682007  0.55353441
   0.44250181  0.60090570  0.55958826
   0.55547016  0.39988631  0.43886214
   0.56067572  0.93114268  0.44064226
   0.66355611  0.73604933  0.33930280
   0.66768100  0.26305445  0.32350686
   0.78928025  0.07324623  0.56416550
   0.77727640  0.59911701  0.55538143
   0.88524311  0.40460429  0.43655170
   0.89585338  0.93201933  0.45289299
   0.99711118  0.73622345  0.66105515
   0.99374502  0.26530645  0.66234019
   0.10918261  0.06802688  0.89321537
   0.11383381  0.59710988  0.89450041
   0.22671358  0.40218412  0.78258215
   0.22190921  0.93114922  0.77297341
   0.32612479  0.73801688  0.67111877
   0.33158946  0.26641713  0.66442630
   0.44494095  0.06691620  0.89112926
   0.43278379  0.59531645  0.88443679
   0.55077650  0.40014176  0.77633491
   0.55221937  0.93319158  0.77922065
   0.67037913  0.73398607  0.66474088
   0.67010202  0.26863963  0.66850157
   0.77937824  0.06469370  0.88705399
   0.78341603  0.59934726  0.89081468
   0.89532469  0.40036541  0.78713701
   0.88596546  0.93296793  0.76841855
 
 position of ions in cartesian coordinates  (Angst):
   4.13950458  7.15702292  7.11075560
   1.30834081  0.62246744 11.83672125
   0.00942404  1.62708837  2.33947080
  -1.39936636  2.44960655  7.10101517
  -0.00261047  3.26648321 11.83025585
  -1.60255976  4.07832893  2.35851286
   2.82895731  0.01681073  7.11528869
   4.23477123  0.81799854 11.84452937
   2.91831799  1.80397992  2.37976162
   0.23318363  4.88620417  7.10882329
   1.63011091  5.70822379 11.83932072
   0.00507974  6.50905929  2.39880369
   4.13663475  2.62553907  7.12020568
   5.55592595  3.44496722 11.82987065
   2.94986627  6.31123803  2.37140313
   0.02413978  0.01433809 14.18002680
   1.41783826  0.82559016  4.72762976
   0.00810490  1.64095703  9.45441747
   7.05180161  2.42457431 14.18495361
   0.00725481  3.25017202  4.70834234
  -1.40050945  4.09953193  9.44266193
  -2.81092686  4.89320162 14.19550395
  -1.43068076  5.70597055  4.75696293
  -2.82168030  6.49303013  9.48966029
  -1.39946728  7.32247966  0.02993200
   4.27238309  0.81987630  4.76512271
   2.80646548  1.64395104  9.50288275
   1.43033449  2.47329945 14.18858161
   2.82433611  3.26224329  4.75004059
   1.44422062  4.07147027  9.45588439
  -0.00500948  4.88858756  0.01064458
   1.40193964  5.69429029  4.76551774
   0.00126377  6.52148621  9.49112721
   5.65165289  0.02694734  0.03278978
   7.04132835  0.82927683  4.71001635
   5.66841470  1.61127468  9.47503823
   4.23768821  2.43850711  0.02178377
   5.65983862  3.25958612  4.72102236
   4.25149045  4.06545947  9.47503823
   2.81984260  4.88651849 14.20790550
   4.25625640  5.71583240  4.74217082
   2.82886613  6.52951708  9.47503823
  -4.22169108  7.32751597 10.43121043
   8.38838426  0.02886903  3.69962047
   1.45048658  0.89534495  0.99952263
   1.40490743  0.75157899  8.48675518
  -0.06100065  1.61970992  5.70204182
   0.05716756  1.66410186 13.19524385
  -1.36677467  2.52019820 10.44468202
  -1.37839351  2.46054359  3.70989616
  -0.07527636  3.21597313  0.98051135
  -0.00505694  3.31264694  8.45720712
  -1.38551771  4.01329983  5.72068631
  -1.45160470  4.00167784 13.18590413
   5.64817638  4.85046081 10.41031075
  -2.79402582  4.87370251  3.78643506
  -1.37702190  5.66599897  0.98869877
  -1.36785014  5.73757098  8.49072023
  -2.82128599  6.58051843  5.71455214
  -2.78771257  6.55774399 13.26226300
   2.79020154  0.04201136 10.48833742
   2.90149828  0.05013586  3.75776299
   4.20727810  0.80095366  1.02837819
   4.15734122  0.82506915  8.50086252
   2.91675719  1.63927387  5.75964055
   2.87364881  1.58785175 13.22485837
   1.37155240  2.43468677 10.45482431
   1.43058648  2.40249341  3.74957557
   2.82523737  3.23350659  0.95183929
   2.87331647  3.24839450  8.53976558
   1.37119290  4.07441030  5.68328168
   1.36825643  4.11487285 13.23099254
   0.07308644  4.86713078 10.45878936
  -0.08174309  4.89519074  3.73875171
   1.44121557  5.78687723  1.04318566
   1.42154015  5.70115810  8.51433411
  -0.04331158  6.49056913  5.75030083
   0.05421704  6.57070988 13.24350286
   1.38787942  7.31311971 10.46272124
   1.40945654  7.28641666  3.77228200
   7.10562452  0.80614288  0.97052412
   7.10082255  0.84253107  8.48735508
   5.67373626  1.66798253  5.71748495
   5.61664349  1.63501999 13.23259151
   4.31147592  2.39706560 10.48824659
   4.22811048  2.43500792  3.78807119
   5.66765787  3.26613110  0.95473494
   5.66636923  3.17931353  8.46182973
   4.24998375  4.04225017  5.68844028
   4.27234365  4.05515965 13.26163618
   2.80119023  4.91926058 10.43095088
   2.83071511  4.91523070  3.81966531
   4.21841961  5.71642238  0.92314081
   4.23722710  5.74835686  8.51912544
   2.88402911  6.56673003  5.69166669
   2.76905728  6.50035099 13.25840977
 


--------------------------------------------------------------------------------------------------------


 use serial FFT for orbitals x direction half grid
 k-point  1 :   0.0000 0.0000 0.0000  plane waves:   11212

 maximum and minimum number of plane-waves per node :     11212    11212

 maximum number of plane-waves:     11212
 maximum index in each direction: 
   IXMAX=   15   IYMAX=   25   IZMAX=   13
   IXMIN=    0   IYMIN=  -25   IZMIN=  -15

 The following grids will avoid any aliasing or wrap around errors in the Hartre
 e energy
  - symmetry arguments have not been applied
  - exchange correlation energies might require even more grid points
  - we recommend to set PREC=Normal or Accurate and rely on VASP defaults
 NGX is ok and might be reduce to    64
 NGY is ok and might be reduce to   108
 NGZ is ok and might be reduce to    60

 serial   3D FFT for wavefunctions
 parallel 3D FFT for charge:
    minimum data exchange during FFTs selected (reduces bandwidth)


 total amount of memory used by VASP MPI-rank0   146217. kBytes
=======================================================================

   base      :      30000. kBytes
   nonlr-proj:      39918. kBytes
   fftplans  :       9349. kBytes
   grid      :      55332. kBytes
   one-center:       1492. kBytes
   wavefun   :      10126. kBytes
 
     INWAV:  cpu time    0.0000: real time    0.0000
 Broyden mixing: mesh for mixing (old mesh)
   NGX = 31   NGY = 51   NGZ = 31
  (NGX  =128   NGY  =216   NGZ  =128)
  gives a total of  49011 points

 initial charge density was supplied:
 charge density of overlapping atoms calculated
 number of electron     639.0000000 magnetization      67.5000000
 keeping initial charge density in first step


--------------------------------------------------------------------------------------------------------


 Maximum index for non-local projection operator         6539
 Maximum index for augmentation-charges         1080 (set IRDMAX)


--------------------------------------------------------------------------------------------------------


 First call to EWALD:  gamma=   0.185
 Maximum number of real-space cells 3x 2x 3
 Maximum number of reciprocal cells 2x 4x 2

    FEWALD:  cpu time    0.0037: real time    0.0037


--------------------------------------- Iteration      1(   1)  ---------------------------------------


    POTLOK:  cpu time    0.2500: real time    0.2516
    SETDIJ:  cpu time    0.0281: real time    0.0282
     EDDAV:  cpu time    4.7866: real time    4.8157
    --------------------------------------------
      LOOP:  cpu time    5.0652: real time    5.0960

 eigenvalue-minimisations  :  1760
 total energy-change (2. order) : 0.1136154E+05  (-0.2919275E+05)
 number of electron     639.0000000 magnetization      67.5000000
 augmentation part      639.0000000 magnetization      67.5000000

 Free energy of the ion-electron system (eV)
  ---------------------------------------------------
  alpha Z        PSCENC =      1986.52557941
  Ewald energy   TEWEN  =    -37941.96417749
  -Hartree energ DENC   =    -18671.21745577
  -exchange      EXHF   =         0.00000000
  -V(xc)+E(xc)   XCENC  =      2600.55509992
  PAW double counting   =     45853.99093403   -47965.09191613
  entropy T*S    EENTRO =        -0.02455238
  eigenvalues    EBANDS =     10147.93897175
  atomic energy  EATOM  =     55350.83220507
  Solvation  Ediel_sol  =         0.00000000
  ---------------------------------------------------
  free energy    TOTEN  =     11361.54468841 eV

  energy without entropy =    11361.56924079  energy(sigma->0) =    11361.55696460


--------------------------------------------------------------------------------------------------------




--------------------------------------- Iteration      1(   2)  ---------------------------------------


     EDDAV:  cpu time    4.9461: real time    4.9579
    --------------------------------------------
      LOOP:  cpu time    4.9459: real time    4.9576

 eigenvalue-minimisations  :  1840
 total energy-change (2. order) :-0.9280660E+04  (-0.8343230E+04)
 number of electron     639.0000000 magnetization      67.5000000
 augmentation part      639.0000000 magnetization      67.5000000

 Free energy of the ion-electron system (eV)
  ---------------------------------------------------
  alpha Z        PSCENC =      1986.52557941
  Ewald energy   TEWEN  =    -37941.96417749
  -Hartree energ DENC   =    -18671.21745577
  -exchange      EXHF   =         0.00000000
  -V(xc)+E(xc)   XCENC  =      2600.55509992
  PAW double counting   =     45853.99093403   -47965.09191613
  entropy T*S    EENTRO =        -0.03691958
  eigenvalues    EBANDS =       867.29092774
  atomic energy  EATOM  =     55350.83220507
  Solvation  Ediel_sol  =         0.00000000
  ---------------------------------------------------
  free energy    TOTEN  =      2080.88427719 eV

  energy without entropy =     2080.92119677  energy(sigma->0) =     2080.90273698


--------------------------------------------------------------------------------------------------------




--------------------------------------- Iteration      1(   3)  ---------------------------------------


     EDDAV:  cpu time    4.9982: real time    5.0101
    --------------------------------------------
      LOOP:  cpu time    4.9983: real time    5.0102

 eigenvalue-minimisations  :  1856
 total energy-change (2. order) :-0.2439592E+04  (-0.2083848E+04)
 number of electron     639.0000000 magnetization      67.5000000
 augmentation part      639.0000000 magnetization      67.5000000

 Free energy of the ion-electron system (eV)
  ---------------------------------------------------
  alpha Z        PSCENC =      1986.52557941
  Ewald energy   TEWEN  =    -37941.96417749
  -Hartree energ DENC   =    -18671.21745577
  -exchange      EXHF   =         0.00000000
  -V(xc)+E(xc)   XCENC  =      2600.55509992
  PAW double counting   =     45853.99093403   -47965.09191613
  entropy T*S    EENTRO =        -0.13771020
  eigenvalues    EBANDS =     -1572.20015053
  atomic energy  EATOM  =     55350.83220507
  Solvation  Ediel_sol  =         0.00000000
  ---------------------------------------------------
  free energy    TOTEN  =      -358.70759170 eV

  energy without entropy =     -358.56988150  energy(sigma->0) =     -358.63873660


--------------------------------------------------------------------------------------------------------




--------------------------------------- Iteration      1(   4)  ---------------------------------------


     EDDAV:  cpu time    5.4161: real time    5.4290
    --------------------------------------------
      LOOP:  cpu time    5.4160: real time    5.4290

 eigenvalue-minimisations  :  2048
 total energy-change (2. order) :-0.3958349E+03  (-0.3794578E+03)
 number of electron     639.0000000 magnetization      67.5000000
 augmentation part      639.0000000 magnetization      67.5000000

 Free energy of the ion-electron system (eV)
  ---------------------------------------------------
  alpha Z        PSCENC =      1986.52557941
  Ewald energy   TEWEN  =    -37941.96417749
  -Hartree energ DENC   =    -18671.21745577
  -exchange      EXHF   =         0.00000000
  -V(xc)+E(xc)   XCENC  =      2600.55509992
  PAW double counting   =     45853.99093403   -47965.09191613
  entropy T*S    EENTRO =        -0.26323403
  eigenvalues    EBANDS =     -1967.90951106
  atomic energy  EATOM  =     55350.83220507
  Solvation  Ediel_sol  =         0.00000000
  ---------------------------------------------------
  free energy    TOTEN  =      -754.54247605 eV

  energy without entropy =     -754.27924202  energy(sigma->0) =     -754.41085904


--------------------------------------------------------------------------------------------------------




--------------------------------------- Iteration      1(   5)  ---------------------------------------


     EDDAV:  cpu time    6.5845: real time    6.6003
    CHARGE:  cpu time    0.3462: real time    0.3470
    MIXING:  cpu time    0.0050: real time    0.0050
    --------------------------------------------
      LOOP:  cpu time    6.9353: real time    6.9520

 eigenvalue-minimisations  :  2656
 total energy-change (2. order) :-0.2121988E+02  (-0.2099880E+02)
 number of electron     638.9999987 magnetization      73.6014685
 augmentation part      191.0489115 magnetization      50.9566923

 Broyden mixing:
  rms(total) = 0.15708E+02    rms(broyden)= 0.15706E+02
  rms(prec ) = 0.17196E+02
  weight for this iteration     100.00

 Free energy of the ion-electron system (eV)
  ---------------------------------------------------
  alpha Z        PSCENC =      1986.52557941
  Ewald energy   TEWEN  =    -37941.96417749
  -Hartree energ DENC   =    -18671.21745577
  -exchange      EXHF   =         0.00000000
  -V(xc)+E(xc)   XCENC  =      2600.55509992
  PAW double counting   =     45853.99093403   -47965.09191613
  entropy T*S    EENTRO =        -0.24407073
  eigenvalues    EBANDS =     -1989.14855574
  atomic energy  EATOM  =     55350.83220507
  Solvation  Ediel_sol  =         0.00000000
  ---------------------------------------------------
  free energy    TOTEN  =      -775.76235743 eV

  energy without entropy =     -775.51828671  energy(sigma->0) =     -775.64032207


--------------------------------------------------------------------------------------------------------




--------------------------------------- Iteration      1(   6)  ---------------------------------------


    POTLOK:  cpu time    0.2255: real time    0.2261
    SETDIJ:  cpu time    0.0287: real time    0.0287
     EDDAV:  cpu time    6.6395: real time    6.6553
    CHARGE:  cpu time    0.3378: real time    0.3386
    MIXING:  cpu time    0.0051: real time    0.0051
    --------------------------------------------
      LOOP:  cpu time    7.2367: real time    7.2539

 eigenvalue-minimisations  :  2688
 total energy-change (2. order) :-0.2999475E+02  (-0.1620575E+03)
 number of electron     638.9999980 magnetization      68.4962846
 augmentation part      242.7702832 magnetization      67.7360381

 Broyden mixing:
  rms(total) = 0.26509E+02    rms(broyden)= 0.26508E+02
  rms(prec ) = 0.27516E+02
  weight for this iteration     100.00

 eigenvalues of (default mixing * dielectric matrix)
  average eigenvalue GAMMA=   0.2687
  0.2687

 Free energy of the ion-electron system (eV)
  ---------------------------------------------------
  alpha Z        PSCENC =      1986.52557941
  Ewald energy   TEWEN  =    -37941.96417749
  -Hartree energ DENC   =    -17816.89576006
  -exchange      EXHF   =         0.00000000
  -V(xc)+E(xc)   XCENC  =      2642.42337265
  PAW double counting   =     50467.94888608   -52292.75690753
  entropy T*S    EENTRO =        -0.10578067
  eigenvalues    EBANDS =     -3201.76452926
  atomic energy  EATOM  =     55350.83220507
  Solvation  Ediel_sol  =         0.00000000
  ---------------------------------------------------
  free energy    TOTEN  =      -805.75711179 eV

  energy without entropy =     -805.65133113  energy(sigma->0) =     -805.70422146


--------------------------------------------------------------------------------------------------------




--------------------------------------- Iteration      1(   7)  ---------------------------------------


    POTLOK:  cpu time    0.2249: real time    0.2255
    SETDIJ:  cpu time    0.0287: real time    0.0288
     EDDAV:  cpu time    5.9895: real time    6.0038
    CHARGE:  cpu time    0.3360: real time    0.3368
    MIXING:  cpu time    0.0056: real time    0.0056
    --------------------------------------------
      LOOP:  cpu time    6.5847: real time    6.6003

 eigenvalue-minimisations  :  2368
 total energy-change (2. order) : 0.1926793E+03  (-0.4283586E+02)
 number of electron     638.9999983 magnetization      58.5795649
 augmentation part      223.4171380 magnetization      56.6586036

 Broyden mixing:
  rms(total) = 0.10489E+02    rms(broyden)= 0.10488E+02
  rms(prec ) = 0.11109E+02
  weight for this iteration     100.00

 eigenvalues of (default mixing * dielectric matrix)
  average eigenvalue GAMMA=   0.5597
  0.5597  0.5597

 Free energy of the ion-electron system (eV)
  ---------------------------------------------------
  alpha Z        PSCENC =      1986.52557941
  Ewald energy   TEWEN  =    -37941.96417749
  -Hartree energ DENC   =    -18129.76823661
  -exchange      EXHF   =         0.00000000
  -V(xc)+E(xc)   XCENC  =      2609.24147811
  PAW double counting   =     52460.23749556   -54482.01670364
  entropy T*S    EENTRO =        -0.04970097
  eigenvalues    EBANDS =     -2466.11577515
  atomic energy  EATOM  =     55350.83220507
  Solvation  Ediel_sol  =         0.00000000
  ---------------------------------------------------
  free energy    TOTEN  =      -613.07783571 eV

  energy without entropy =     -613.02813474  energy(sigma->0) =     -613.05298522


--------------------------------------------------------------------------------------------------------




--------------------------------------- Iteration      1(   8)  ---------------------------------------


    POTLOK:  cpu time    0.2251: real time    0.2256
    SETDIJ:  cpu time    0.0288: real time    0.0288
     EDDAV:  cpu time    6.3460: real time    6.3611
    CHARGE:  cpu time    0.3361: real time    0.3369
    MIXING:  cpu time    0.0054: real time    0.0054
    --------------------------------------------
      LOOP:  cpu time    6.9414: real time    6.9579

 eigenvalue-minimisations  :  2544
 total energy-change (2. order) : 0.1737428E+02  (-0.2110146E+02)
 number of electron     638.9999991 magnetization      55.8449443
 augmentation part      210.3455796 magnetization      47.9813955

 Broyden mixing:
  rms(total) = 0.82425E+01    rms(broyden)= 0.82413E+01
  rms(prec ) = 0.97069E+01
  weight for this iteration     100.00

 eigenvalues of (default mixing * dielectric matrix)
  average eigenvalue GAMMA=   0.4691
  0.5977  0.5977  0.2117

 Free energy of the ion-electron system (eV)
  ---------------------------------------------------
  alpha Z        PSCENC =      1986.52557941
  Ewald energy   TEWEN  =    -37941.96417749
  -Hartree energ DENC   =    -18149.97101057
  -exchange      EXHF   =         0.00000000
  -V(xc)+E(xc)   XCENC  =      2586.52239841
  PAW double counting   =     54644.26436385   -56768.38438550
  entropy T*S    EENTRO =        -0.03072941
  eigenvalues    EBANDS =     -2303.49779719
  atomic energy  EATOM  =     55350.83220507
  Solvation  Ediel_sol  =         0.00000000
  ---------------------------------------------------
  free energy    TOTEN  =      -595.70355342 eV

  energy without entropy =     -595.67282401  energy(sigma->0) =     -595.68818871


--------------------------------------------------------------------------------------------------------




--------------------------------------- Iteration      1(   9)  ---------------------------------------


    POTLOK:  cpu time    0.2251: real time    0.2256
    SETDIJ:  cpu time    0.0290: real time    0.0291
     EDDAV:  cpu time    6.2165: real time    6.2312
    CHARGE:  cpu time    0.3318: real time    0.3326
    MIXING:  cpu time    0.0056: real time    0.0056
    --------------------------------------------
      LOOP:  cpu time    6.8080: real time    6.8242

 eigenvalue-minimisations  :  2480
 total energy-change (2. order) :-0.2283414E+01  (-0.1476495E+02)
 number of electron     638.9999987 magnetization      50.5010636
 augmentation part      210.8377974 magnetization      49.8815536

 Broyden mixing:
  rms(total) = 0.72141E+01    rms(broyden)= 0.72133E+01
  rms(prec ) = 0.81676E+01
  weight for this iteration     100.00

 eigenvalues of (default mixing * dielectric matrix)
  average eigenvalue GAMMA=   0.4550
  0.6827  0.6827  0.2932  0.1616

 Free energy of the ion-electron system (eV)
  ---------------------------------------------------
  alpha Z        PSCENC =      1986.52557941
  Ewald energy   TEWEN  =    -37941.96417749
  -Hartree energ DENC   =    -18136.87804038
  -exchange      EXHF   =         0.00000000
  -V(xc)+E(xc)   XCENC  =      2584.17011853
  PAW double counting   =     55388.22066767   -57528.32526221
  entropy T*S    EENTRO =        -0.03082281
  eigenvalues    EBANDS =     -2300.53723493
  atomic energy  EATOM  =     55350.83220507
  Solvation  Ediel_sol  =         0.00000000
  ---------------------------------------------------
  free energy    TOTEN  =      -597.98696714 eV

  energy without entropy =     -597.95614433  energy(sigma->0) =     -597.97155574


--------------------------------------------------------------------------------------------------------




--------------------------------------- Iteration      1(  10)  ---------------------------------------


    POTLOK:  cpu time    0.2248: real time    0.2254
    SETDIJ:  cpu time    0.0290: real time    0.0291
     EDDAV:  cpu time    6.0870: real time    6.1014
    CHARGE:  cpu time    0.3362: real time    0.3370
    MIXING:  cpu time    0.0061: real time    0.0061
    --------------------------------------------
      LOOP:  cpu time    6.6831: real time    6.6990

 eigenvalue-minimisations  :  2416
 total energy-change (2. order) : 0.1950588E+02  (-0.3471736E+01)
 number of electron     638.9999987 magnetization      44.3503311
 augmentation part      213.2474872 magnetization      38.9507356

 Broyden mixing:
  rms(total) = 0.37489E+01    rms(broyden)= 0.37481E+01
  rms(prec ) = 0.41234E+01
  weight for this iteration     100.00

 eigenvalues of (default mixing * dielectric matrix)
  average eigenvalue GAMMA=   0.5067
  0.8319  0.8319  0.3638  0.3638  0.1421

 Free energy of the ion-electron system (eV)
  ---------------------------------------------------
  alpha Z        PSCENC =      1986.52557941
  Ewald energy   TEWEN  =    -37941.96417749
  -Hartree energ DENC   =    -18103.74410903
  -exchange      EXHF   =         0.00000000
  -V(xc)+E(xc)   XCENC  =      2582.94415875
  PAW double counting   =     56338.60020559   -58485.38884966
  entropy T*S    EENTRO =        -0.04414782
  eigenvalues    EBANDS =     -2306.24195276
  atomic energy  EATOM  =     55350.83220507
  Solvation  Ediel_sol  =         0.00000000
  ---------------------------------------------------
  free energy    TOTEN  =      -578.48108794 eV

  energy without entropy =     -578.43694012  energy(sigma->0) =     -578.45901403


--------------------------------------------------------------------------------------------------------




--------------------------------------- Iteration      1(  11)  ---------------------------------------


    POTLOK:  cpu time    0.2259: real time    0.2265
    SETDIJ:  cpu time    0.0290: real time    0.0290
     EDDAV:  cpu time    6.2608: real time    6.2756
    CHARGE:  cpu time    0.3405: real time    0.3413
    MIXING:  cpu time    0.0066: real time    0.0066
    --------------------------------------------
      LOOP:  cpu time    6.8627: real time    6.8790

 eigenvalue-minimisations  :  2496
 total energy-change (2. order) :-0.1010531E+02  (-0.5838001E+01)
 number of electron     638.9999990 magnetization      39.8514376
 augmentation part      211.6534499 magnetization      35.7529995

 Broyden mixing:
  rms(total) = 0.74969E+01    rms(broyden)= 0.74959E+01
  rms(prec ) = 0.90741E+01
  weight for this iteration     100.00

 eigenvalues of (default mixing * dielectric matrix)
  average eigenvalue GAMMA=   0.4807
  1.0215  0.7590  0.4100  0.4100  0.1418  0.1418

 Free energy of the ion-electron system (eV)
  ---------------------------------------------------
  alpha Z        PSCENC =      1986.52557941
  Ewald energy   TEWEN  =    -37941.96417749
  -Hartree energ DENC   =    -18123.75837870
  -exchange      EXHF   =         0.00000000
  -V(xc)+E(xc)   XCENC  =      2584.01577437
  PAW double counting   =     57427.47718427   -59590.07428404
  entropy T*S    EENTRO =        -0.07255581
  eigenvalues    EBANDS =     -2281.56774870
  atomic energy  EATOM  =     55350.83220507
  Solvation  Ediel_sol  =         0.00000000
  ---------------------------------------------------
  free energy    TOTEN  =      -588.58640163 eV

  energy without entropy =     -588.51384582  energy(sigma->0) =     -588.55012372


--------------------------------------------------------------------------------------------------------




--------------------------------------- Iteration      1(  12)  ---------------------------------------


    POTLOK:  cpu time    0.2249: real time    0.2255
    SETDIJ:  cpu time    0.0289: real time    0.0289
     EDDAV:  cpu time    6.0987: real time    6.1132
    CHARGE:  cpu time    0.3345: real time    0.3353
    MIXING:  cpu time    0.0065: real time    0.0065
    --------------------------------------------
      LOOP:  cpu time    6.6935: real time    6.7094

 eigenvalue-minimisations  :  2416
 total energy-change (2. order) : 0.1296986E+02  (-0.1006316E+02)
 number of electron     638.9999987 magnetization      34.8292112
 augmentation part      212.1200351 magnetization      28.4024325

 Broyden mixing:
  rms(total) = 0.31742E+01    rms(broyden)= 0.31729E+01
  rms(prec ) = 0.35693E+01
  weight for this iteration     100.00

 eigenvalues of (default mixing * dielectric matrix)
  average eigenvalue GAMMA=   0.5108
  1.4578  0.5930  0.4729  0.4729  0.3053  0.1629  0.1112

 Free energy of the ion-electron system (eV)
  ---------------------------------------------------
  alpha Z        PSCENC =      1986.52557941
  Ewald energy   TEWEN  =    -37941.96417749
  -Hartree energ DENC   =    -18147.63989720
  -exchange      EXHF   =         0.00000000
  -V(xc)+E(xc)   XCENC  =      2585.26676894
  PAW double counting   =     58235.38624971   -60415.18522361
  entropy T*S    EENTRO =        -0.05117865
  eigenvalues    EBANDS =     -2228.78686890
  atomic energy  EATOM  =     55350.83220507
  Solvation  Ediel_sol  =         0.00000000
  ---------------------------------------------------
  free energy    TOTEN  =      -575.61654272 eV

  energy without entropy =     -575.56536407  energy(sigma->0) =     -575.59095339


--------------------------------------------------------------------------------------------------------




--------------------------------------- Iteration      1(  13)  ---------------------------------------


    POTLOK:  cpu time    0.2251: real time    0.2256
    SETDIJ:  cpu time    0.0290: real time    0.0291
     EDDAV:  cpu time    5.6785: real time    5.6920
    CHARGE:  cpu time    0.3378: real time    0.3386
    MIXING:  cpu time    0.0066: real time    0.0066
    --------------------------------------------
      LOOP:  cpu time    6.2770: real time    6.2919

 eigenvalue-minimisations  :  2208
 total energy-change (2. order) :-0.1667530E+01  (-0.2069918E+01)
 number of electron     638.9999988 magnetization      30.1911730
 augmentation part      211.7700860 magnetization      24.5746847

 Broyden mixing:
  rms(total) = 0.35687E+01    rms(broyden)= 0.35680E+01
  rms(prec ) = 0.40170E+01
  weight for this iteration     100.00

 eigenvalues of (default mixing * dielectric matrix)
  average eigenvalue GAMMA=   0.5092
  1.7198  0.5163  0.5163  0.4247  0.4247  0.2166  0.1507  0.1044

 Free energy of the ion-electron system (eV)
  ---------------------------------------------------
  alpha Z        PSCENC =      1986.52557941
  Ewald energy   TEWEN  =    -37941.96417749
  -Hartree energ DENC   =    -18168.64600898
  -exchange      EXHF   =         0.00000000
  -V(xc)+E(xc)   XCENC  =      2585.69017448
  PAW double counting   =     59022.31386916   -61217.22038483
  entropy T*S    EENTRO =        -0.06296068
  eigenvalues    EBANDS =     -2194.75236907
  atomic energy  EATOM  =     55350.83220507
  Solvation  Ediel_sol  =         0.00000000
  ---------------------------------------------------
  free energy    TOTEN  =      -577.28407293 eV

  energy without entropy =     -577.22111224  energy(sigma->0) =     -577.25259258


--------------------------------------------------------------------------------------------------------




--------------------------------------- Iteration      1(  14)  ---------------------------------------


    POTLOK:  cpu time    0.2251: real time    0.2256
    SETDIJ:  cpu time    0.0291: real time    0.0292
     EDDAV:  cpu time    5.6138: real time    5.6272
    CHARGE:  cpu time    0.3410: real time    0.3418
    MIXING:  cpu time    0.0068: real time    0.0068
    --------------------------------------------
      LOOP:  cpu time    6.2157: real time    6.2306

 eigenvalue-minimisations  :  2176
 total energy-change (2. order) : 0.2040730E+01  (-0.1385382E+01)
 number of electron     638.9999986 magnetization      28.6451976
 augmentation part      212.1018856 magnetization      22.4680944

 Broyden mixing:
  rms(total) = 0.21710E+01    rms(broyden)= 0.21704E+01
  rms(prec ) = 0.24121E+01
  weight for this iteration     100.00

 eigenvalues of (default mixing * dielectric matrix)
  average eigenvalue GAMMA=   0.5044
  1.7688  0.4955  0.4955  0.4674  0.4674  0.4263  0.1568  0.1568  0.1055

 Free energy of the ion-electron system (eV)
  ---------------------------------------------------
  alpha Z        PSCENC =      1986.52557941
  Ewald energy   TEWEN  =    -37941.96417749
  -Hartree energ DENC   =    -18177.21571804
  -exchange      EXHF   =         0.00000000
  -V(xc)+E(xc)   XCENC  =      2585.64517402
  PAW double counting   =     59664.67749195   -61867.80263803
  entropy T*S    EENTRO =        -0.06009828
  eigenvalues    EBANDS =     -2175.88116170
  atomic energy  EATOM  =     55350.83220507
  Solvation  Ediel_sol  =         0.00000000
  ---------------------------------------------------
  free energy    TOTEN  =      -575.24334309 eV

  energy without entropy =     -575.18324481  energy(sigma->0) =     -575.21329395


--------------------------------------------------------------------------------------------------------




--------------------------------------- Iteration      1(  15)  ---------------------------------------


    POTLOK:  cpu time    0.2253: real time    0.2258
    SETDIJ:  cpu time    0.0290: real time    0.0290
     EDDAV:  cpu time    5.5474: real time    5.5606
    CHARGE:  cpu time    0.3380: real time    0.3388
    MIXING:  cpu time    0.0073: real time    0.0073
    --------------------------------------------
      LOOP:  cpu time    6.1470: real time    6.1616

 eigenvalue-minimisations  :  2144
 total energy-change (2. order) :-0.2528297E+01  (-0.9776439E+00)
 number of electron     638.9999986 magnetization      25.0485312
 augmentation part      211.5572062 magnetization      19.7779557

 Broyden mixing:
  rms(total) = 0.23613E+01    rms(broyden)= 0.23607E+01
  rms(prec ) = 0.26607E+01
  weight for this iteration     100.00

 eigenvalues of (default mixing * dielectric matrix)
  average eigenvalue GAMMA=   0.5306
  1.8720  0.7428  0.7428  0.4899  0.4899  0.3921  0.1883  0.1468  0.1381  0.1028

 Free energy of the ion-electron system (eV)
  ---------------------------------------------------
  alpha Z        PSCENC =      1986.52557941
  Ewald energy   TEWEN  =    -37941.96417749
  -Hartree energ DENC   =    -18187.65508545
  -exchange      EXHF   =         0.00000000
  -V(xc)+E(xc)   XCENC  =      2584.97275343
  PAW double counting   =     59807.01640275   -62014.04931655
  entropy T*S    EENTRO =        -0.06156743
  eigenvalues    EBANDS =     -2163.38843394
  atomic energy  EATOM  =     55350.83220507
  Solvation  Ediel_sol  =         0.00000000
  ---------------------------------------------------
  free energy    TOTEN  =      -577.77164019 eV

  energy without entropy =     -577.71007276  energy(sigma->0) =     -577.74085647


--------------------------------------------------------------------------------------------------------




--------------------------------------- Iteration      1(  16)  ---------------------------------------


    POTLOK:  cpu time    0.2249: real time    0.2254
    SETDIJ:  cpu time    0.0290: real time    0.0291
     EDDAV:  cpu time    5.9210: real time    5.9351
    CHARGE:  cpu time    0.3380: real time    0.3388
    MIXING:  cpu time    0.0078: real time    0.0078
    --------------------------------------------
      LOOP:  cpu time    6.5207: real time    6.5362

 eigenvalue-minimisations  :  2320
 total energy-change (2. order) :-0.3877999E+01  (-0.1282229E+01)
 number of electron     638.9999987 magnetization      23.6452010
 augmentation part      211.0388232 magnetization      17.8813656

 Broyden mixing:
  rms(total) = 0.17702E+01    rms(broyden)= 0.17694E+01
  rms(prec ) = 0.19499E+01
  weight for this iteration     100.00

 eigenvalues of (default mixing * dielectric matrix)
  average eigenvalue GAMMA=   0.5303
  1.9601  0.8249  0.8249  0.4963  0.4963  0.3394  0.3394  0.1729  0.1475  0.1280
  0.1036

 Free energy of the ion-electron system (eV)
  ---------------------------------------------------
  alpha Z        PSCENC =      1986.52557941
  Ewald energy   TEWEN  =    -37941.96417749
  -Hartree energ DENC   =    -18198.77471878
  -exchange      EXHF   =         0.00000000
  -V(xc)+E(xc)   XCENC  =      2583.44060201
  PAW double counting   =     60088.65835182   -62300.75896423
  entropy T*S    EENTRO =        -0.05349915
  eigenvalues    EBANDS =     -2149.55501770
  atomic energy  EATOM  =     55350.83220507
  Solvation  Ediel_sol  =         0.00000000
  ---------------------------------------------------
  free energy    TOTEN  =      -581.64963906 eV

  energy without entropy =     -581.59613990  energy(sigma->0) =     -581.62288948


--------------------------------------------------------------------------------------------------------




--------------------------------------- Iteration      1(  17)  ---------------------------------------


    POTLOK:  cpu time    0.2248: real time    0.2253
    SETDIJ:  cpu time    0.0291: real time    0.0292
     EDDAV:  cpu time    5.9848: real time    5.9990
    CHARGE:  cpu time    0.3382: real time    0.3390
    MIXING:  cpu time    0.0077: real time    0.0078
    --------------------------------------------
      LOOP:  cpu time    6.5846: real time    6.6003

 eigenvalue-minimisations  :  2352
 total energy-change (2. order) :-0.1663442E+01  (-0.6911070E+00)
 number of electron     638.9999986 magnetization      21.0416053
 augmentation part      211.1082249 magnetization      15.5050478

 Broyden mixing:
  rms(total) = 0.16422E+01    rms(broyden)= 0.16417E+01
  rms(prec ) = 0.18344E+01
  weight for this iteration     100.00

 eigenvalues of (default mixing * dielectric matrix)
  average eigenvalue GAMMA=   0.5535
  2.0990  1.0019  1.0019  0.5264  0.5264  0.3961  0.3961  0.1797  0.1028  0.1414
  0.1414  0.1294

 Free energy of the ion-electron system (eV)
  ---------------------------------------------------
  alpha Z        PSCENC =      1986.52557941
  Ewald energy   TEWEN  =    -37941.96417749
  -Hartree energ DENC   =    -18196.18484553
  -exchange      EXHF   =         0.00000000
  -V(xc)+E(xc)   XCENC  =      2582.69119336
  PAW double counting   =     60205.27629445   -62417.79551293
  entropy T*S    EENTRO =        -0.06077557
  eigenvalues    EBANDS =     -2152.63304154
  atomic energy  EATOM  =     55350.83220507
  Solvation  Ediel_sol  =         0.00000000
  ---------------------------------------------------
  free energy    TOTEN  =      -583.31308076 eV

  energy without entropy =     -583.25230520  energy(sigma->0) =     -583.28269298


--------------------------------------------------------------------------------------------------------




--------------------------------------- Iteration      1(  18)  ---------------------------------------


    POTLOK:  cpu time    0.2246: real time    0.2251
    SETDIJ:  cpu time    0.0291: real time    0.0292
     EDDAV:  cpu time    5.8840: real time    5.8980
    CHARGE:  cpu time    0.3381: real time    0.3389
    MIXING:  cpu time    0.0082: real time    0.0082
    --------------------------------------------
      LOOP:  cpu time    6.4839: real time    6.4994

 eigenvalue-minimisations  :  2304
 total energy-change (2. order) :-0.1927978E+01  (-0.3806843E+00)
 number of electron     638.9999986 magnetization      19.7652933
 augmentation part      211.4087196 magnetization      14.3280855

 Broyden mixing:
  rms(total) = 0.10034E+01    rms(broyden)= 0.10031E+01
  rms(prec ) = 0.11081E+01
  weight for this iteration     100.00

 eigenvalues of (default mixing * dielectric matrix)
  average eigenvalue GAMMA=   0.5668
  2.1292  1.1366  1.1366  0.5327  0.5327  0.4258  0.4258  0.3543  0.1783  0.1526
  0.1032  0.1303  0.1303

 Free energy of the ion-electron system (eV)
  ---------------------------------------------------
  alpha Z        PSCENC =      1986.52557941
  Ewald energy   TEWEN  =    -37941.96417749
  -Hartree energ DENC   =    -18187.43915520
  -exchange      EXHF   =         0.00000000
  -V(xc)+E(xc)   XCENC  =      2581.56932789
  PAW double counting   =     60421.47240211   -62633.84546952
  entropy T*S    EENTRO =        -0.06092271
  eigenvalues    EBANDS =     -2162.33084833
  atomic energy  EATOM  =     55350.83220507
  Solvation  Ediel_sol  =         0.00000000
  ---------------------------------------------------
  free energy    TOTEN  =      -585.24105877 eV

  energy without entropy =     -585.18013606  energy(sigma->0) =     -585.21059741


--------------------------------------------------------------------------------------------------------




--------------------------------------- Iteration      1(  19)  ---------------------------------------


    POTLOK:  cpu time    0.2244: real time    0.2250
    SETDIJ:  cpu time    0.0306: real time    0.0307
     EDDAV:  cpu time    5.9923: real time    6.0065
    CHARGE:  cpu time    0.3378: real time    0.3386
    MIXING:  cpu time    0.0087: real time    0.0087
    --------------------------------------------
      LOOP:  cpu time    6.5938: real time    6.6095

 eigenvalue-minimisations  :  2352
 total energy-change (2. order) :-0.1151977E+01  (-0.2399244E+00)
 number of electron     638.9999986 magnetization      17.7369036
 augmentation part      211.4883254 magnetization      12.5682942

 Broyden mixing:
  rms(total) = 0.99193E+00    rms(broyden)= 0.99174E+00
  rms(prec ) = 0.10999E+01
  weight for this iteration     100.00

 eigenvalues of (default mixing * dielectric matrix)
  average eigenvalue GAMMA=   0.5891
  2.3730  1.1907  1.1907  0.5964  0.5964  0.4877  0.4618  0.4618  0.2031  0.1743
  0.1031  0.1475  0.1306  0.1306

 Free energy of the ion-electron system (eV)
  ---------------------------------------------------
  alpha Z        PSCENC =      1986.52557941
  Ewald energy   TEWEN  =    -37941.96417749
  -Hartree energ DENC   =    -18182.43625909
  -exchange      EXHF   =         0.00000000
  -V(xc)+E(xc)   XCENC  =      2581.14110112
  PAW double counting   =     60468.42702957   -62679.88241240
  entropy T*S    EENTRO =        -0.05695645
  eigenvalues    EBANDS =     -2168.97914503
  atomic energy  EATOM  =     55350.83220507
  Solvation  Ediel_sol  =         0.00000000
  ---------------------------------------------------
  free energy    TOTEN  =      -586.39303529 eV

  energy without entropy =     -586.33607884  energy(sigma->0) =     -586.36455707


--------------------------------------------------------------------------------------------------------




--------------------------------------- Iteration      1(  20)  ---------------------------------------


    POTLOK:  cpu time    0.2248: real time    0.2253
    SETDIJ:  cpu time    0.0291: real time    0.0292
     EDDAV:  cpu time    5.9161: real time    5.9302
    CHARGE:  cpu time    0.3375: real time    0.3383
    MIXING:  cpu time    0.0085: real time    0.0085
    --------------------------------------------
      LOOP:  cpu time    6.5160: real time    6.5314

 eigenvalue-minimisations  :  2320
 total energy-change (2. order) :-0.3445299E+00  (-0.1813690E+00)
 number of electron     638.9999986 magnetization      17.1488685
 augmentation part      211.5918001 magnetization      12.3401876

 Broyden mixing:
  rms(total) = 0.67125E+00    rms(broyden)= 0.67102E+00
  rms(prec ) = 0.73205E+00
  weight for this iteration     100.00

 eigenvalues of (default mixing * dielectric matrix)
  average eigenvalue GAMMA=   0.5781
  2.5757  1.0526  1.0526  0.6854  0.6854  0.5069  0.5069  0.3793  0.3793  0.1749
  0.1031  0.1597  0.1518  0.1287  0.1287

 Free energy of the ion-electron system (eV)
  ---------------------------------------------------
  alpha Z        PSCENC =      1986.52557941
  Ewald energy   TEWEN  =    -37941.96417749
  -Hartree energ DENC   =    -18178.74895333
  -exchange      EXHF   =         0.00000000
  -V(xc)+E(xc)   XCENC  =      2581.00951406
  PAW double counting   =     60535.91847400   -62747.02201933
  entropy T*S    EENTRO =        -0.05082979
  eigenvalues    EBANDS =     -2173.23735777
  atomic energy  EATOM  =     55350.83220507
  Solvation  Ediel_sol  =         0.00000000
  ---------------------------------------------------
  free energy    TOTEN  =      -586.73756517 eV

  energy without entropy =     -586.68673538  energy(sigma->0) =     -586.71215028


--------------------------------------------------------------------------------------------------------




--------------------------------------- Iteration      1(  21)  ---------------------------------------


    POTLOK:  cpu time    0.2256: real time    0.2262
    SETDIJ:  cpu time    0.0289: real time    0.0290
     EDDAV:  cpu time    6.0582: real time    6.0726
    CHARGE:  cpu time    0.3384: real time    0.3392
    MIXING:  cpu time    0.0086: real time    0.0086
    --------------------------------------------
      LOOP:  cpu time    6.6598: real time    6.6756

 eigenvalue-minimisations  :  2384
 total energy-change (2. order) :-0.3510550E-01  (-0.6110182E-01)
 number of electron     638.9999987 magnetization      16.7745862
 augmentation part      211.6253775 magnetization      12.0193519

 Broyden mixing:
  rms(total) = 0.58423E+00    rms(broyden)= 0.58410E+00
  rms(prec ) = 0.63516E+00
  weight for this iteration     100.00

 eigenvalues of (default mixing * dielectric matrix)
  average eigenvalue GAMMA=   0.5726
  2.6670  0.9970  0.9970  0.8160  0.8160  0.5138  0.5138  0.4146  0.4146  0.1031
  0.1788  0.1638  0.1638  0.1303  0.1303  0.1419

 Free energy of the ion-electron system (eV)
  ---------------------------------------------------
  alpha Z        PSCENC =      1986.52557941
  Ewald energy   TEWEN  =    -37941.96417749
  -Hartree energ DENC   =    -18178.77636175
  -exchange      EXHF   =         0.00000000
  -V(xc)+E(xc)   XCENC  =      2581.00925302
  PAW double counting   =     60562.11694991   -62773.45403155
  entropy T*S    EENTRO =        -0.06051353
  eigenvalues    EBANDS =     -2173.00157377
  atomic energy  EATOM  =     55350.83220507
  Solvation  Ediel_sol  =         0.00000000
  ---------------------------------------------------
  free energy    TOTEN  =      -586.77267067 eV

  energy without entropy =     -586.71215715  energy(sigma->0) =     -586.74241391


--------------------------------------------------------------------------------------------------------




--------------------------------------- Iteration      1(  22)  ---------------------------------------


    POTLOK:  cpu time    0.2245: real time    0.2251
    SETDIJ:  cpu time    0.0289: real time    0.0290
     EDDAV:  cpu time    5.7986: real time    5.8124
    CHARGE:  cpu time    0.3379: real time    0.3387
    MIXING:  cpu time    0.0089: real time    0.0089
    --------------------------------------------
      LOOP:  cpu time    6.3988: real time    6.4141

 eigenvalue-minimisations  :  2256
 total energy-change (2. order) : 0.2348908E-01  (-0.3281214E-01)
 number of electron     638.9999986 magnetization      16.5260632
 augmentation part      211.6657790 magnetization      11.7691818

 Broyden mixing:
  rms(total) = 0.42962E+00    rms(broyden)= 0.42951E+00
  rms(prec ) = 0.45599E+00
  weight for this iteration     100.00

 eigenvalues of (default mixing * dielectric matrix)
  average eigenvalue GAMMA=   0.5746
  2.6855  0.9569  0.9569  0.9586  0.9586  0.5031  0.5031  0.4334  0.4334  0.3830
  0.1840  0.1763  0.1031  0.1474  0.1304  0.1304  0.1238

 Free energy of the ion-electron system (eV)
  ---------------------------------------------------
  alpha Z        PSCENC =      1986.52557941
  Ewald energy   TEWEN  =    -37941.96417749
  -Hartree energ DENC   =    -18178.43049242
  -exchange      EXHF   =         0.00000000
  -V(xc)+E(xc)   XCENC  =      2580.96797356
  PAW double counting   =     60577.37376798   -62788.88924892
  entropy T*S    EENTRO =        -0.05300425
  eigenvalues    EBANDS =     -2173.11178453
  atomic energy  EATOM  =     55350.83220507
  Solvation  Ediel_sol  =         0.00000000
  ---------------------------------------------------
  free energy    TOTEN  =      -586.74918159 eV

  energy without entropy =     -586.69617734  energy(sigma->0) =     -586.72267946


--------------------------------------------------------------------------------------------------------




--------------------------------------- Iteration      1(  23)  ---------------------------------------


    POTLOK:  cpu time    0.2248: real time    0.2253
    SETDIJ:  cpu time    0.0291: real time    0.0292
     EDDAV:  cpu time    5.8299: real time    5.8438
    CHARGE:  cpu time    0.3386: real time    0.3394
    MIXING:  cpu time    0.0093: real time    0.0093
    --------------------------------------------
      LOOP:  cpu time    6.4317: real time    6.4471

 eigenvalue-minimisations  :  2272
 total energy-change (2. order) :-0.2221606E-01  (-0.8496993E-02)
 number of electron     638.9999986 magnetization      16.2008318
 augmentation part      211.6260241 magnetization      11.4816470

 Broyden mixing:
  rms(total) = 0.36600E+00    rms(broyden)= 0.36596E+00
  rms(prec ) = 0.39185E+00
  weight for this iteration     100.00

 eigenvalues of (default mixing * dielectric matrix)
  average eigenvalue GAMMA=   0.5892
  2.6696  1.0979  1.0979  1.1158  0.9655  0.5474  0.5474  0.4829  0.4407  0.4407
  0.2078  0.1832  0.1669  0.1031  0.1487  0.1282  0.1282  0.1340

 Free energy of the ion-electron system (eV)
  ---------------------------------------------------
  alpha Z        PSCENC =      1986.52557941
  Ewald energy   TEWEN  =    -37941.96417749
  -Hartree energ DENC   =    -18178.39346305
  -exchange      EXHF   =         0.00000000
  -V(xc)+E(xc)   XCENC  =      2580.95281445
  PAW double counting   =     60561.57876615   -62773.12354673
  entropy T*S    EENTRO =        -0.05946683
  eigenvalues    EBANDS =     -2173.12010865
  atomic energy  EATOM  =     55350.83220507
  Solvation  Ediel_sol  =         0.00000000
  ---------------------------------------------------
  free energy    TOTEN  =      -586.77139765 eV

  energy without entropy =     -586.71193083  energy(sigma->0) =     -586.74166424


--------------------------------------------------------------------------------------------------------




[...]
   -.475E+02 -.108E+02 0.346E+03   0.515E+02 0.134E+02 -.364E+03   -.401E+01 -.261E+01 0.175E+02   -.105E-01 -.197E-01 0.150E-01
 -----------------------------------------------------------------------------------------------
   -.217E+00 0.378E+00 -.164E-02   0.405E-12 0.229E-12 0.625E-12   0.216E+00 -.373E+00 0.654E-11   0.748E-02 -.129E-01 0.188E-06
 
 
 POSITION                                       TOTAL-FORCE (eV/Angst)
 -----------------------------------------------------------------------------------
      4.15282      7.14386      7.16072        -0.001533     -0.009371      0.000284
      1.30619      0.62500     11.93490         0.012457      0.008364      0.009277
      0.01461      1.62126      2.36116         0.000964     -0.002112     -0.000262
     -1.40370      2.44891      7.14472        -0.007644     -0.004852     -0.003543
     -0.00623      3.26569     11.91915        -0.006596     -0.001932     -0.000193
     -1.60480      4.06840      2.37869        -0.005301     -0.000688      0.000746
      2.83092      0.02844      7.16454         0.004971      0.004746      0.000193
      4.23700      0.83029     11.93897         0.008024      0.004194      0.003543
      2.92582      1.80888      2.39454         0.003246      0.004247     -0.000746
      0.23949      4.88442      7.14879        -0.013472     -0.006607     -0.009277
      1.64048      5.69336     11.92850         0.008882     -0.003358     -0.000284
      0.01329      6.49578      2.41206         0.001347     -0.001890      0.000262
      4.13826      2.64681      7.16881        -0.004275      0.019781     -0.002519
      5.54232      3.45745     11.92041        -0.014993      0.013593      0.002519
      2.97110      6.27902      2.38938         0.007978     -0.013819      0.000000
      0.02431      0.02105     14.28367         0.000273      0.001235     -0.001106
      1.42160      0.82331      4.76605        -0.001168     -0.002651      0.001490
      0.01460      1.64571      9.51722         0.006372      0.001744     -0.001837
      7.06150      2.42903     14.28527        -0.000506      0.002038     -0.000937
      0.02225      3.24583      4.73891         0.003908     -0.001611     -0.001546
     -1.40265      4.08622      9.50770        -0.009892     -0.006536     -0.001103
     -2.80180      4.88992     14.30717         0.000886      0.000998      0.000872
     -1.42986      5.69591      4.79596         0.000161     -0.000518      0.000753
     -2.79707      6.49413      9.55938         0.003446      0.009236      0.002675
     -1.39745      7.30145      0.03432        -0.000559     -0.004190      0.001546
      4.26930      0.81696      4.80395        -0.001512      0.001457      0.000937
      2.81853      1.64804      9.57599         0.010606      0.005298      0.001103
      1.43810      2.47645     14.28773         0.000368     -0.000398     -0.000753
      2.82207      3.26159      4.77651        -0.001307     -0.000268     -0.000872
      1.43042      4.05959      9.52430        -0.009722      0.001633     -0.002675
      0.00084      4.87831      0.00718         0.002879     -0.000314     -0.001490
      1.40348      5.69259      4.80002        -0.001206      0.000381      0.001106
      0.00133      6.51332      9.56647        -0.004696     -0.004646      0.001837
      5.65052      0.03363      0.03588         0.003408     -0.001635      0.002588
      7.04007      0.83589      4.74288        -0.000288     -0.003769     -0.002588
      5.67629      1.60413      9.54461         0.002358     -0.004084      0.000000
      4.23437      2.43958      0.02630        -0.002852     -0.000720      0.002835
      5.66453      3.26528      4.75246         0.002049      0.002110     -0.002835
      4.25177      4.07148      9.54461        -0.002411      0.004175     -0.000000
      2.83181      4.88587     14.31164         0.003900      0.001105      0.001774
      4.25646      5.70840      4.77758        -0.002907     -0.002825     -0.001774
      2.83398      6.52716      9.54461        -0.001528      0.002647     -0.000000
     -4.16226      7.35438     10.50058         0.026105      0.025044      0.005244
      8.38413      0.02821      3.74091        -0.004309     -0.015168     -0.000861
      1.44364      0.90368      1.00438        -0.000020      0.001892      0.000580
      1.41539      0.76377      8.54586         0.003839      0.011561      0.001661
     -0.04947      1.60421      5.73412         0.001484     -0.006871     -0.003460
      0.07801      1.66755     13.29085        -0.000929      0.002437     -0.001211
     -1.38118      2.49958     10.50846         0.002976     -0.012526     -0.003291
     -1.35396      2.46575      3.74063         0.005551     -0.003199     -0.002264
     -0.06680      3.21861      0.97711         0.001651      0.003970     -0.005995
     -0.01850      3.29770      8.52224        -0.009079     -0.016610      0.003410
     -1.35235      4.01360      5.76324         0.010821      0.002534      0.002208
     -1.43834      3.98189     13.27950        -0.009355      0.000230     -0.003516
      5.65827      4.84576     10.47771        -0.002811      0.003186     -0.001302
     -2.78559      4.86436      3.82215        -0.000199      0.001317      0.000532
     -1.36926      5.64441      0.99354         0.002699     -0.001512     -0.000366
     -1.36004      5.73270      8.55907        -0.012409      0.000600      0.002145
     -2.82151      6.56927      5.75564        -0.002007     -0.004668      0.000814
     -2.78351      6.55385     13.36674         0.000932     -0.002432      0.000430
      2.80932      0.05507     10.56144         0.018924     -0.000442     -0.003410
      2.89277      0.05204      3.79611        -0.004263      0.000555      0.005995
      4.18834      0.79032      1.03260        -0.000005     -0.006407      0.002264
      4.18186      0.83612      8.57523         0.009360     -0.008840      0.003291
      2.92672      1.62678      5.80419         0.004479      0.008217      0.003516
      2.85626      1.56817     13.32045        -0.007605     -0.008104     -0.002208
      1.37133      2.43438     10.52462         0.005685      0.011047     -0.002145
      1.44319      2.39290      3.77969        -0.000040     -0.003094      0.000366
      2.82690      3.22946      0.95108        -0.001042      0.000831     -0.000532
      2.87797      3.24056      8.61151        -0.001353      0.004027      0.001302
      1.37193      4.07771      5.71695         0.001640     -0.002022     -0.000430
      1.37757      4.11833     13.32804         0.005046     -0.000596     -0.000814
      0.06472      4.85923     10.53783        -0.011931      0.002456     -0.001661
     -0.07978      4.89941      3.76885        -0.001629      0.000963     -0.000580
      1.45584      5.77871      1.03785         0.015291     -0.003853      0.000861
      1.36801      5.67201      8.58311        -0.034742     -0.010085     -0.005244
     -0.04929      6.46933      5.79284        -0.001646      0.002023      0.001211
      0.06931      6.54806     13.34957         0.005208     -0.004720      0.003460
      1.38893      7.29388     10.53916         0.001271     -0.005773      0.000833
      1.40677      7.27849      3.80778        -0.004500      0.002086      0.003251
      7.10981      0.82059      0.97098         0.000444      0.004940     -0.003251
      7.11462      0.84905      8.55006         0.004364     -0.003987     -0.000833
      5.67714      1.68044      5.74779         0.002633      0.002653     -0.006576
      5.60978      1.64155     13.34143        -0.003614     -0.000953      0.006576
      4.32991      2.39958     10.56328         0.006776      0.005197      0.002932
      4.20814      2.42650      3.82096        -0.006659     -0.002362     -0.000347
      5.68897      3.28145      0.95780         0.005375      0.004586      0.000347
      5.66060      3.16785      8.52593        -0.007888     -0.003269     -0.002932
      4.23798      4.03915      5.71792        -0.002490      0.008849     -0.004613
      4.28666      4.06725     13.37130        -0.006418      0.006581      0.004613
      2.78401      4.92113     10.48810        -0.007803      0.003054     -0.008653
      2.83094      4.92591      3.84347        -0.001485     -0.006227     -0.000289
      4.21301      5.72385      0.93529         0.006136     -0.001827      0.000289
      4.24983      5.76742      8.60111         0.001257      0.008285      0.008653
      2.89028      6.55596      5.72942         0.001473     -0.001656     -0.000766
      2.78089      6.49280     13.35980         0.000697     -0.002104      0.000766
 -----------------------------------------------------------------------------------
    total drift:                                0.005727     -0.007922     -0.001639


--------------------------------------------------------------------------------------------------------



  FREE ENERGIE OF THE ION-ELECTRON SYSTEM (eV)
  ---------------------------------------------------
  free  energy   TOTEN  =      -586.8736197615 eV

  energy  without entropy=     -586.8237767983  energy(sigma->0) =     -586.84869828
 
 d Force = 0.5576436E-03[ 0.557E-03, 0.558E-03]  d Energy = 0.5364724E-03 0.212E-04
 d Force =-0.6687122E+00[-0.671E+00,-0.666E+00]  d Ewald  =-0.1124292E+01 0.456E+00


--------------------------------------------------------------------------------------------------------


    POTLOK:  cpu time    0.2557: real time    0.2563


--------------------------------------------------------------------------------------------------------


 Quasi-Newton relaxation of ions (Broydens 2nd method)
  g(Force)  = 0.483E-03   g(Stress)= 0.660E-04

 retain information from N=  1 steps
 eigenvalues of (default step * inverse Hessian matrix)
  average eigenvalue of G=   0.9889
 eigenvalue spectrum of G is  0.9889


--------------------------------------------------------------------------------------------------------


     LOOP+:  cpu time   53.2029: real time   53.4284
    4ORBIT:  cpu time    0.0000: real time    0.0000

volume of typ            1:    13.2 %

volume of typ            2:    19.4 %

volume of typ            3:     9.9 %
 
total charge     
 
# of ion       s       p       d       tot
------------------------------------------
    1        2.076   0.247   0.093   2.415
    2        2.078   0.250   0.095   2.423
    3        2.072   0.236   0.089   2.397
    4        2.074   0.241   0.091   2.406
    5        2.073   0.238   0.090   2.401
    6        2.075   0.243   0.092   2.411
    7        2.073   0.238   0.090   2.401
    8        2.074   0.241   0.091   2.406
    9        2.075   0.243   0.092   2.411
   10        2.078   0.250   0.095   2.423
   11        2.076   0.247   0.093   2.415
   12        2.072   0.236   0.089   2.397
   13        2.075   0.245   0.092   2.413
   14        2.075   0.245   0.092   2.413
   15        2.077   0.252   0.095   2.424
   16        0.277   0.370   7.848   8.494
   17        0.269   0.355   7.853   8.478
   18        0.284   0.386   7.841   8.511
   19        0.286   0.392   7.840   8.518
   20        0.284   0.387   7.842   8.512
   21        0.280   0.378   7.846   8.504
   22        0.278   0.373   7.837   8.488
   23        0.281   0.381   7.846   8.508
   24        0.286   0.389   7.838   8.513
   25        0.284   0.387   7.842   8.512
   26        0.286   0.392   7.840   8.518
   27        0.280   0.378   7.846   8.504
   28        0.281   0.381   7.846   8.508
   29        0.278   0.373   7.837   8.488
   30        0.286   0.389   7.838   8.513
   31        0.269   0.355   7.853   8.478
   32        0.277   0.370   7.848   8.494
   33        0.284   0.386   7.841   8.511
   34        0.287   0.394   7.839   8.520
   35        0.287   0.394   7.839   8.520
   36        0.278   0.374   7.845   8.496
   37        0.281   0.379   7.843   8.502
   38        0.281   0.379   7.843   8.502
   39        0.270   0.357   7.846   8.473
   40        0.278   0.373   7.837   8.488
   41        0.278   0.373   7.837   8.488
   42        0.275   0.365   7.844   8.484
   43        1.275   2.755   0.007   4.037
   44        1.268   2.766   0.006   4.040
   45        1.270   2.762   0.006   4.038
   46        1.271   2.759   0.006   4.037
   47        1.270   2.763   0.006   4.039
   48        1.264   2.777   0.006   4.047
   49        1.270   2.762   0.006   4.039
   50        1.265   2.774   0.006   4.045
   51        1.270   2.763   0.006   4.039
   52        1.264   2.775   0.006   4.046
   53        1.271   2.761   0.006   4.038
   54        1.268   2.768   0.006   4.042
   55        1.268   2.772   0.007   4.047
   56        1.269   2.767   0.007   4.043
   57        1.263   2.781   0.007   4.050
   58        1.266   2.773   0.007   4.045
   59        1.262   2.783   0.007   4.052
   60        1.268   2.770   0.007   4.046
   61        1.264   2.775   0.006   4.046
   62        1.270   2.763   0.006   4.039
   63        1.265   2.774   0.006   4.045
   64        1.270   2.762   0.006   4.039
   65        1.268   2.768   0.006   4.042
   66        1.271   2.761   0.006   4.038
   67        1.266   2.773   0.007   4.045
   68        1.263   2.781   0.007   4.050
   69        1.269   2.767   0.007   4.043
   70        1.268   2.772   0.007   4.047
   71        1.268   2.770   0.007   4.046
   72        1.262   2.783   0.007   4.052
   73        1.271   2.759   0.006   4.037
   74        1.270   2.762   0.006   4.038
   75        1.268   2.766   0.006   4.040
   76        1.275   2.755   0.007   4.037
   77        1.264   2.777   0.006   4.047
   78        1.270   2.763   0.006   4.039
   79        1.263   2.780   0.007   4.050
   80        1.266   2.773   0.007   4.046
   81        1.266   2.773   0.007   4.046
   82        1.263   2.780   0.007   4.050
   83        1.266   2.773   0.007   4.046
   84        1.266   2.773   0.007   4.046
   85        1.267   2.769   0.006   4.043
   86        1.275   2.753   0.007   4.035
   87        1.275   2.753   0.007   4.035
   88        1.267   2.769   0.006   4.043
   89        1.274   2.756   0.007   4.036
   90        1.274   2.756   0.007   4.036
   91        1.273   2.759   0.007   4.039
   92        1.273   2.761   0.007   4.040
   93        1.273   2.761   0.007   4.040
   94        1.273   2.759   0.007   4.039
   95        1.275   2.755   0.007   4.036
   96        1.275   2.755   0.007   4.036
--------------------------------------------------
tot         107.19  163.28  213.49  483.96
 
magnetization (x)
 
# of ion       s       p       d       tot
------------------------------------------
    1        0.006   0.014   0.001   0.021
    2        0.007   0.011   0.001   0.018
    3        0.006   0.010   0.001   0.017
    4        0.006   0.011   0.001   0.018
    5        0.006   0.011   0.001   0.017
    6        0.006   0.012   0.001   0.019
    7        0.006   0.011   0.001   0.017
    8        0.006   0.011   0.001   0.018
    9        0.006   0.012   0.001   0.019
   10        0.007   0.011   0.001   0.018
   11        0.006   0.014   0.001   0.021
   12        0.006   0.010   0.001   0.017
   13        0.006   0.013   0.001   0.020
   14        0.006   0.013   0.001   0.020
   15        0.006   0.015   0.002   0.023
   16        0.000  -0.001   0.501   0.500
   17        0.000  -0.001   0.665   0.665
   18       -0.000  -0.001   0.335   0.334
   19       -0.001  -0.001   0.280   0.279
   20       -0.000  -0.001   0.320   0.319
   21       -0.000  -0.001   0.427   0.426
   22       -0.001  -0.001   0.389   0.388
   23       -0.000  -0.001   0.394   0.393
   24       -0.001  -0.001   0.262   0.261
   25       -0.000  -0.001   0.320   0.319
   26       -0.001  -0.001   0.280   0.279
   27       -0.000  -0.001   0.427   0.426
   28       -0.000  -0.001   0.394   0.393
   29       -0.001  -0.001   0.389   0.388
   30       -0.001  -0.001   0.262   0.261
   31        0.000  -0.001   0.665   0.665
   32        0.000  -0.001   0.501   0.500
   33       -0.000  -0.001   0.335   0.334
   34       -0.001  -0.001   0.255   0.254
   35       -0.001  -0.001   0.255   0.254
   36       -0.000  -0.001   0.439   0.438
   37       -0.000  -0.001   0.398   0.397
   38       -0.000  -0.001   0.398   0.397
   39       -0.000  -0.001   0.590   0.589
   40       -0.001  -0.001   0.385   0.384
   41       -0.001  -0.001   0.385   0.384
   42       -0.000  -0.001   0.508   0.507
   43        0.011   0.085   0.000   0.097
   44        0.012   0.091   0.000   0.103
   45        0.011   0.081   0.000   0.092
   46        0.011   0.068   0.000   0.079
   47        0.009   0.057   0.000   0.066
   48        0.006   0.025   0.000   0.031
   49        0.010   0.067   0.000   0.077
   50        0.005   0.015   0.000   0.020
   51        0.011   0.073   0.000   0.084
   52        0.004   0.013   0.000   0.017
   53        0.011   0.081   0.000   0.093
   54        0.011   0.087   0.000   0.099
   55        0.004   0.003   0.000   0.007
   56        0.004   0.002   0.000   0.006
   57        0.004   0.003   0.000   0.007
   58        0.004   0.002   0.000   0.007
   59        0.004   0.006   0.000   0.011
   60        0.004   0.009   0.000   0.013
   61        0.004   0.013   0.000   0.017
   62        0.011   0.073   0.000   0.084
   63        0.005   0.015   0.000   0.020
   64        0.010   0.067   0.000   0.077
   65        0.011   0.087   0.000   0.099
   66        0.011   0.081   0.000   0.093
   67        0.004   0.002   0.000   0.007
   68        0.004   0.003   0.000   0.007
   69        0.004   0.002   0.000   0.006
   70        0.004   0.003   0.000   0.007
   71        0.004   0.009   0.000   0.013
   72        0.004   0.006   0.000   0.011
   73        0.011   0.068   0.000   0.079
   74        0.011   0.081   0.000   0.092
   75        0.012   0.091   0.000   0.103
   76        0.011   0.085   0.000   0.097
   77        0.006   0.025   0.000   0.031
   78        0.009   0.057   0.000   0.066
   79        0.004   0.009   0.000   0.013
   80        0.004   0.003   0.000   0.008
   81        0.004   0.003   0.000   0.008
   82        0.004   0.009   0.000   0.013
   83        0.004   0.000   0.000   0.004
   84        0.004   0.000   0.000   0.004
   85        0.012   0.094   0.000   0.106
   86        0.010   0.069   0.000   0.080
   87        0.010   0.069   0.000   0.080
   88        0.012   0.094   0.000   0.106
   89        0.010   0.065   0.000   0.075
   90        0.010   0.065   0.000   0.075
   91        0.010   0.071   0.000   0.081
   92        0.010   0.072   0.000   0.082
   93        0.010   0.072   0.000   0.082
   94        0.010   0.071   0.000   0.081
   95        0.011   0.081   0.000   0.093
   96        0.011   0.081   0.000   0.093
--------------------------------------------------
tot           0.51    2.62   10.78   13.92
 

 total amount of memory used by VASP MPI-rank0   146217. kBytes
=======================================================================

   base      :      30000. kBytes
   nonlr-proj:      39918. kBytes
   fftplans  :       9349. kBytes
   grid      :      55332. kBytes
   one-center:       1492. kBytes
   wavefun   :      10126. kBytes
 
  
  
 General timing and accounting informations for this job:
 ========================================================
  
                  Total CPU time used (sec):     1504.231
                            User time (sec):     1495.722
                          System time (sec):        8.509
                         Elapsed time (sec):     1515.131
  
                   Maximum memory used (kb):      211144.
                   Average memory used (kb):           0.
  
                          Minor page faults:        34717
                          Major page faults:           57
                 Voluntary context switches:         1052
