 vasp.5.4.4.18Apr17-6-g9f103f2a35 (build May 12 2020 05:39:39) gamma-only       
  
 MD_VERSION_INFO: Compiled 2020-05-12T12:39:39-UTC in devlin.sd.materialsdesign.
 com:/home/medea2/data/build/wwolf/vasp-gpu5.4.4/13047/x86_64/src/src/build/gam 
 from svn 13047
 
 This VASP executable licensed from Materials Design, Inc.
 
 executed on                        Lin64 date 2023.01.20  03:01:25
 running on   16 total cores
 distrk:  each k-point on   16 cores,    1 groups
 distr:  one band on NCORES_PER_BAND=   1 cores,   16 groups


--------------------------------------------------------------------------------------------------------


 INCAR:
 POTCAR:    PAW_PBE Li_sv 10Sep2004               
 POTCAR:    PAW_PBE Ni 02Aug2007                  
 POTCAR:    PAW_PBE O 08Apr2002                   

 ----------------------------------------------------------------------------- 
|                                                                             |
|           W    W    AA    RRRRR   N    N  II  N    N   GGGG   !!!           |
|           W    W   A  A   R    R  NN   N  II  NN   N  G    G  !!!           |
|           W    W  A    A  R    R  N N  N  II  N N  N  G       !!!           |
|           W WW W  AAAAAA  RRRRR   N  N N  II  N  N N  G  GGG   !            |
|           WW  WW  A    A  R   R   N   NN  II  N   NN  G    G                |
|           W    W  A    A  R    R  N    N  II  N    N   GGGG   !!!           |
|                                                                             |
|      For optimal performance we recommend to set                            |
|        NCORE= 4 - approx SQRT( number of cores)                             |
|      NCORE specifies how many cores store one orbital (NPAR=cpu/NCORE).     |
|      This setting can  greatly improve the performance of VASP for DFT.     |
|      The default,   NCORE=1            might be grossly inefficient         |
|      on modern multi-core architectures or massively parallel machines.     |
|      Do your own testing !!!!                                               |
|      Unfortunately you need to use the default for GW and RPA calculations. |
|      (for HF NCORE is supported but not extensively tested yet)             |
|                                                                             |
 ----------------------------------------------------------------------------- 

 POTCAR:    PAW_PBE Li_sv 10Sep2004               
  local pseudopotential read in
  atomic valenz-charges read in
  non local Contribution for L=           0  read in
    real space projection operators read in
  non local Contribution for L=           0  read in
    real space projection operators read in
  non local Contribution for L=           1  read in
    real space projection operators read in
    PAW grid and wavefunctions read in
 
   number of l-projection  operators is LMAX  =           3
   number of lm-projection operators is LMMAX =           5
 
 POTCAR:    PAW_PBE Ni 02Aug2007                  
  local pseudopotential read in
  partial core-charges read in
  partial kinetic energy density read in
  atomic valenz-charges read in
  non local Contribution for L=           2  read in
    real space projection operators read in
  non local Contribution for L=           2  read in
    real space projection operators read in
  non local Contribution for L=           0  read in
    real space projection operators read in
  non local Contribution for L=           0  read in
    real space projection operators read in
  non local Contribution for L=           1  read in
    real space projection operators read in
  non local Contribution for L=           1  read in
    real space projection operators read in
    PAW grid and wavefunctions read in
 
   number of l-projection  operators is LMAX  =           6
   number of lm-projection operators is LMMAX =          18
 
 POTCAR:    PAW_PBE O 08Apr2002                   
  local pseudopotential read in
  partial core-charges read in
  partial kinetic energy density read in
  kinetic energy density of atom read in
  atomic valenz-charges read in
  non local Contribution for L=           0  read in
    real space projection operators read in
  non local Contribution for L=           0  read in
    real space projection operators read in
  non local Contribution for L=           1  read in
    real space projection operators read in
  non local Contribution for L=           1  read in
    real space projection operators read in
    PAW grid and wavefunctions read in
 
   number of l-projection  operators is LMAX  =           4
   number of lm-projection operators is LMMAX =           8
 
 Optimization of the real space projectors (new method)

 maximal supplied QI-value         = 22.11
 optimisation between [QCUT,QGAM] = [ 11.28, 22.77] = [ 35.61,145.23] Ry 
 Optimized for a Real-space Cutoff    1.10 Angstroem

   l    n(q)    QCUT    max X(q) W(low)/X(q) W(high)/X(q)  e(spline) 
   0      7    11.276    10.506    0.54E-04    0.58E-04    0.16E-07
   0      7    11.276     8.367    0.11E-03    0.14E-03    0.35E-07
   1      7    11.276     8.983    0.23E-03    0.43E-03    0.86E-07
 Optimization of the real space projectors (new method)

 maximal supplied QI-value         = 16.25
 optimisation between [QCUT,QGAM] = [ 11.38, 22.75] = [ 36.24,144.96] Ry 
 Optimized for a Real-space Cutoff    1.47 Angstroem

   l    n(q)    QCUT    max X(q) W(low)/X(q) W(high)/X(q)  e(spline) 
   2      9    11.376    60.317    0.17E-03    0.16E-04    0.16E-06
   2      9    11.376    55.921    0.17E-03    0.16E-04    0.17E-06
   0     10    11.376    51.690    0.45E-04    0.60E-04    0.21E-06
   0     10    11.376    30.015    0.37E-04    0.55E-04    0.19E-06
   1     10    11.376    18.849    0.83E-04    0.11E-03    0.92E-07
   1     10    11.376    14.624    0.69E-04    0.92E-04    0.82E-07
 Optimization of the real space projectors (new method)

 maximal supplied QI-value         = 24.76
 optimisation between [QCUT,QGAM] = [ 11.39, 22.77] = [ 36.31,145.25] Ry 
 Optimized for a Real-space Cutoff    1.10 Angstroem

   l    n(q)    QCUT    max X(q) W(low)/X(q) W(high)/X(q)  e(spline) 
   0      7    11.387    20.381    0.22E-03    0.48E-03    0.18E-06
   0      7    11.387    15.268    0.22E-03    0.52E-03    0.19E-06
   1      7    11.387     5.964    0.22E-03    0.73E-03    0.24E-06
   1      7    11.387     5.382    0.19E-03    0.60E-03    0.21E-06

 ----------------------------------------------------------------------------- 
|                                                                             |
|  ADVICE TO THIS USER RUNNING 'VASP/VAMP'   (HEAR YOUR MASTER'S VOICE ...):  |
|                                                                             |
|      You enforced a specific xc-type in the INCAR file,                     |
|      a different type was found on the POTCAR file                          |
|          I HOPE YOU KNOW, WHAT YOU ARE  DOING                               |
|                                                                             |
 ----------------------------------------------------------------------------- 

  PAW_PBE Li_sv 10Sep2004               :
 energy of atom  1       EATOM= -202.7858
 kinetic energy error for atom=    0.0143 (will be added to EATOM!!)
  PAW_PBE Ni 02Aug2007                  :
 energy of atom  2       EATOM=-1077.6739
 kinetic energy error for atom=    0.0030 (will be added to EATOM!!)
  PAW_PBE O 08Apr2002                   :
 energy of atom  3       EATOM= -432.3788
 kinetic energy error for atom=    0.0224 (will be added to EATOM!!)
 
 
 POSCAR: ce425593_1                              
  positions in direct lattice
  No initial velocities read in
 exchange correlation table for  LEXCH =       14
   RHO(1)=    0.500       N(1)  =     2000
   RHO(2)=  100.500       N(2)  =     4000
 


--------------------------------------------------------------------------------------------------------


 ion  position               nearest neighbor table
   1  0.999  0.500  0.998-  73 2.11  85 2.11  50 2.11  38 2.11  86 2.12  37 2.12
   2  0.110  0.834  0.220-  34 2.09  51 2.10  39 2.10  57 2.12  52 2.12  58 2.12
   3  0.557  0.167  0.113-  42 2.11  48 2.11  47 2.11  41 2.11  65 2.12  78 2.12
   4  0.222  0.167  0.445-  36 2.10  77 2.10  60 2.11  54 2.11  59 2.12  53 2.12
   5  0.333  0.500  0.666-  79 2.10  56 2.10  61 2.11  55 2.11  74 2.12  80 2.12
   6  0.446  0.833  0.891-  45 2.09  40 2.10  46 2.10  76 2.12  75 2.12  81 2.12
   7  1.000  0.003  0.999-  84 1.86  72 1.86  87 1.87  51 1.88  39 1.88  36 1.90  13 2.78  10 2.78
                            31 2.79  25 2.79  16 2.81  19 2.81
   8  0.111  0.334  0.222-  50 1.87  38 1.87  53 1.87  59 1.87  35 1.87  56 1.90  11 2.79  14 2.79
                            32 2.80  26 2.80  20 2.80  17 2.80
   9  0.223  0.668  0.111-  58 1.86  43 1.87  73 1.87  37 1.87  34 1.88  40 1.88  27 2.78  12 2.78
                            21 2.79  18 2.80  33 2.81  15 2.82
  10  0.332  0.999  0.000-  75 1.86  72 1.87  42 1.87  78 1.87  45 1.88  39 1.88  19 2.78   7 2.78
                            25 2.79  28 2.80  22 2.81  13 2.82
  11  0.444  0.336  0.222-  62 1.87  65 1.87  44 1.87  41 1.88  38 1.89  59 1.90  20 2.79   8 2.79
                            26 2.79  23 2.80  29 2.80  14 2.81
  12  0.556  0.663  0.112-  49 1.86  43 1.86  64 1.87  46 1.88  40 1.88  79 1.90  15 2.78   9 2.78
                            24 2.79  21 2.79  30 2.81  27 2.81
  13  0.668  0.999  0.000-  81 1.86  84 1.87  48 1.87  78 1.87  45 1.88  51 1.88  16 2.78   7 2.78
                            31 2.79  28 2.80  22 2.81  10 2.82
  14  0.779  0.336  0.222-  68 1.87  65 1.87  44 1.87  47 1.88  50 1.89  53 1.90  17 2.79   8 2.79
                            32 2.79  23 2.80  29 2.80  11 2.81
  15  0.888  0.668  0.111-  52 1.86  49 1.87  85 1.87  37 1.87  34 1.88  46 1.88  30 2.78  12 2.78
                            24 2.79  18 2.80  33 2.81   9 2.82
  16  0.999  0.001  0.333-  54 1.86  69 1.87  51 1.87  57 1.87  36 1.88  48 1.88  13 2.78  22 2.78
                            25 2.79  28 2.80   7 2.81  19 2.82
  17  0.110  0.333  0.556-  71 1.86  68 1.86  53 1.87  74 1.87  77 1.88  56 1.88  23 2.78  26 2.79
                            14 2.79  29 2.80   8 2.80  20 2.82
  18  0.222  0.667  0.444-  58 1.87  52 1.87  61 1.87  55 1.87  76 1.91  37 1.91  24 2.79  21 2.79
                             9 2.80  15 2.80  27 2.80  30 2.80
  19  0.335  0.001  0.333-  60 1.86  63 1.87  39 1.87  57 1.87  36 1.88  42 1.88  10 2.78  22 2.78
                            31 2.79  28 2.80   7 2.81  16 2.82
  20  0.446  0.333  0.556-  83 1.86  62 1.86  59 1.87  80 1.87  77 1.88  56 1.88  23 2.78  11 2.79
                            32 2.79  29 2.80   8 2.80  17 2.82
  21  0.555  0.667  0.444-  67 1.86  64 1.87  43 1.87  82 1.87  58 1.90  61 1.90  30 2.79   9 2.79
                            18 2.79  33 2.79  12 2.79  24 2.80
  22  0.667  0.997  0.334-  63 1.86  69 1.86  66 1.86  48 1.88  42 1.88  45 1.90  16 2.78  19 2.78
                            31 2.79  25 2.79  13 2.81  10 2.81
  23  0.778  0.333  0.556-  83 1.87  71 1.87  68 1.87  62 1.87  65 1.89  86 1.89  17 2.78  20 2.78
                            32 2.80  26 2.80  14 2.80  11 2.80
  24  0.889  0.667  0.444-  67 1.86  64 1.87  49 1.87  70 1.87  52 1.90  55 1.90  27 2.79  15 2.79
                            18 2.79  33 2.79  12 2.79  21 2.80
  25  0.000  0.000  0.667-  66 1.86  87 1.87  72 1.87  69 1.87  75 1.90  54 1.90  16 2.79  10 2.79
                            28 2.79  22 2.79   7 2.79  31 2.80
  26  0.112  0.331  0.889-  71 1.87  86 1.87  35 1.87  38 1.88  41 1.89  74 1.90  17 2.79  29 2.79
                            11 2.79  23 2.80   8 2.80  32 2.81
  27  0.221  0.666  0.778-  55 1.86  70 1.87  40 1.87  76 1.87  79 1.88  73 1.88   9 2.78  33 2.78
                            24 2.79  18 2.80  12 2.81  30 2.82
  28  0.333  0.000  0.667-  75 1.87  81 1.87  60 1.87  54 1.87  57 1.91  78 1.91  25 2.79  31 2.79
                            10 2.80  13 2.80  16 2.80  19 2.80
  29  0.445  0.333  0.889-  41 1.87  47 1.87  74 1.87  80 1.87  44 1.87  77 1.90  26 2.79  32 2.79
                            11 2.80  14 2.80  20 2.80  17 2.80
  30  0.557  0.666  0.778-  61 1.86  82 1.87  46 1.87  76 1.87  79 1.88  85 1.88  15 2.78  33 2.78
                            21 2.79  18 2.80  12 2.81  27 2.82
  31  0.666  0.000  0.667-  66 1.86  87 1.87  84 1.87  63 1.87  81 1.90  60 1.90  19 2.79  13 2.79
                            28 2.79  22 2.79   7 2.79  25 2.80
  32  0.777  0.331  0.889-  83 1.87  86 1.87  35 1.87  50 1.88  47 1.89  80 1.90  20 2.79  29 2.79
                            14 2.79  23 2.80   8 2.80  26 2.81
  33  0.888  0.670  0.777-  70 1.86  82 1.86  67 1.86  73 1.88  85 1.88  34 1.90  27 2.78  30 2.78
                            24 2.79  21 2.79   9 2.81  15 2.81
  34  0.002  0.737  0.004-  15 1.88   9 1.88  33 1.90   2 2.09
  35  0.001  0.265  0.002-  32 1.87  26 1.87   8 1.87
  36  0.113  0.070  0.226-  16 1.88  19 1.88   7 1.90   4 2.10
  37  0.108  0.599  0.217-   9 1.87  15 1.87  18 1.91   1 2.12
  38  0.217  0.402  0.107-   8 1.87  26 1.88  11 1.89   1 2.11
  39  0.219  0.933  0.112-  19 1.87   7 1.88  10 1.88   2 2.10
  40  0.336  0.734  0.999-  27 1.87  12 1.88   9 1.88   6 2.10
  41  0.338  0.265  0.004-  29 1.87  11 1.88  26 1.89   3 2.11
  42  0.448  0.067  0.221-  10 1.87  22 1.88  19 1.88   3 2.11
  43  0.444  0.599  0.223-  12 1.86   9 1.87  21 1.87
  44  0.555  0.401  0.109-  14 1.87  11 1.87  29 1.87
  45  0.554  0.930  0.107-  13 1.88  10 1.88  22 1.90   6 2.09
  46  0.662  0.734  0.999-  30 1.87  12 1.88  15 1.88   6 2.10
  47  0.665  0.265  0.004-  29 1.87  14 1.88  32 1.89   3 2.11
  48  0.773  0.067  0.221-  13 1.87  22 1.88  16 1.88   3 2.11
  49  0.780  0.599  0.223-  12 1.86  15 1.87  24 1.87
  50  0.890  0.402  0.107-   8 1.87  32 1.88  14 1.89   1 2.11
  51  0.893  0.933  0.112-  16 1.87   7 1.88  13 1.88   2 2.10
  52  0.001  0.735  0.331-  15 1.86  18 1.87  24 1.90   2 2.12
  53  0.003  0.266  0.335-  17 1.87   8 1.87  14 1.90   4 2.12
  54  0.112  0.068  0.554-  16 1.86  28 1.87  25 1.90   4 2.11
  55  0.114  0.598  0.557-  27 1.86  18 1.87  24 1.90   5 2.11
  56  0.224  0.402  0.448-  17 1.88  20 1.88   8 1.90   5 2.10
  57  0.220  0.933  0.439-  16 1.87  19 1.87  28 1.91   2 2.12
  58  0.330  0.735  0.331-   9 1.86  18 1.87  21 1.90   2 2.12
  59  0.332  0.266  0.335-  20 1.87   8 1.87  11 1.90   4 2.12
  60  0.441  0.068  0.554-  19 1.86  28 1.87  31 1.90   4 2.11
  61  0.443  0.598  0.557-  30 1.86  18 1.87  21 1.90   5 2.11
  62  0.556  0.401  0.445-  20 1.86  11 1.87  23 1.87
  63  0.555  0.932  0.446-  22 1.86  19 1.87  31 1.87
  64  0.666  0.732  0.331-  12 1.87  21 1.87  24 1.87
  65  0.665  0.267  0.329-  14 1.87  11 1.87  23 1.89   3 2.12
  66  0.777  0.065  0.554-  25 1.86  31 1.86  22 1.86
  67  0.779  0.602  0.557-  21 1.86  24 1.86  33 1.86
  68  0.889  0.401  0.445-  17 1.86  14 1.87  23 1.87
  69  0.891  0.932  0.446-  22 1.86  16 1.87  25 1.87
  70  0.001  0.734  0.666-  33 1.86  27 1.87  24 1.87
  71  1.000  0.266  0.666-  17 1.86  26 1.87  23 1.87
  72  0.112  0.068  0.888-   7 1.86  10 1.87  25 1.87
  73  0.108  0.599  0.890-   9 1.87  33 1.88  27 1.88   1 2.11
  74  0.223  0.401  0.776-  17 1.87  29 1.87  26 1.90   5 2.12
  75  0.225  0.932  0.780-  10 1.86  28 1.87  25 1.90   6 2.12
  76  0.336  0.734  0.672-  27 1.87  30 1.87  18 1.91   6 2.12
  77  0.332  0.265  0.663-  20 1.88  17 1.88  29 1.90   4 2.10
  78  0.447  0.068  0.894-  10 1.87  13 1.87  28 1.91   3 2.12
  79  0.442  0.597  0.885-  30 1.88  27 1.88  12 1.90   5 2.10
  80  0.553  0.401  0.776-  20 1.87  29 1.87  32 1.90   5 2.12
  81  0.554  0.932  0.780-  13 1.86  28 1.87  31 1.90   6 2.12
  82  0.665  0.734  0.666-  33 1.86  30 1.87  21 1.87
  83  0.666  0.266  0.666-  20 1.86  32 1.87  23 1.87
  84  0.776  0.068  0.888-   7 1.86  13 1.87  31 1.87
  85  0.782  0.599  0.890-  15 1.87  33 1.88  30 1.88   1 2.11
  86  0.891  0.399  0.782-  32 1.87  26 1.87  23 1.89   1 2.12
  87  0.890  0.935  0.780-   7 1.87  25 1.87  31 1.87
 
  LATTYP: Found a base centered monoclinic cell.
 ALAT       =    14.5297325357
 B/A-ratio  =     0.5771168544
 C/A-ratio  =     1.3958910854
 COS(beta)  =    -0.6216501091
  
  Lattice vectors:
  
 A1 = (   4.1952172895,   7.2633959959,   0.0071723464)
 A2 = (   8.3878940269,   0.0014667962,   0.0071723464)
 A3 = ( -12.5949054493,  -7.2716721216, -14.1367459934)


Analysis of symmetry for initial positions (statically):
=====================================================================
 Subroutine PRICEL returns:
 Original cell was already a primitive cell.
 

 Routine SETGRP: Setting up the symmetry group for a 
 base centered monoclinic supercell.


 Subroutine GETGRP returns: Found  4 space group operations
 (whereof  2 operations were pure point group operations)
 out of a pool of  4 trial point group operations.


The static configuration has the point symmetry C_1h.
 The point group associated with its full space group is C_2h.


Analysis of symmetry for dynamics (positions and initial velocities):
=====================================================================
 Subroutine PRICEL returns:
 Original cell was already a primitive cell.
 

 Routine SETGRP: Setting up the symmetry group for a 
 base centered monoclinic supercell.


 Subroutine GETGRP returns: Found  4 space group operations
 (whereof  2 operations were pure point group operations)
 out of a pool of  4 trial point group operations.


The dynamic configuration has the point symmetry C_1h.
 The point group associated with its full space group is C_2h.


Analysis of structural, dynamic, and magnetic symmetry:
=====================================================================
 Subroutine PRICEL returns:
 Original cell was already a primitive cell.
 

 Routine SETGRP: Setting up the symmetry group for a 
 base centered monoclinic supercell.


 Subroutine GETGRP returns: Found  4 space group operations
 (whereof  2 operations were pure point group operations)
 out of a pool of  4 trial point group operations.


The magnetic configuration has the point symmetry C_1h.
 The point group associated with its full space group is C_2h.


 Subroutine INISYM returns: Found  4 space group operations
 (whereof  2 operations are pure point group operations),
 and found     1 'primitive' translations

 
 
 KPOINTS: Automatic mesh                          

Automatic generation of k-mesh.
Space group operators:
 irot       det(A)        alpha          n_x          n_y          n_z        tau_x        tau_y        tau_z
    1     1.000000     0.000000     1.000000     0.000000     0.000000     0.000000     0.000000     0.000000
    2    -1.000000   180.000000    -0.500000     0.866025     0.000000     0.000000     0.000000     0.000000
    3    -1.000000     0.000000     1.000000     0.000000     0.000000     0.555556    -0.333333     1.111111
    4     1.000000   180.000000    -0.500000     0.866025     0.000000     0.555556    -0.333333     1.111111
 
 Subroutine IBZKPT returns following result:
 ===========================================
 
 Found      1 irreducible k-points:
 
 Following reciprocal coordinates:
            Coordinates               Weight
  0.000000  0.000000  0.000000      1.000000
 
 Following cartesian coordinates:
            Coordinates               Weight
  0.000000  0.000000  0.000000      1.000000
 


--------------------------------------------------------------------------------------------------------




 Dimension of arrays:
   k-points           NKPTS =      1   k-points in BZ     NKDIM =      1   number of bands    NBANDS=    416
   number of dos      NEDOS =    301   number of ions     NIONS =     87
   non local maximal  LDIM  =      6   non local SUM 2l+1 LMDIM =     18
   total plane-waves  NPLWV = 442368
   max r-space proj   IRMAX =   6953   max aug-charges    IRDMAX=  16865
   dimension x,y,z NGX =    64 NGY =  108 NGZ =   64
   dimension x,y,z NGXF=   128 NGYF=  216 NGZF=  128
   support grid    NGXF=   128 NGYF=  216 NGZF=  128
   ions per type =               6  27  54
   NGX,Y,Z   is equivalent  to a cutoff of  12.69, 12.71, 12.68 a.u.
   NGXF,Y,Z  is equivalent  to a cutoff of  25.38, 25.43, 25.37 a.u.

 SYSTEM =  unknown system                          
 POSCAR =  ce425593_1                              

 Startparameter for this run:
   NWRITE =      1    write-flag & timer
   PREC   = accura    normal or accurate (medium, high low for compatibility)
   ISTART =      0    job   : 0-new  1-cont  2-samecut
   ICHARG =      2    charge: 1-file 2-atom 10-const
   ISPIN  =      2    spin polarized calculation?
   LNONCOLLINEAR =      F non collinear calculations
   LSORBIT =      F    spin-orbit coupling
   INIWAV =      1    electr: 0-lowe 1-rand  2-diag
   LASPH  =      F    aspherical Exc in radial PAW
   METAGGA=      F    non-selfconsistent MetaGGA calc.

 Electronic Relaxation 1
   ENCUT  =  500.0 eV  36.75 Ry    6.06 a.u.  15.29 25.75 15.29*2*pi/ulx,y,z
   ENINI  =  500.0     initial cutoff
   ENAUG  =  628.9 eV  augmentation charge cutoff
   NELM   =     80;   NELMIN=  2; NELMDL= -5     # of ELM steps 
   EDIFF  = 0.1E-04   stopping-criterion for ELM
   LREAL  =      T    real-space projection
   NLSPLINE    = F    spline interpolate recip. space projectors
   LCOMPAT=      F    compatible to vasp.4.4
   GGA_COMPAT  = T    GGA compatible to vasp.4.4-vasp.4.6
   LMAXPAW     = -100 max onsite density
   LMAXMIX     =    2 max onsite mixed and CHGCAR
   VOSKOWN=      1    Vosko Wilk Nusair interpolation
   ROPT   =   -0.00025  -0.00025  -0.00025
 Ionic relaxation
   EDIFFG = -.2E-01   stopping-criterion for IOM
   NSW    =     20    number of steps for IOM
   NBLOCK =      1;   KBLOCK =     20    inner block; outer block 
   IBRION =      1    ionic relax: 0-MD 1-quasi-New 2-CG
   NFREE  =      0    steps in history (QN), initial steepest desc. (CG)
   ISIF   =      3    stress and relaxation
   IWAVPR =     11    prediction:  0-non 1-charg 2-wave 3-comb
   ISYM   =      2    0-nonsym 1-usesym 2-fastsym
   LCORR  =      T    Harris-Foulkes like correction to forces

   POTIM  = 0.5000    time-step for ionic-motion
   TEIN   =    0.0    initial temperature
   TEBEG  =    0.0;   TEEND  =   0.0 temperature during run
   SMASS  =  -3.00    Nose mass-parameter (am)
   estimated Nose-frequenzy (Omega)   =  0.10E-29 period in steps =****** mass=  -0.161E-26a.u.
   SCALEE = 1.0000    scale energy and forces
   NPACO  =    256;   APACO  = 16.0  distance and # of slots for P.C.
   PSTRESS=    0.0 pullay stress

  Mass of Ions in am
   POMASS =   7.01 58.69 16.00
  Ionic Valenz
   ZVAL   =   3.00 10.00  6.00
  Atomic Wigner-Seitz radii
   RWIGS  =   1.23  1.15  0.73
  virtual crystal weights 
   VCA    =   1.00  1.00  1.00
   NELECT =     612.0000    total number of electrons
   NUPDOWN=      -1.0000    fix difference up-down

 DOS related values:
   EMIN   =  10.00;   EMAX   =-10.00  energy-range for DOS
   EFERMI =   0.00
   ISMEAR =     0;   SIGMA  =   0.05  broadening in eV -4-tet -1-fermi 0-gaus

 Electronic relaxation 2 (details)
   IALGO  =     38    algorithm
   LDIAG  =      T    sub-space diagonalisation (order eigenvalues)
   LSUBROT=      F    optimize rotation matrix (better conditioning)
   TURBO    =      0    0=normal 1=particle mesh
   IRESTART =      0    0=no restart 2=restart with 2 vectors
   NREBOOT  =      0    no. of reboots
   NMIN     =      0    reboot dimension
   EREF     =   0.00    reference energy to select bands
   IMIX   =      4    mixing-type and parameters
     AMIX     =   0.40;   BMIX     =  1.00
     AMIX_MAG =   1.60;   BMIX_MAG =  1.00
     AMIN     =   0.10
     WC   =   100.;   INIMIX=   1;  MIXPRE=   1;  MAXMIX= -45

 Intra band minimization:
   WEIMIN = 0.0010     energy-eigenvalue tresh-hold
   EBREAK =  0.60E-08  absolut break condition
   DEPER  =   0.30     relativ break condition  

   TIME   =   0.40     timestep for ELM

  volume/ion in A,a.u.               =       9.89        66.73
  Fermi-wavevector in a.u.,A,eV,Ry     =   1.461413  2.761670 29.058347  2.135728
  Thomas-Fermi vector in A             =   2.577748
 
 Write flags
   LWAVE        =      F    write WAVECAR
   LDOWNSAMPLE  =      F    k-point downsampling of WAVECAR
   LCHARG       =      T    write CHGCAR
   LVTOT        =      F    write LOCPOT, total local potential
   LVHAR        =      F    write LOCPOT, Hartree potential only
   LELF         =      F    write electronic localiz. function (ELF)
   LORBIT       =      0    0 simple, 1 ext, 2 COOP (PROOUT), +10 PAW based schemes


 Dipole corrections
   LMONO  =      F    monopole corrections only (constant potential shift)
   LDIPOL =      F    correct potential (dipole corrections)
   IDIPOL =      0    1-x, 2-y, 3-z, 4-all directions 
   EPSILON=  1.0000000 bulk dielectric constant

 Exchange correlation treatment:
   GGA     =    PS    GGA type
   LEXCH   =    14    internal setting for exchange type
   VOSKOWN=      1    Vosko Wilk Nusair interpolation
   LHFCALC =     F    Hartree Fock is set to
   LHFONE  =     F    Hartree Fock one center treatment
   AEXX    =    0.0000 exact exchange contribution

 Linear response parameters
   LEPSILON=     F    determine dielectric tensor
   LRPA    =     F    only Hartree local field effects (RPA)
   LNABLA  =     F    use nabla operator in PAW spheres
   LVEL    =     F    velocity operator in full k-point grid
   LINTERFAST=   F  fast interpolation
   KINTER  =     0    interpolate to denser k-point grid
   CSHIFT  =0.1000    complex shift for real part using Kramers Kronig
   OMEGAMAX=  -1.0    maximum frequency
   DEG_THRESHOLD= 0.2000000E-02 threshold for treating states as degnerate
   RTIME   =   -0.100 relaxation time in fs
  (WPLASMAI=    0.000 imaginary part of plasma frequency in eV, 0.658/RTIME)
   DFIELD  = 0.0000000 0.0000000 0.0000000 field for delta impulse in time
 
 Orbital magnetization related:
   ORBITALMAG=     F  switch on orbital magnetization
   LCHIMAG   =     F  perturbation theory with respect to B field
   DQ        =  0.001000  dq finite difference perturbation B field
   LLRAUG    =     F  two centre corrections for induced B field



--------------------------------------------------------------------------------------------------------


 quasi-Newton-method for relaxation of ions
 charge density and potential will be updated during run
 spin polarized calculation
 Variant of blocked Davidson
 Davidson routine will perform the subspace rotation
 perform sub-space diagonalisation
    after iterative eigenvector-optimisation
 modified Broyden-mixing scheme, WC =      100.0
 initial mixing is a Kerker type mixing with AMIX =  0.4000 and BMIX =      1.0000
 Hartree-type preconditioning will be used
 using additional bands          110
 real space projection scheme for non local part
 use partial core corrections
 calculate Harris-corrections to forces 
   (improved forces if not selfconsistent)
 use gradient corrections 
 use of overlap-Matrix (Vanderbilt PP)
 Gauss-broadening in eV      SIGMA  =   0.05


--------------------------------------------------------------------------------------------------------


  energy-cutoff  :      500.00
  volume of cell :      860.31
      direct lattice vectors                 reciprocal lattice vectors
    -4.192676737  7.261929200  0.000000000    -0.000024021  0.137690586 -0.000066370
     0.011794133  0.006809329 14.122401301    -0.000060542 -0.000034954  0.070809555
     8.387894027  0.001466796  0.007172346     0.119207515  0.068824490 -0.000132739

  length of vectors
     8.385353536 14.122407867  8.387897222     0.137690604  0.070809590  0.137649045


 
 k-points in units of 2pi/SCALE and weight: Automatic mesh                          
   0.00000000  0.00000000  0.00000000       1.000
 
 k-points in reciprocal lattice and weights: Automatic mesh                          
   0.00000000  0.00000000  0.00000000       1.000
 
 position of ions in fractional coordinates (direct lattice) 
   0.99882301  0.50012666  0.99764601
   0.10985237  0.83378120  0.21970474
   0.55673255  0.16654001  0.11346510
   0.22242331  0.16703784  0.44484662
   0.33313224  0.49962883  0.66626449
   0.44570318  0.83288546  0.89140637
   0.99955114  0.00316855  0.99910229
   0.11099217  0.33412184  0.22198434
   0.22342905  0.66751500  0.11093473
   0.33212650  0.99915167  0.00017638
   0.44388058  0.33553767  0.22246274
   0.55600442  0.66349812  0.11200882
   0.66804988  0.99915167  0.00017638
   0.77858215  0.33553767  0.22246274
   0.88750568  0.66751500  0.11093473
   0.99861710  0.00089109  0.33321589
   0.10958139  0.33333333  0.55555556
   0.22217325  0.66666665  0.44434650
   0.33459879  0.00089109  0.33321589
   0.44597416  0.33333333  0.55555556
   0.55511227  0.66663563  0.44440580
   0.66720236  0.99683354  0.33440472
   0.77777778  0.33333333  0.55555556
   0.88929354  0.66663563  0.44440580
   0.00044329  0.00003104  0.66670531
   0.11167497  0.33112899  0.88864837
   0.22095676  0.66577558  0.77789522
   0.33338230  0.00000002  0.66676461
   0.44456338  0.33254482  0.88912677
   0.55693846  0.66577558  0.77789522
   0.66626202  0.00003104  0.66670531
   0.77697341  0.33112899  0.88864837
   0.88835320  0.66983313  0.77670639
   0.00188657  0.73665882  0.00377315
   0.00089710  0.26549693  0.00179421
   0.11307934  0.06996325  0.22615869
   0.10833658  0.59906241  0.21667316
   0.21705817  0.40155133  0.10715584
   0.21913171  0.93288769  0.11248423
   0.33642384  0.73377898  0.99862688
   0.33849738  0.26511534  0.00395527
   0.44765188  0.06717866  0.22093431
   0.44365880  0.59911143  0.22322582
   0.55465846  0.40116974  0.10931690
   0.55366899  0.93000785  0.10733796
   0.66220303  0.73377898  0.99862688
   0.66545788  0.26511534  0.00395527
   0.77328243  0.06717866  0.22093431
   0.77956702  0.59911143  0.22322582
   0.89009768  0.40155133  0.10715584
   0.89335253  0.93288769  0.11248423
   0.00125493  0.73489425  0.33132062
   0.00266570  0.26601017  0.33484100
   0.11245108  0.06831200  0.55361850
   0.11438814  0.59835466  0.55749262
   0.22404514  0.40207499  0.44809029
   0.21953977  0.93262710  0.43907955
   0.33006569  0.73489425  0.33132062
   0.33217530  0.26601017  0.33484100
   0.44116741  0.06831200  0.55361850
   0.44310447  0.59835466  0.55749262
   0.55586686  0.40087139  0.44531289
   0.55474363  0.93237783  0.44556776
   0.66572132  0.73185866  0.33144263
   0.66460608  0.26726926  0.32921214
   0.77692320  0.06513598  0.55384639
   0.77863236  0.60153068  0.55726473
   0.88944603  0.40087139  0.44531289
   0.89082414  0.93237783  0.44556776
   0.00081193  0.73428884  0.66554335
   0.99968870  0.26579528  0.66579822
   0.11189675  0.06755523  0.88788529
   0.10790367  0.59948800  0.89017680
   0.22338025  0.40065650  0.77627011
   0.22548986  0.93177242  0.77979049
   0.33601578  0.73403957  0.67203156
   0.33151041  0.26459168  0.66302082
   0.44721897  0.06760425  0.89443795
   0.44247621  0.59670341  0.88495242
   0.55288986  0.40065650  0.77627011
   0.55430063  0.93177242  0.77979049
   0.66473142  0.73428884  0.66554335
   0.66610953  0.26579528  0.66579822
   0.77598854  0.06755523  0.88788529
   0.78227313  0.59948800  0.89017680
   0.89094948  0.39939741  0.78189897
   0.88983424  0.93480801  0.77966848
 
 position of ions in cartesian coordinates  (Angst):
   4.18630557  7.25825085  7.07014486
   1.39211833  0.80373989 11.77656850
  -1.38050218  4.04425282  2.35275866
   2.80074734  1.61701224  2.36216600
   4.19773283  2.42356215  7.06073752
   5.61815597  3.24364384 11.76873618
   4.18960669  7.26015667  0.05191344
   1.40056751  0.80861803  4.72019486
   0.00161574  1.62723399  9.42771037
  -1.37923547  2.41868294 14.11042211
   0.00890348  3.22604044  4.74019321
  -1.38380330  4.04234700  9.37099008
  -2.78765361  4.85813474 14.11042211
  -1.39439200  5.65661954  4.74019321
  -2.78264290  6.44971146  9.42771037
  -1.39188860  7.25238151  0.01497427
   4.20443320  0.79885696  4.71145169
   2.80349349  1.61859773  9.41812097
   1.39212552  2.43032755  0.01497427
   2.79404705  3.24171744  4.71145169
   1.40808484  4.03637720  9.41768332
   0.01934433  4.85245457 14.08008175
   1.40290174  5.65125183  4.71145169
   0.00697081  6.46317792  9.41768332
   5.59039528  0.00419727  0.00522020
   6.98957669  0.81453396  4.68271017
   5.60635465  1.61024685  9.40792925
   4.19498668  2.42197667  0.00478255
   5.59791266  3.23195637  4.70270852
   4.19769199  4.05012216  9.40792925
   2.79883258  4.83932575  0.00522020
   4.20019539  5.64588413  4.68271017
   2.79825319  6.45685843  9.46522307
   0.03242726  0.01872182 10.40341854
   0.01441970  0.00832516  3.74946706
   1.42371516  0.82198229  0.98967118
   1.37027667  0.79112960  8.46175381
  -0.00650696  1.57915253  5.67163758
   0.03575998  1.59783629 13.17542110
   6.97451432  2.44954743 10.36988372
  -1.38290690  2.45995507  3.74409359
  -0.02289373  3.25159777  0.95030861
   0.01934259  3.22622577  8.46249309
  -1.40383360  4.03078251  5.66626412
  -1.41004702  4.02719518 13.13471394
   5.60862749  4.81533284 10.36988372
  -2.75374658  4.83431907  3.74409359
  -1.38815736  5.61630377  0.95030861
  -1.38901199  5.66556748  8.46249309
  -2.82834406  6.46671780  5.67163758
  -2.79102997  6.49398015 13.17542110
   2.78248817  0.01460333 10.38084786
   2.80057176  0.02166062  3.75910397
   4.17302796  0.81788899  0.96870022
   4.20365360  0.83557070  8.45420316
   2.82392715  1.63039506  5.68147822
   2.77349298  1.60127687 13.17408340
   1.40389095  2.40240379 10.38084786
   1.41904453  2.41453600  3.75910397
   2.79482665  3.20500370  0.96870022
   2.82545229  3.22268541  8.45420316
   1.40939521  4.04004863  5.66446058
   1.42251103  4.03551139 13.17060965
  -0.00241700  4.83989072 10.33797891
  -0.02192970  4.82862511  3.77684497
   1.38898522  5.64321718  0.92384883
   1.41681825  5.65928649  8.49905455
   0.01080558  6.46247695  5.66446058
   0.01343409  6.47610426 13.17060965
   5.58776323  0.01187241 10.37469518
   1.39640818  7.26245504  3.75844294
   6.97913758  0.81434863  0.96041029
   7.02137390  0.78897663  8.47259477
   5.57943564  1.62603839  5.66379955
   5.60638335  1.64497994 13.16445696
   4.23678132  2.44610685 10.37122142
   4.17455302  2.41017933  3.74142530
   5.62820350  3.24944479  0.96114957
   5.57476500  3.21859210  8.43323220
   4.19790836  4.01891385  5.66379955
   4.22778608  4.03278047 13.16445696
   2.80416343  4.83320874 10.37469518
   2.79499781  4.84002672  3.75844294
   4.19481538  5.63693619  0.96041029
   4.19396075  5.68619990  8.47259477
   2.82773309  6.47387856  5.64605855
   2.82001452  6.46942228 13.20732591
 


--------------------------------------------------------------------------------------------------------


 use serial FFT for orbitals x direction half grid
 k-point  1 :   0.0000 0.0000 0.0000  plane waves:   10898

 maximum and minimum number of plane-waves per node :     10898    10898

 maximum number of plane-waves:     10898
 maximum index in each direction: 
   IXMAX=   15   IYMAX=   25   IZMAX=   13
   IXMIN=    0   IYMIN=  -25   IZMIN=  -15

 The following grids will avoid any aliasing or wrap around errors in the Hartre
 e energy
  - symmetry arguments have not been applied
  - exchange correlation energies might require even more grid points
  - we recommend to set PREC=Normal or Accurate and rely on VASP defaults
 NGX is ok and might be reduce to    64
 NGY is ok and might be reduce to   108
 NGZ is ok and might be reduce to    60

 serial   3D FFT for wavefunctions
 parallel 3D FFT for charge:
    minimum data exchange during FFTs selected (reduces bandwidth)


 total amount of memory used by VASP MPI-rank0   145370. kBytes
=======================================================================

   base      :      30000. kBytes
   nonlr-proj:      39858. kBytes
   fftplans  :       9349. kBytes
   grid      :      55332. kBytes
   one-center:       1353. kBytes
   wavefun   :       9478. kBytes
 
     INWAV:  cpu time    0.0000: real time    0.0000
 Broyden mixing: mesh for mixing (old mesh)
   NGX = 31   NGY = 51   NGZ = 31
  (NGX  =128   NGY  =216   NGZ  =128)
  gives a total of  49011 points

 initial charge density was supplied:
 charge density of overlapping atoms calculated
 number of electron     612.0000000 magnetization      67.5000000
 keeping initial charge density in first step


--------------------------------------------------------------------------------------------------------


 Maximum index for non-local projection operator         6719
 Maximum index for augmentation-charges         1103 (set IRDMAX)


--------------------------------------------------------------------------------------------------------


 First call to EWALD:  gamma=   0.186
 Maximum number of real-space cells 3x 2x 3
 Maximum number of reciprocal cells 2x 4x 2

    FEWALD:  cpu time    0.0032: real time    0.0032


--------------------------------------- Iteration      1(   1)  ---------------------------------------


    POTLOK:  cpu time    0.2601: real time    0.2621
    SETDIJ:  cpu time    0.0283: real time    0.0284
     EDDAV:  cpu time    4.5859: real time    4.6327
    --------------------------------------------
      LOOP:  cpu time    4.8748: real time    4.9237

 eigenvalue-minimisations  :  1664
 total energy-change (2. order) : 0.1093077E+05  (-0.2803550E+05)
 number of electron     612.0000000 magnetization      67.5000000
 augmentation part      612.0000000 magnetization      67.5000000

 Free energy of the ion-electron system (eV)
  ---------------------------------------------------
  alpha Z        PSCENC =      1901.92396875
  Ewald energy   TEWEN  =    -35102.59566783
  -Hartree energ DENC   =    -19816.08353330
  -exchange      EXHF   =         0.00000000
  -V(xc)+E(xc)   XCENC  =      2481.12098905
  PAW double counting   =     45136.29708260   -47110.34034576
  entropy T*S    EENTRO =        -0.02783295
  eigenvalues    EBANDS =      9898.80086318
  atomic energy  EATOM  =     53541.67614029
  Solvation  Ediel_sol  =         0.00000000
  ---------------------------------------------------
  free energy    TOTEN  =     10930.77166403 eV

  energy without entropy =    10930.79949699  energy(sigma->0) =    10930.78558051


--------------------------------------------------------------------------------------------------------




--------------------------------------- Iteration      1(   2)  ---------------------------------------


     EDDAV:  cpu time    4.7544: real time    4.7656
    --------------------------------------------
      LOOP:  cpu time    4.7542: real time    4.7654

 eigenvalue-minimisations  :  1760
 total energy-change (2. order) :-0.8867741E+04  (-0.7990664E+04)
 number of electron     612.0000000 magnetization      67.5000000
 augmentation part      612.0000000 magnetization      67.5000000

 Free energy of the ion-electron system (eV)
  ---------------------------------------------------
  alpha Z        PSCENC =      1901.92396875
  Ewald energy   TEWEN  =    -35102.59566783
  -Hartree energ DENC   =    -19816.08353330
  -exchange      EXHF   =         0.00000000
  -V(xc)+E(xc)   XCENC  =      2481.12098905
  PAW double counting   =     45136.29708260   -47110.34034576
  entropy T*S    EENTRO =        -0.03072795
  eigenvalues    EBANDS =      1031.06276614
  atomic energy  EATOM  =     53541.67614029
  Solvation  Ediel_sol  =         0.00000000
  ---------------------------------------------------
  free energy    TOTEN  =      2063.03067200 eV

  energy without entropy =     2063.06139995  energy(sigma->0) =     2063.04603597


--------------------------------------------------------------------------------------------------------




--------------------------------------- Iteration      1(   3)  ---------------------------------------


     EDDAV:  cpu time    4.8847: real time    4.8963
    --------------------------------------------
      LOOP:  cpu time    4.8847: real time    4.8963

 eigenvalue-minimisations  :  1824
 total energy-change (2. order) :-0.2400600E+04  (-0.2029950E+04)
 number of electron     612.0000000 magnetization      67.5000000
 augmentation part      612.0000000 magnetization      67.5000000

 Free energy of the ion-electron system (eV)
  ---------------------------------------------------
  alpha Z        PSCENC =      1901.92396875
  Ewald energy   TEWEN  =    -35102.59566783
  -Hartree energ DENC   =    -19816.08353330
  -exchange      EXHF   =         0.00000000
  -V(xc)+E(xc)   XCENC  =      2481.12098905
  PAW double counting   =     45136.29708260   -47110.34034576
  entropy T*S    EENTRO =        -0.13519614
  eigenvalues    EBANDS =     -1369.43239044
  atomic energy  EATOM  =     53541.67614029
  Solvation  Ediel_sol  =         0.00000000
  ---------------------------------------------------
  free energy    TOTEN  =      -337.56895278 eV

  energy without entropy =     -337.43375664  energy(sigma->0) =     -337.50135471


--------------------------------------------------------------------------------------------------------




--------------------------------------- Iteration      1(   4)  ---------------------------------------


     EDDAV:  cpu time    5.1132: real time    5.1254
    --------------------------------------------
      LOOP:  cpu time    5.1132: real time    5.1254

 eigenvalue-minimisations  :  1936
 total energy-change (2. order) :-0.3763690E+03  (-0.3605664E+03)
 number of electron     612.0000000 magnetization      67.5000000
 augmentation part      612.0000000 magnetization      67.5000000

 Free energy of the ion-electron system (eV)
  ---------------------------------------------------
  alpha Z        PSCENC =      1901.92396875
  Ewald energy   TEWEN  =    -35102.59566783
  -Hartree energ DENC   =    -19816.08353330
  -exchange      EXHF   =         0.00000000
  -V(xc)+E(xc)   XCENC  =      2481.12098905
  PAW double counting   =     45136.29708260   -47110.34034576
  entropy T*S    EENTRO =        -0.26655161
  eigenvalues    EBANDS =     -1745.67001084
  atomic energy  EATOM  =     53541.67614029
  Solvation  Ediel_sol  =         0.00000000
  ---------------------------------------------------
  free energy    TOTEN  =      -713.93792865 eV

  energy without entropy =     -713.67137703  energy(sigma->0) =     -713.80465284


--------------------------------------------------------------------------------------------------------




--------------------------------------- Iteration      1(   5)  ---------------------------------------


     EDDAV:  cpu time    5.9276: real time    5.9417
    CHARGE:  cpu time    0.3363: real time    0.3371
    MIXING:  cpu time    0.0053: real time    0.0053
    --------------------------------------------
      LOOP:  cpu time    6.2688: real time    6.2837

 eigenvalue-minimisations  :  2336
 total energy-change (2. order) :-0.1539653E+02  (-0.1525087E+02)
 number of electron     611.9999915 magnetization      68.2511085
 augmentation part      178.1240601 magnetization      51.1809702

 Broyden mixing:
  rms(total) = 0.16210E+02    rms(broyden)= 0.16209E+02
  rms(prec ) = 0.18019E+02
  weight for this iteration     100.00

 Free energy of the ion-electron system (eV)
  ---------------------------------------------------
  alpha Z        PSCENC =      1901.92396875
  Ewald energy   TEWEN  =    -35102.59566783
  -Hartree energ DENC   =    -19816.08353330
  -exchange      EXHF   =         0.00000000
  -V(xc)+E(xc)   XCENC  =      2481.12098905
  PAW double counting   =     45136.29708260   -47110.34034576
  entropy T*S    EENTRO =        -0.26915614
  eigenvalues    EBANDS =     -1761.06393709
  atomic energy  EATOM  =     53541.67614029
  Solvation  Ediel_sol  =         0.00000000
  ---------------------------------------------------
  free energy    TOTEN  =      -729.33445943 eV

  energy without entropy =     -729.06530329  energy(sigma->0) =     -729.19988136


--------------------------------------------------------------------------------------------------------




--------------------------------------- Iteration      1(   6)  ---------------------------------------


    POTLOK:  cpu time    0.2251: real time    0.2256
    SETDIJ:  cpu time    0.0282: real time    0.0283
     EDDAV:  cpu time    6.3554: real time    6.3706
    CHARGE:  cpu time    0.3297: real time    0.3305
    MIXING:  cpu time    0.0051: real time    0.0051
    --------------------------------------------
      LOOP:  cpu time    6.9435: real time    6.9601

 eigenvalue-minimisations  :  2592
 total energy-change (2. order) :-0.1851241E+03  (-0.1717649E+03)
 number of electron     611.9999925 magnetization      64.8528854
 augmentation part      225.8678677 magnetization      60.8351978

 Broyden mixing:
  rms(total) = 0.31994E+02    rms(broyden)= 0.31993E+02
  rms(prec ) = 0.33220E+02
  weight for this iteration     100.00

 eigenvalues of (default mixing * dielectric matrix)
  average eigenvalue GAMMA=   0.1893
  0.1893

 Free energy of the ion-electron system (eV)
  ---------------------------------------------------
  alpha Z        PSCENC =      1901.92396875
  Ewald energy   TEWEN  =    -35102.59566783
  -Hartree energ DENC   =    -18865.82755405
  -exchange      EXHF   =         0.00000000
  -V(xc)+E(xc)   XCENC  =      2493.96176857
  PAW double counting   =     50013.20037402   -51684.80928644
  entropy T*S    EENTRO =        -0.09643263
  eigenvalues    EBANDS =     -3211.89183249
  atomic energy  EATOM  =     53541.67614029
  Solvation  Ediel_sol  =         0.00000000
  ---------------------------------------------------
  free energy    TOTEN  =      -914.45852180 eV

  energy without entropy =     -914.36208918  energy(sigma->0) =     -914.41030549


--------------------------------------------------------------------------------------------------------




--------------------------------------- Iteration      1(   7)  ---------------------------------------


    POTLOK:  cpu time    0.2248: real time    0.2254
    SETDIJ:  cpu time    0.0284: real time    0.0285
     EDDAV:  cpu time    5.4156: real time    5.4284
    CHARGE:  cpu time    0.3299: real time    0.3307
    MIXING:  cpu time    0.0053: real time    0.0053
    --------------------------------------------
      LOOP:  cpu time    6.0040: real time    6.0183

 eigenvalue-minimisations  :  2128
 total energy-change (2. order) : 0.1949762E+03  (-0.6587915E+02)
 number of electron     611.9999925 magnetization      56.6490145
 augmentation part      220.9043351 magnetization      53.6444030

 Broyden mixing:
  rms(total) = 0.16550E+02    rms(broyden)= 0.16549E+02
  rms(prec ) = 0.17682E+02
  weight for this iteration     100.00

 eigenvalues of (default mixing * dielectric matrix)
  average eigenvalue GAMMA=   0.4761
  0.4761  0.4761

 Free energy of the ion-electron system (eV)
  ---------------------------------------------------
  alpha Z        PSCENC =      1901.92396875
  Ewald energy   TEWEN  =    -35102.59566783
  -Hartree energ DENC   =    -19052.54094924
  -exchange      EXHF   =         0.00000000
  -V(xc)+E(xc)   XCENC  =      2480.30706968
  PAW double counting   =     51554.73414287   -53353.50371758
  entropy T*S    EENTRO =        -0.06408424
  eigenvalues    EBANDS =     -2689.41923135
  atomic energy  EATOM  =     53541.67614029
  Solvation  Ediel_sol  =         0.00000000
  ---------------------------------------------------
  free energy    TOTEN  =      -719.48232865 eV

  energy without entropy =     -719.41824441  energy(sigma->0) =     -719.45028653


--------------------------------------------------------------------------------------------------------




--------------------------------------- Iteration      1(   8)  ---------------------------------------


    POTLOK:  cpu time    0.2244: real time    0.2250
    SETDIJ:  cpu time    0.0284: real time    0.0284
     EDDAV:  cpu time    6.2529: real time    6.2678
    CHARGE:  cpu time    0.3272: real time    0.3280
    MIXING:  cpu time    0.0054: real time    0.0054
    --------------------------------------------
      LOOP:  cpu time    6.8382: real time    6.8545

 eigenvalue-minimisations  :  2544
 total energy-change (2. order) : 0.4450503E+02  (-0.5075746E+02)
 number of electron     611.9999932 magnetization      53.8041014
 augmentation part      198.6997364 magnetization      44.9761013

 Broyden mixing:
  rms(total) = 0.15706E+02    rms(broyden)= 0.15705E+02
  rms(prec ) = 0.20767E+02
  weight for this iteration     100.00

 eigenvalues of (default mixing * dielectric matrix)
  average eigenvalue GAMMA=   0.4499
  0.5610  0.5610  0.2278

 Free energy of the ion-electron system (eV)
  ---------------------------------------------------
  alpha Z        PSCENC =      1901.92396875
  Ewald energy   TEWEN  =    -35102.59566783
  -Hartree energ DENC   =    -19333.78638352
  -exchange      EXHF   =         0.00000000
  -V(xc)+E(xc)   XCENC  =      2466.06515922
  PAW double counting   =     53803.72894256   -55816.23893479
  entropy T*S    EENTRO =        -0.04997492
  eigenvalues    EBANDS =     -2135.70055089
  atomic energy  EATOM  =     53541.67614029
  Solvation  Ediel_sol  =         0.00000000
  ---------------------------------------------------
  free energy    TOTEN  =      -674.97730114 eV

  energy without entropy =     -674.92732621  energy(sigma->0) =     -674.95231367


--------------------------------------------------------------------------------------------------------




--------------------------------------- Iteration      1(   9)  ---------------------------------------


    POTLOK:  cpu time    0.2247: real time    0.2252
    SETDIJ:  cpu time    0.0284: real time    0.0285
     EDDAV:  cpu time    5.9685: real time    5.9827
    CHARGE:  cpu time    0.3255: real time    0.3263
    MIXING:  cpu time    0.0057: real time    0.0057
    --------------------------------------------
      LOOP:  cpu time    6.5528: real time    6.5684

 eigenvalue-minimisations  :  2400
 total energy-change (2. order) : 0.5608131E+02  (-0.3416763E+02)
 number of electron     611.9999919 magnetization      50.4484665
 augmentation part      192.2448877 magnetization      43.5597929

 Broyden mixing:
  rms(total) = 0.16036E+02    rms(broyden)= 0.16034E+02
  rms(prec ) = 0.21169E+02
  weight for this iteration     100.00

 eigenvalues of (default mixing * dielectric matrix)
  average eigenvalue GAMMA=   0.3951
  0.5836  0.5836  0.3258  0.0874

 Free energy of the ion-electron system (eV)
  ---------------------------------------------------
  alpha Z        PSCENC =      1901.92396875
  Ewald energy   TEWEN  =    -35102.59566783
  -Hartree energ DENC   =    -19291.92507425
  -exchange      EXHF   =         0.00000000
  -V(xc)+E(xc)   XCENC  =      2464.36968254
  PAW double counting   =     54592.10683855   -56615.83412438
  entropy T*S    EENTRO =        -0.09220547
  eigenvalues    EBANDS =     -2108.52554745
  atomic energy  EATOM  =     53541.67614029
  Solvation  Ediel_sol  =         0.00000000
  ---------------------------------------------------
  free energy    TOTEN  =      -618.89598925 eV

  energy without entropy =     -618.80378378  energy(sigma->0) =     -618.84988651


--------------------------------------------------------------------------------------------------------




--------------------------------------- Iteration      1(  10)  ---------------------------------------


    POTLOK:  cpu time    0.2243: real time    0.2249
    SETDIJ:  cpu time    0.0287: real time    0.0288
     EDDAV:  cpu time    6.1540: real time    6.1686
    CHARGE:  cpu time    0.3229: real time    0.3237
    MIXING:  cpu time    0.0059: real time    0.0059
    --------------------------------------------
      LOOP:  cpu time    6.7358: real time    6.7518

 eigenvalue-minimisations  :  2496
 total energy-change (2. order) : 0.8915146E+01  (-0.3811293E+02)
 number of electron     611.9999906 magnetization      46.8976001
 augmentation part      194.6297988 magnetization      41.1417870

 Broyden mixing:
  rms(total) = 0.15809E+02    rms(broyden)= 0.15808E+02
  rms(prec ) = 0.18978E+02
  weight for this iteration     100.00

 eigenvalues of (default mixing * dielectric matrix)
  average eigenvalue GAMMA=   0.3411
  0.5736  0.5736  0.3696  0.0944  0.0944

 Free energy of the ion-electron system (eV)
  ---------------------------------------------------
  alpha Z        PSCENC =      1901.92396875
  Ewald energy   TEWEN  =    -35102.59566783
  -Hartree energ DENC   =    -19245.21589441
  -exchange      EXHF   =         0.00000000
  -V(xc)+E(xc)   XCENC  =      2464.05099115
  PAW double counting   =     55599.60242719   -57637.36588196
  entropy T*S    EENTRO =        -0.05083595
  eigenvalues    EBANDS =     -2132.00609070
  atomic energy  EATOM  =     53541.67614029
  Solvation  Ediel_sol  =         0.00000000
  ---------------------------------------------------
  free energy    TOTEN  =      -609.98084347 eV

  energy without entropy =     -609.93000752  energy(sigma->0) =     -609.95542550


--------------------------------------------------------------------------------------------------------




--------------------------------------- Iteration      1(  11)  ---------------------------------------


    POTLOK:  cpu time    0.2255: real time    0.2261
    SETDIJ:  cpu time    0.0285: real time    0.0285
     EDDAV:  cpu time    5.8278: real time    5.8416
    CHARGE:  cpu time    0.3237: real time    0.3244
    MIXING:  cpu time    0.0060: real time    0.0061
    --------------------------------------------
      LOOP:  cpu time    6.4115: real time    6.4267

 eigenvalue-minimisations  :  2336
 total energy-change (2. order) : 0.6597891E+02  (-0.1061639E+02)
 number of electron     611.9999917 magnetization      42.9133925
 augmentation part      198.3514981 magnetization      41.7457650

 Broyden mixing:
  rms(total) = 0.69687E+01    rms(broyden)= 0.69676E+01
  rms(prec ) = 0.79583E+01
  weight for this iteration     100.00

 eigenvalues of (default mixing * dielectric matrix)
  average eigenvalue GAMMA=   0.3832
  0.7249  0.7249  0.2955  0.2955  0.1791  0.0789

 Free energy of the ion-electron system (eV)
  ---------------------------------------------------
  alpha Z        PSCENC =      1901.92396875
  Ewald energy   TEWEN  =    -35102.59566783
  -Hartree energ DENC   =    -19237.36532232
  -exchange      EXHF   =         0.00000000
  -V(xc)+E(xc)   XCENC  =      2465.24473763
  PAW double counting   =     56609.18621238   -58671.22680742
  entropy T*S    EENTRO =        -0.07003162
  eigenvalues    EBANDS =     -2050.77515934
  atomic energy  EATOM  =     53541.67614029
  Solvation  Ediel_sol  =         0.00000000
  ---------------------------------------------------
  free energy    TOTEN  =      -544.00192948 eV

  energy without entropy =     -543.93189786  energy(sigma->0) =     -543.96691367


--------------------------------------------------------------------------------------------------------




--------------------------------------- Iteration      1(  12)  ---------------------------------------


    POTLOK:  cpu time    0.2244: real time    0.2249
    SETDIJ:  cpu time    0.0284: real time    0.0285
     EDDAV:  cpu time    5.6036: real time    5.6169
    CHARGE:  cpu time    0.3286: real time    0.3294
    MIXING:  cpu time    0.0065: real time    0.0066
    --------------------------------------------
      LOOP:  cpu time    6.1916: real time    6.2064

 eigenvalue-minimisations  :  2224
 total energy-change (2. order) : 0.4778504E+01  (-0.7252039E+01)
 number of electron     611.9999912 magnetization      37.7277430
 augmentation part      198.9046493 magnetization      32.8478769

 Broyden mixing:
  rms(total) = 0.10084E+02    rms(broyden)= 0.10083E+02
  rms(prec ) = 0.11774E+02
  weight for this iteration     100.00

 eigenvalues of (default mixing * dielectric matrix)
  average eigenvalue GAMMA=   0.4018
  0.8369  0.8369  0.3540  0.3540  0.2359  0.1119  0.0832

 Free energy of the ion-electron system (eV)
  ---------------------------------------------------
  alpha Z        PSCENC =      1901.92396875
  Ewald energy   TEWEN  =    -35102.59566783
  -Hartree energ DENC   =    -19230.80104415
  -exchange      EXHF   =         0.00000000
  -V(xc)+E(xc)   XCENC  =      2467.88234906
  PAW double counting   =     57074.23884701   -59135.39398659
  entropy T*S    EENTRO =        -0.09285893
  eigenvalues    EBANDS =     -2056.06117324
  atomic energy  EATOM  =     53541.67614029
  Solvation  Ediel_sol  =         0.00000000
  ---------------------------------------------------
  free energy    TOTEN  =      -539.22342563 eV

  energy without entropy =     -539.13056670  energy(sigma->0) =     -539.17699616


--------------------------------------------------------------------------------------------------------




--------------------------------------- Iteration      1(  13)  ---------------------------------------


    POTLOK:  cpu time    0.2242: real time    0.2247
    SETDIJ:  cpu time    0.0284: real time    0.0284
     EDDAV:  cpu time    5.5068: real time    5.5199
    CHARGE:  cpu time    0.3285: real time    0.3293
    MIXING:  cpu time    0.0068: real time    0.0068
    --------------------------------------------
      LOOP:  cpu time    6.0947: real time    6.1092

 eigenvalue-minimisations  :  2176
 total energy-change (2. order) : 0.2321655E+02  (-0.1061489E+02)
 number of electron     611.9999922 magnetization      34.8717338
 augmentation part      201.1051826 magnetization      28.1889086

 Broyden mixing:
  rms(total) = 0.57399E+01    rms(broyden)= 0.57388E+01
  rms(prec ) = 0.70857E+01
  weight for this iteration     100.00

 eigenvalues of (default mixing * dielectric matrix)
  average eigenvalue GAMMA=   0.3964
  0.9150  0.7350  0.3900  0.3900  0.3695  0.1538  0.1370  0.0808

 Free energy of the ion-electron system (eV)
  ---------------------------------------------------
  alpha Z        PSCENC =      1901.92396875
  Ewald energy   TEWEN  =    -35102.59566783
  -Hartree energ DENC   =    -19245.69294487
  -exchange      EXHF   =         0.00000000
  -V(xc)+E(xc)   XCENC  =      2471.03445575
  PAW double counting   =     57757.92804428   -59820.28400340
  entropy T*S    EENTRO =        -0.04512615
  eigenvalues    EBANDS =     -2019.95173861
  atomic energy  EATOM  =     53541.67614029
  Solvation  Ediel_sol  =         0.00000000
  ---------------------------------------------------
  free energy    TOTEN  =      -516.00687180 eV

  energy without entropy =     -515.96174565  energy(sigma->0) =     -515.98430873


--------------------------------------------------------------------------------------------------------




--------------------------------------- Iteration      1(  14)  ---------------------------------------


    POTLOK:  cpu time    0.2244: real time    0.2250
    SETDIJ:  cpu time    0.0283: real time    0.0283
     EDDAV:  cpu time    5.6042: real time    5.6176
    CHARGE:  cpu time    0.3249: real time    0.3257
    MIXING:  cpu time    0.0068: real time    0.0068
    --------------------------------------------
      LOOP:  cpu time    6.1886: real time    6.2034

 eigenvalue-minimisations  :  2224
 total energy-change (2. order) :-0.7996216E+01  (-0.2260693E+02)
 number of electron     611.9999919 magnetization      31.9281840
 augmentation part      200.3797296 magnetization      28.1647602

 Broyden mixing:
  rms(total) = 0.54112E+01    rms(broyden)= 0.54107E+01
  rms(prec ) = 0.59614E+01
  weight for this iteration     100.00

 eigenvalues of (default mixing * dielectric matrix)
  average eigenvalue GAMMA=   0.3938
  1.1008  0.5137  0.5137  0.4382  0.4382  0.1693  0.1693  0.0811  0.1202

 Free energy of the ion-electron system (eV)
  ---------------------------------------------------
  alpha Z        PSCENC =      1901.92396875
  Ewald energy   TEWEN  =    -35102.59566783
  -Hartree energ DENC   =    -19268.79772250
  -exchange      EXHF   =         0.00000000
  -V(xc)+E(xc)   XCENC  =      2470.44385455
  PAW double counting   =     58258.01364369   -60330.87972646
  entropy T*S    EENTRO =        -0.05719658
  eigenvalues    EBANDS =     -1993.73038178
  atomic energy  EATOM  =     53541.67614029
  Solvation  Ediel_sol  =         0.00000000
  ---------------------------------------------------
  free energy    TOTEN  =      -524.00308786 eV

  energy without entropy =     -523.94589128  energy(sigma->0) =     -523.97448957


--------------------------------------------------------------------------------------------------------




--------------------------------------- Iteration      1(  15)  ---------------------------------------


    POTLOK:  cpu time    0.2243: real time    0.2248
    SETDIJ:  cpu time    0.0281: real time    0.0282
     EDDAV:  cpu time    5.3796: real time    5.3974
    CHARGE:  cpu time    0.3250: real time    0.3258
    MIXING:  cpu time    0.0071: real time    0.0071
    --------------------------------------------
      LOOP:  cpu time    5.9640: real time    5.9832

 eigenvalue-minimisations  :  2112
 total energy-change (2. order) : 0.6891112E+01  (-0.1103972E+01)
 number of electron     611.9999920 magnetization      28.4116357
 augmentation part      201.2044476 magnetization      24.4764229

 Broyden mixing:
  rms(total) = 0.25871E+01    rms(broyden)= 0.25868E+01
  rms(prec ) = 0.29349E+01
  weight for this iteration     100.00

 eigenvalues of (default mixing * dielectric matrix)
  average eigenvalue GAMMA=   0.4182
  0.9683  0.9683  0.4781  0.4781  0.3606  0.3606  0.1998  0.1567  0.1302  0.0810

 Free energy of the ion-electron system (eV)
  ---------------------------------------------------
  alpha Z        PSCENC =      1901.92396875
  Ewald energy   TEWEN  =    -35102.59566783
  -Hartree energ DENC   =    -19282.22176167
  -exchange      EXHF   =         0.00000000
  -V(xc)+E(xc)   XCENC  =      2469.62294143
  PAW double counting   =     58642.69534202   -60720.19825650
  entropy T*S    EENTRO =        -0.03606685
  eigenvalues    EBANDS =     -1967.97861538
  atomic energy  EATOM  =     53541.67614029
  Solvation  Ediel_sol  =         0.00000000
  ---------------------------------------------------
  free energy    TOTEN  =      -517.11197574 eV

  energy without entropy =     -517.07590889  energy(sigma->0) =     -517.09394231


--------------------------------------------------------------------------------------------------------




--------------------------------------- Iteration      1(  16)  ---------------------------------------


    POTLOK:  cpu time    0.2253: real time    0.2258
    SETDIJ:  cpu time    0.0283: real time    0.0284
     EDDAV:  cpu time    5.2582: real time    5.2707
    CHARGE:  cpu time    0.3236: real time    0.3243
    MIXING:  cpu time    0.0076: real time    0.0076
    --------------------------------------------
      LOOP:  cpu time    5.8429: real time    5.8568

 eigenvalue-minimisations  :  2064
 total energy-change (2. order) :-0.3163791E+01  (-0.6892834E+00)
 number of electron     611.9999921 magnetization      25.4423081
 augmentation part      201.4527065 magnetization      21.7093348

 Broyden mixing:
  rms(total) = 0.21785E+01    rms(broyden)= 0.21782E+01
  rms(prec ) = 0.24998E+01
  weight for this iteration     100.00

 eigenvalues of (default mixing * dielectric matrix)
  average eigenvalue GAMMA=   0.4116
  0.8726  0.7130  0.7130  0.4679  0.4679  0.3631  0.3631  0.1992  0.1586  0.1279
  0.0810

 Free energy of the ion-electron system (eV)
  ---------------------------------------------------
  alpha Z        PSCENC =      1901.92396875
  Ewald energy   TEWEN  =    -35102.59566783
  -Hartree energ DENC   =    -19298.78894165
  -exchange      EXHF   =         0.00000000
  -V(xc)+E(xc)   XCENC  =      2467.88883854
  PAW double counting   =     58945.15133031   -61020.94810668
  entropy T*S    EENTRO =        -0.00956784
  eigenvalues    EBANDS =     -1954.57376017
  atomic energy  EATOM  =     53541.67614029
  Solvation  Ediel_sol  =         0.00000000
  ---------------------------------------------------
  free energy    TOTEN  =      -520.27576629 eV

  energy without entropy =     -520.26619844  energy(sigma->0) =     -520.27098236


--------------------------------------------------------------------------------------------------------




--------------------------------------- Iteration      1(  17)  ---------------------------------------


    POTLOK:  cpu time    0.2248: real time    0.2253
    SETDIJ:  cpu time    0.0285: real time    0.0285
     EDDAV:  cpu time    5.6720: real time    5.6855
    CHARGE:  cpu time    0.3266: real time    0.3274
    MIXING:  cpu time    0.0082: real time    0.0082
    --------------------------------------------
      LOOP:  cpu time    6.2600: real time    6.2749

 eigenvalue-minimisations  :  2272
 total energy-change (2. order) :-0.3438140E+01  (-0.5807574E+00)
 number of electron     611.9999921 magnetization      21.1250940
 augmentation part      201.6873991 magnetization      17.5729546

 Broyden mixing:
  rms(total) = 0.17474E+01    rms(broyden)= 0.17472E+01
  rms(prec ) = 0.20327E+01
  weight for this iteration     100.00

 eigenvalues of (default mixing * dielectric matrix)
  average eigenvalue GAMMA=   0.4417
  0.9841  0.9841  0.5822  0.5822  0.4436  0.4436  0.3561  0.3561  0.2009  0.1577
  0.1284  0.0810

 Free energy of the ion-electron system (eV)
  ---------------------------------------------------
  alpha Z        PSCENC =      1901.92396875
  Ewald energy   TEWEN  =    -35102.59566783
  -Hartree energ DENC   =    -19305.28170481
  -exchange      EXHF   =         0.00000000
  -V(xc)+E(xc)   XCENC  =      2466.34494237
  PAW double counting   =     59241.15994087   -61316.72749210
  entropy T*S    EENTRO =        -0.02036461
  eigenvalues    EBANDS =     -1950.19366928
  atomic energy  EATOM  =     53541.67614029
  Solvation  Ediel_sol  =         0.00000000
  ---------------------------------------------------
  free energy    TOTEN  =      -523.71390635 eV

  energy without entropy =     -523.69354174  energy(sigma->0) =     -523.70372405


--------------------------------------------------------------------------------------------------------




--------------------------------------- Iteration      1(  18)  ---------------------------------------


    POTLOK:  cpu time    0.2247: real time    0.2252
    SETDIJ:  cpu time    0.0286: real time    0.0287
     EDDAV:  cpu time    5.7032: real time    5.7178
    CHARGE:  cpu time    0.3243: real time    0.3251
    MIXING:  cpu time    0.0082: real time    0.0082
    --------------------------------------------
      LOOP:  cpu time    6.2889: real time    6.3049

 eigenvalue-minimisations  :  2288
 total energy-change (2. order) :-0.5497555E+01  (-0.6443126E+00)
 number of electron     611.9999921 magnetization      16.8250095
 augmentation part      201.3339287 magnetization      13.6059222

 Broyden mixing:
  rms(total) = 0.13960E+01    rms(broyden)= 0.13958E+01
  rms(prec ) = 0.16743E+01
  weight for this iteration     100.00

 eigenvalues of (default mixing * dielectric matrix)
  average eigenvalue GAMMA=   0.4954
  1.2660  1.0843  1.0843  0.4979  0.4979  0.4190  0.4190  0.3725  0.0810  0.2350
  0.1284  0.1573  0.1970

 Free energy of the ion-electron system (eV)
  ---------------------------------------------------
  alpha Z        PSCENC =      1901.92396875
  Ewald energy   TEWEN  =    -35102.59566783
  -Hartree energ DENC   =    -19317.08576289
  -exchange      EXHF   =         0.00000000
  -V(xc)+E(xc)   XCENC  =      2464.03902194
  PAW double counting   =     59572.14376668   -61648.04572411
  entropy T*S    EENTRO =        -0.01134714
  eigenvalues    EBANDS =     -1941.25585675
  atomic energy  EATOM  =     53541.67614029
  Solvation  Ediel_sol  =         0.00000000
  ---------------------------------------------------
  free energy    TOTEN  =      -529.21146106 eV

  energy without entropy =     -529.20011392  energy(sigma->0) =     -529.20578749


--------------------------------------------------------------------------------------------------------




--------------------------------------- Iteration      1(  19)  ---------------------------------------


    POTLOK:  cpu time    0.2246: real time    0.2252
    SETDIJ:  cpu time    0.0284: real time    0.0285
     EDDAV:  cpu time    5.7047: real time    5.7182
    CHARGE:  cpu time    0.3228: real time    0.3236
    MIXING:  cpu time    0.0082: real time    0.0082
    --------------------------------------------
      LOOP:  cpu time    6.2887: real time    6.3037

 eigenvalue-minimisations  :  2288
 total energy-change (2. order) :-0.5946606E+01  (-0.9295593E+00)
 number of electron     611.9999920 magnetization      13.8313033
 augmentation part      201.5707845 magnetization      10.9468660

 Broyden mixing:
  rms(total) = 0.15172E+01    rms(broyden)= 0.15169E+01
  rms(prec ) = 0.17716E+01
  weight for this iteration     100.00

 eigenvalues of (default mixing * dielectric matrix)
  average eigenvalue GAMMA=   0.5151
  1.5449  1.1849  1.1849  0.5425  0.5425  0.4247  0.4247  0.3045  0.3045  0.0810
  0.1284  0.1571  0.1931  0.1931

 Free energy of the ion-electron system (eV)
  ---------------------------------------------------
  alpha Z        PSCENC =      1901.92396875
  Ewald energy   TEWEN  =    -35102.59566783
  -Hartree energ DENC   =    -19308.74458852
  -exchange      EXHF   =         0.00000000
  -V(xc)+E(xc)   XCENC  =      2461.42498660
  PAW double counting   =     59881.19964988   -61955.36102347
  entropy T*S    EENTRO =        -0.02928868
  eigenvalues    EBANDS =     -1954.65224386
  atomic energy  EATOM  =     53541.67614029
  Solvation  Ediel_sol  =         0.00000000
  ---------------------------------------------------
  free energy    TOTEN  =      -535.15806683 eV

  energy without entropy =     -535.12877816  energy(sigma->0) =     -535.14342250


--------------------------------------------------------------------------------------------------------




--------------------------------------- Iteration      1(  20)  ---------------------------------------


    POTLOK:  cpu time    0.2249: real time    0.2254
    SETDIJ:  cpu time    0.0283: real time    0.0284
     EDDAV:  cpu time    5.6113: real time    5.6246
    CHARGE:  cpu time    0.3229: real time    0.3237
    MIXING:  cpu time    0.0085: real time    0.0085
    --------------------------------------------
      LOOP:  cpu time    6.1958: real time    6.2105

 eigenvalue-minimisations  :  2240
 total energy-change (2. order) :-0.2415283E+01  (-0.5379515E+00)
 number of electron     611.9999921 magnetization      11.7902177
 augmentation part      201.6863750 magnetization       9.2201306

 Broyden mixing:
  rms(total) = 0.81538E+00    rms(broyden)= 0.81515E+00
  rms(prec ) = 0.96690E+00
  weight for this iteration     100.00

 eigenvalues of (default mixing * dielectric matrix)
  average eigenvalue GAMMA=   0.5349
  1.6060  1.6060  0.8081  0.8081  0.4553  0.4553  0.4559  0.4559  0.3630  0.0810
  0.2611  0.1284  0.1572  0.1914  0.1914

 Free energy of the ion-electron system (eV)
  ---------------------------------------------------
  alpha Z        PSCENC =      1901.92396875
  Ewald energy   TEWEN  =    -35102.59566783
  -Hartree energ DENC   =    -19299.45016628
  -exchange      EXHF   =         0.00000000
  -V(xc)+E(xc)   XCENC  =      2459.78700379
  PAW double counting   =     60072.15306525   -62145.68125335
  entropy T*S    EENTRO =        -0.01560678
  eigenvalues    EBANDS =     -1965.37083361
  atomic energy  EATOM  =     53541.67614029
  Solvation  Ediel_sol  =         0.00000000
  ---------------------------------------------------
  free energy    TOTEN  =      -537.57334976 eV

  energy without entropy =     -537.55774298  energy(sigma->0) =     -537.56554637


--------------------------------------------------------------------------------------------------------




--------------------------------------- Iteration      1(  21)  ---------------------------------------


    POTLOK:  cpu time    0.2250: real time    0.2255
    SETDIJ:  cpu time    0.0283: real time    0.0284
     EDDAV:  cpu time    5.5658: real time    5.5790
    CHARGE:  cpu time    0.3235: real time    0.3243
    MIXING:  cpu time    0.0088: real time    0.0088
    --------------------------------------------
      LOOP:  cpu time    6.1514: real time    6.1660

 eigenvalue-minimisations  :  2224
 total energy-change (2. order) :-0.1628229E+01  (-0.2274824E+00)
 number of electron     611.9999921 magnetization      10.1522860
 augmentation part      201.3636226 magnetization       7.9281376

 Broyden mixing:
  rms(total) = 0.63582E+00    rms(broyden)= 0.63575E+00
  rms(prec ) = 0.75440E+00
  weight for this iteration     100.00

 eigenvalues of (default mixing * dielectric matrix)
  average eigenvalue GAMMA=   0.5575
  1.7801  1.7801  0.8931  0.8931  0.4907  0.4907  0.4407  0.4407  0.3575  0.3575
  0.0810  0.2491  0.1284  0.2020  0.1574  0.1788

 Free energy of the ion-electron system (eV)
  ---------------------------------------------------
  alpha Z        PSCENC =      1901.92396875
  Ewald energy   TEWEN  =    -35102.59566783
  -Hartree energ DENC   =    -19292.78453741
  -exchange      EXHF   =         0.00000000
  -V(xc)+E(xc)   XCENC  =      2458.70301446
  PAW double counting   =     60117.55023643   -62191.23089743
  entropy T*S    EENTRO =        -0.01655292
  eigenvalues    EBANDS =     -1972.42728328
  atomic energy  EATOM  =     53541.67614029
  Solvation  Ediel_sol  =         0.00000000
  ---------------------------------------------------
  free energy    TOTEN  =      -539.20157894 eV

  energy without entropy =     -539.18502601  energy(sigma->0) =     -539.19330248


--------------------------------------------------------------------------------------------------------




--------------------------------------- Iteration      1(  22)  ---------------------------------------


    POTLOK:  cpu time    0.2246: real time    0.2251
    SETDIJ:  cpu time    0.0283: real time    0.0284
     EDDAV:  cpu time    5.3772: real time    5.3900
    CHARGE:  cpu time    0.3255: real time    0.3263
    MIXING:  cpu time    0.0090: real time    0.0090
    --------------------------------------------
      LOOP:  cpu time    5.9646: real time    5.9788

 eigenvalue-minimisations  :  2128
 total energy-change (2. order) :-0.6352189E+00  (-0.1514731E+00)
 number of electron     611.9999921 magnetization       9.3710682
 augmentation part      201.5704996 magnetization       7.3342747

 Broyden mixing:
  rms(total) = 0.59317E+00    rms(broyden)= 0.59306E+00
  rms(prec ) = 0.62823E+00
  weight for this iteration     100.00

 eigenvalues of (default mixing * dielectric matrix)
  average eigenvalue GAMMA=   0.5461
  1.8161  1.8161  0.9032  0.9032  0.5208  0.5208  0.4315  0.4315  0.3911  0.3911
  0.2543  0.0810  0.2046  0.1284  0.1775  0.1591  0.1534

 Free energy of the ion-electron system (eV)
  ---------------------------------------------------
  alpha Z        PSCENC =      1901.92396875
  Ewald energy   TEWEN  =    -35102.59566783
  -Hartree energ DENC   =    -19278.42005638
  -exchange      EXHF   =         0.00000000
  -V(xc)+E(xc)   XCENC  =      2457.81814004
  PAW double counting   =     60126.35377801   -62198.07290870
  entropy T*S    EENTRO =        -0.01657841
  eigenvalues    EBANDS =     -1988.50361364
  atomic energy  EATOM  =     53541.67614029
  Solvation  Ediel_sol  =         0.00000000
  ---------------------------------------------------
  free energy    TOTEN  =      -539.83679786 eV

  energy without entropy =     -539.82021945  energy(sigma->0) =     -539.82850865


--------------------------------------------------------------------------------------------------------




--------------------------------------- Iteration      1(  23)  ---------------------------------------


    POTLOK:  cpu time    0.2244: real time    0.2249
    SETDIJ:  cpu time    0.0283: real time    0.0284
     EDDAV:  cpu time    5.2790: real time    5.2953
    CHARGE:  cpu time    0.3257: real time    0.3265
    MIXING:  cpu time    0.0092: real time    0.0092
    --------------------------------------------
      LOOP:  cpu time    5.8665: real time    5.8843

 eigenvalue-minimisations  :  2080
 total energy-change (2. order) :-0.7216023E-01  (-0.3815319E-01)
 number of electron     611.9999921 magnetization       9.0466822
 augmentation part      201.5847356 magnetization       7.0857050

 Broyden mixing:
  rms(total) = 0.49224E+00    rms(broyden)= 0.49220E+00
  rms(prec ) = 0.52745E+00
  weight for this iteration     100.00

 eigenvalues of (default mixing * dielectric matrix)
  average eigenvalue GAMMA=   0.5415
  1.8225  1.8225  0.8702  0.8702  0.5606  0.5606  0.4231  0.4231  0.4115  0.4115
  0.2909  0.2909  0.0810  0.2413  0.1284  0.2032  0.1574  0.1782

 Free energy of the ion-electron system (eV)
  ---------------------------------------------------
  alpha Z        PSCENC =      1901.92396875
  Ewald energy   TEWEN  =    -35102.59566783
  -Hartree energ DENC   =    -19274.16797274
  -exchange      EXHF   =         0.00000000
  -V(xc)+E(xc)   XCENC  =      2457.55120575
  PAW double counting   =     60127.68272269   -62199.01343155
  entropy T*S    EENTRO =        -0.01918500
  eigenvalues    EBANDS =     -1992.94673845
  atomic energy  EATOM  =     53541.67614029
  Solvation  Ediel_sol  =         0.00000000
  ---------------------------------------------------
  free energy    TOTEN  =      -539.90895809 eV

  energy without entropy =     -539.88977309  energy(sigma->0) =     -539.89936559


--------------------------------------------------------------------------------------------------------




--------------------------------------- Iteration      1(  24)  ---------------------------------------


    POTLOK:  cpu time    0.2253: real time    0.2258
    SETDIJ:  cpu time    0.0284: real time    0.0284
     EDDAV:  cpu time    5.4365: real time    5.4494
    CHARGE:  cpu time    0.3263: real time    0.3271
    MIXING:  cpu time    0.0097: real time    0.0097
    --------------------------------------------
      LOOP:  cpu time    6.0261: real time    6.0404

 eigenvalue-minimisations  :  2160
 total energy-change (2. order) :-0.1151923E-01  (-0.7218983E-02)
 number of electron     611.9999921 magnetization       7.8968425
 augmentation part      201.5337415 magnetization       5.9099656

 Broyden mixing:
  rms(total) = 0.43465E+00    rms(broyden)= 0.43464E+00
  rms(prec ) = 0.46960E+00
  weight for this iteration     100.00

 eigenvalues of (default mixing * dielectric matrix)
  average eigenvalue GAMMA=   0.6106
  1.9100  1.9100  1.1652  1.1652  0.7787  0.7787  0.4625  0.4625  0.5202  0.4256
  0.4256  0.3920  0.0810  0.2521  0.1284  0.1573  0.2090  0.1992  0.1790

 Free energy of the ion-electron system (eV)
  ---------------------------------------------------
  alpha Z        PSCENC =      1901.92396875
  Ewald energy   TEWEN  =    -35102.59566783
  -Hartree energ DENC   =    -19274.53366257
  -exchange      EXHF   =         0.00000000
  -V(xc)+E(xc)   XCENC  =      2457.56277777
  PAW double counting   =     60115.40930809   -62186.89928858
  entropy T*S    EENTRO =        -0.01374754
  eigenvalues    EBANDS =     -1992.45030571
  atomic energy  EATOM  =     53541.67614029
  Solvation  Ediel_sol  =         0.00000000
  ---------------------------------------------------
  free energy    TOTEN  =      -539.92047732 eV

  energy without entropy =     -539.90672978  energy(sigma->0) =     -539.91360355


[...]
   0.257E+02 -.530E+01 0.348E+03   -.279E+02 0.606E+01 -.370E+03   0.214E+01 -.762E+00 0.226E+02   0.363E-02 0.844E-02 -.399E-01
   -.320E+02 0.203E+02 -.346E+03   0.352E+02 -.218E+02 0.369E+03   -.322E+01 0.149E+01 -.226E+02   0.107E-01 0.149E-01 -.367E-01
   0.181E+01 0.460E+02 0.349E+03   -.219E+01 -.493E+02 -.372E+03   0.381E+00 0.332E+01 0.227E+02   0.640E-02 0.104E-01 0.508E-02
   0.295E+02 0.170E+02 -.356E+03   -.325E+02 -.188E+02 0.378E+03   0.299E+01 0.172E+01 -.219E+02   0.495E-02 0.286E-02 -.161E-01
   -.271E+02 -.156E+02 0.353E+03   0.297E+02 0.172E+02 -.376E+03   -.266E+01 -.153E+01 0.221E+02   0.929E-02 0.536E-02 0.317E-01
   0.282E+02 0.163E+02 -.354E+03   -.311E+02 -.180E+02 0.376E+03   0.297E+01 0.171E+01 -.219E+02   0.692E-02 0.400E-02 0.408E-01
   -.344E+02 -.198E+02 0.355E+03   0.369E+02 0.213E+02 -.378E+03   -.256E+01 -.148E+01 0.221E+02   -.109E-02 -.627E-03 -.423E-01
   0.161E+01 -.379E+02 -.346E+03   -.131E+01 0.414E+02 0.369E+03   -.317E+00 -.353E+01 -.226E+02   0.182E-01 0.182E-02 -.367E-01
   0.407E+02 -.214E+02 0.349E+03   -.438E+02 0.228E+02 -.372E+03   0.307E+01 -.133E+01 0.227E+02   0.122E-01 0.339E-03 0.508E-02
   0.163E+02 -.194E+01 -.379E+03   -.165E+02 0.118E+01 0.406E+03   0.208E+00 0.752E+00 -.270E+02   0.134E-01 0.180E-02 0.426E-03
   0.781E+01 -.160E+02 0.378E+03   -.831E+01 0.164E+02 -.405E+03   0.454E+00 -.398E+00 0.270E+02   0.538E-01 -.203E-01 0.531E-02
   0.164E+02 -.223E+00 -.377E+03   -.166E+02 -.486E+00 0.404E+03   0.202E+00 0.707E+00 -.269E+02   0.174E-01 0.364E-02 0.508E-01
   0.828E+01 0.249E+02 0.348E+03   -.870E+01 -.272E+02 -.370E+03   0.410E+00 0.223E+01 0.226E+02   0.912E-02 -.107E-02 -.399E-01
   0.358E+02 0.207E+02 -.345E+03   -.383E+02 -.221E+02 0.367E+03   0.245E+01 0.141E+01 -.224E+02   0.541E-01 0.312E-01 -.972E-02
   0.110E+02 0.635E+01 0.371E+03   -.108E+02 -.624E+01 -.397E+03   -.189E+00 -.109E+00 0.268E+02   0.928E-02 0.536E-02 -.238E-02
 -----------------------------------------------------------------------------------------------
   -.105E-02 0.973E-03 0.221E-02   -.592E-12 -.423E-12 -.114E-12   -.233E-14 -.257E-14 0.711E-14   -.244E-07 -.970E-07 -.859E-07
 
 
 POSITION                                       TOTAL-FORCE (eV/Angst)
 -----------------------------------------------------------------------------------
      4.18631      7.25825      7.07014        -0.010094     -0.005828      0.003907
      1.39212      0.80374     11.77657        -0.006276     -0.003623      0.001089
     -1.38050      4.04425      2.35276         0.010094      0.005828     -0.003907
      2.80075      1.61701      2.36217         0.000527      0.000304     -0.000716
      4.19773      2.42356      7.06074        -0.000527     -0.000304      0.000716
      5.61816      3.24364     11.76874         0.006276      0.003623     -0.001089
      4.18961      7.26016      0.05191         0.003423      0.001976     -0.003482
      1.40057      0.80862      4.72019        -0.000424     -0.000245     -0.001054
      0.00162      1.62723      9.42771        -0.001001     -0.005366      0.000211
     -1.37924      2.41868     14.11042         0.001001      0.005366     -0.000211
      0.00890      3.22604      4.74019         0.000409     -0.000727     -0.007346
     -1.38380      4.04235      9.37099        -0.003423     -0.001976      0.003482
     -2.78765      4.85813     14.11042         0.005147     -0.001816     -0.000211
     -1.39439      5.65662      4.74019        -0.000425      0.000717     -0.007346
     -2.78264      6.44971      9.42771        -0.005147      0.001816      0.000211
     -1.39189      7.25238      0.01497        -0.003393      0.002682      0.001452
      4.20443      0.79886      4.71145        -0.005568      0.009644     -0.000000
      2.80349      1.61860      9.41812        -0.000678     -0.000392     -0.000359
      1.39213      2.43033      0.01497         0.000626     -0.004280      0.001452
      2.79405      3.24172      4.71145         0.005568     -0.009644     -0.000000
      1.40808      4.03638      9.41768         0.000582     -0.001422     -0.000332
      0.01934      4.85245     14.08008        -0.001799     -0.001039      0.004037
      1.40290      5.65125      4.71145         0.000000      0.000000     -0.000000
      0.00697      6.46318      9.41768        -0.000940      0.001215     -0.000332
      5.59040      0.00420      0.00522        -0.000582      0.001422      0.000332
      6.98958      0.81453      4.68271        -0.000409      0.000727      0.007346
      5.60635      1.61025      9.40793        -0.000626      0.004280     -0.001452
      4.19499      2.42198      0.00478         0.000678      0.000392      0.000359
      5.59791      3.23196      4.70271         0.000424      0.000245      0.001054
      4.19769      4.05012      9.40793         0.003393     -0.002682     -0.001452
      2.79883      4.83933      0.00522         0.000940     -0.001215      0.000332
      4.20020      5.64588      4.68271         0.000425     -0.000717      0.007346
      2.79825      6.45686      9.46522         0.001799      0.001039     -0.004037
      0.03243      0.01872     10.40342        -0.003325     -0.001920     -0.007679
      0.01442      0.00833      3.74947         0.002131      0.001230      0.011684
      1.42372      0.82198      0.98967        -0.002283     -0.001318     -0.007087
      1.37028      0.79113      8.46175        -0.001619     -0.000934     -0.001116
     -0.00651      1.57915      5.67164         0.000581      0.003406     -0.000095
      0.03576      1.59784     13.17542         0.002161      0.003843     -0.000242
      6.97451      2.44955     10.36988        -0.002161     -0.003843      0.000242
     -1.38291      2.45996      3.74409        -0.000581     -0.003406      0.000095
     -0.02289      3.25160      0.95031         0.000814     -0.003753      0.002124
      0.01934      3.22623      8.46249        -0.000719      0.002078      0.006072
     -1.40383      4.03078      5.66626        -0.002131     -0.001230     -0.011684
     -1.41005      4.02720     13.13471         0.003325      0.001920      0.007679
      5.60863      4.81533     10.36988        -0.004409      0.000050      0.000242
     -2.75375      4.83432      3.74409        -0.003240      0.001200      0.000095
     -1.38816      5.61630      0.95031        -0.002843      0.002582      0.002124
     -1.38901      5.66557      8.46249         0.001440     -0.001662      0.006072
     -2.82834      6.46672      5.67164         0.003240     -0.001200     -0.000095
     -2.79103      6.49398     13.17542         0.004409     -0.000050     -0.000242
      2.78249      0.01460     10.38085        -0.000268     -0.002252     -0.002555
      2.80057      0.02166      3.75910        -0.000309      0.001461      0.000751
      4.17303      0.81789      0.96870         0.001344     -0.001648     -0.003091
      4.20365      0.83557      8.45420         0.000755     -0.001988      0.003091
      2.82393      1.63040      5.68148        -0.002693     -0.001555     -0.004540
      2.77349      1.60128     13.17408        -0.003091     -0.001785     -0.001365
      1.40389      2.40240     10.38085        -0.002084      0.000894     -0.002555
      1.41904      2.41454      3.75910         0.001111     -0.000999      0.000751
      2.79483      3.20500      0.96870        -0.000755      0.001988     -0.003091
      2.82545      3.22269      8.45420        -0.001344      0.001648      0.003091
      1.40940      4.04005      5.66446        -0.003560     -0.002137     -0.006057
      1.42251      4.03551     13.17061         0.000296      0.001730      0.006098
     -0.00242      4.83989     10.33798        -0.002639     -0.001524      0.000058
     -0.02193      4.82863      3.77684         0.002123      0.001226     -0.006766
      1.38899      5.64322      0.92385        -0.001359     -0.000785     -0.000682
      1.41682      5.65929      8.49905         0.001359      0.000785      0.000682
      0.01081      6.46248      5.66446        -0.003630     -0.002015     -0.006057
      0.01343      6.47610     13.17061         0.001646     -0.000609      0.006098
      5.58776      0.01187     10.37470        -0.000296     -0.001730     -0.006098
      1.39641      7.26246      3.75844         0.003560      0.002137      0.006057
      6.97914      0.81435      0.96041         0.000719     -0.002078     -0.006072
      7.02137      0.78898      8.47259        -0.000814      0.003753     -0.002124
      5.57944      1.62604      5.66380        -0.001111      0.000999     -0.000751
      5.60638      1.64498     13.16446         0.002084     -0.000894      0.002555
      4.23678      2.44611     10.37122         0.003091      0.001785      0.001365
      4.17455      2.41018      3.74143         0.002693      0.001555      0.004540
      5.62820      3.24944      0.96115         0.001619      0.000934      0.001116
      5.57477      3.21859      8.43323         0.002283      0.001318      0.007087
      4.19791      4.01891      5.66380         0.000309     -0.001461     -0.000751
      4.22779      4.03278     13.16446         0.000268      0.002252      0.002555
      2.80416      4.83321     10.37470        -0.001646      0.000609     -0.006098
      2.79500      4.84003      3.75844         0.003630      0.002015      0.006057
      4.19482      5.63694      0.96041        -0.001440      0.001662     -0.006072
      4.19396      5.68620      8.47259         0.002843     -0.002582     -0.002124
      2.82773      6.47388      5.64606        -0.002123     -0.001226      0.006766
      2.82001      6.46942     13.20733         0.002639      0.001524     -0.000058
 -----------------------------------------------------------------------------------
    total drift:                               -0.001045      0.000973      0.002207


--------------------------------------------------------------------------------------------------------



  FREE ENERGIE OF THE ION-ELECTRON SYSTEM (eV)
  ---------------------------------------------------
  free  energy   TOTEN  =      -539.9970925542 eV

  energy  without entropy=     -539.9784311997  energy(sigma->0) =     -539.98776188
 


--------------------------------------------------------------------------------------------------------


    POTLOK:  cpu time    0.2537: real time    0.2543


--------------------------------------------------------------------------------------------------------


 Quasi-Newton relaxation of ions (Broydens 2nd method)
  g(Force)  = 0.136E-03   g(Stress)= 0.406E-03

 Reset! Starting new Quasi-Newton update for ions 


--------------------------------------------------------------------------------------------------------


  
 reached required accuracy - stopping structural energy minimisation
     LOOP+:  cpu time  234.4137: real time  235.2498
    4ORBIT:  cpu time    0.0000: real time    0.0000

volume of typ            1:     5.4 %

volume of typ            2:    20.0 %

volume of typ            3:    10.2 %
 
total charge     
 
# of ion       s       p       d       tot
------------------------------------------
    1        2.069   0.226   0.088   2.383
    2        2.069   0.228   0.089   2.387
    3        2.069   0.226   0.088   2.383
    4        2.069   0.227   0.089   2.386
    5        2.069   0.227   0.089   2.386
    6        2.069   0.228   0.089   2.387
    7        0.296   0.412   7.826   8.535
    8        0.297   0.413   7.832   8.541
    9        0.297   0.414   7.832   8.543
   10        0.297   0.414   7.832   8.543
   11        0.292   0.404   7.827   8.522
   12        0.296   0.412   7.826   8.535
   13        0.297   0.414   7.832   8.543
   14        0.292   0.404   7.827   8.522
   15        0.297   0.414   7.832   8.543
   16        0.297   0.414   7.832   8.543
   17        0.301   0.422   7.831   8.554
   18        0.290   0.399   7.837   8.526
   19        0.297   0.414   7.832   8.543
   20        0.301   0.422   7.831   8.554
   21        0.292   0.404   7.822   8.518
   22        0.296   0.412   7.827   8.534
   23        0.291   0.403   7.824   8.518
   24        0.292   0.404   7.822   8.518
   25        0.292   0.404   7.822   8.518
   26        0.292   0.404   7.827   8.522
   27        0.297   0.414   7.832   8.543
   28        0.290   0.399   7.837   8.526
   29        0.297   0.413   7.832   8.541
   30        0.297   0.414   7.832   8.543
   31        0.292   0.404   7.822   8.518
   32        0.292   0.404   7.827   8.522
   33        0.296   0.412   7.827   8.534
   34        1.275   2.750   0.007   4.033
   35        1.288   2.713   0.008   4.009
   36        1.276   2.749   0.007   4.032
   37        1.278   2.744   0.007   4.029
   38        1.275   2.753   0.007   4.035
   39        1.275   2.755   0.007   4.037
   40        1.275   2.755   0.007   4.037
   41        1.275   2.753   0.007   4.035
   42        1.275   2.754   0.007   4.036
   43        1.286   2.722   0.008   4.016
   44        1.288   2.713   0.008   4.009
   45        1.275   2.750   0.007   4.033
   46        1.275   2.755   0.007   4.037
   47        1.275   2.753   0.007   4.035
   48        1.275   2.754   0.007   4.036
   49        1.286   2.722   0.008   4.016
   50        1.275   2.753   0.007   4.035
   51        1.275   2.755   0.007   4.037
   52        1.275   2.752   0.007   4.035
   53        1.276   2.752   0.007   4.035
   54        1.275   2.752   0.007   4.035
   55        1.275   2.752   0.007   4.035
   56        1.275   2.750   0.007   4.033
   57        1.278   2.745   0.007   4.030
   58        1.275   2.752   0.007   4.035
   59        1.276   2.752   0.007   4.035
   60        1.275   2.752   0.007   4.035
   61        1.275   2.752   0.007   4.035
   62        1.286   2.722   0.008   4.016
   63        1.286   2.721   0.008   4.015
   64        1.288   2.715   0.008   4.012
   65        1.277   2.746   0.007   4.031
   66        1.288   2.716   0.008   4.012
   67        1.288   2.716   0.008   4.012
   68        1.286   2.722   0.008   4.016
   69        1.286   2.721   0.008   4.015
   70        1.286   2.721   0.008   4.015
   71        1.286   2.722   0.008   4.016
   72        1.286   2.722   0.008   4.016
   73        1.275   2.754   0.007   4.036
   74        1.276   2.752   0.007   4.035
   75        1.275   2.752   0.007   4.035
   76        1.278   2.745   0.007   4.030
   77        1.275   2.750   0.007   4.033
   78        1.278   2.744   0.007   4.029
   79        1.276   2.749   0.007   4.032
   80        1.276   2.752   0.007   4.035
   81        1.275   2.752   0.007   4.035
   82        1.286   2.721   0.008   4.015
   83        1.286   2.722   0.008   4.016
   84        1.286   2.722   0.008   4.016
   85        1.275   2.754   0.007   4.036
   86        1.277   2.746   0.007   4.031
   87        1.288   2.715   0.008   4.012
--------------------------------------------------
tot          89.46  160.41  212.32  462.20
 
magnetization (x)
 
# of ion       s       p       d       tot
------------------------------------------
    1        0.005   0.006  -0.000   0.011
    2        0.005   0.005  -0.000   0.010
    3        0.005   0.006  -0.000   0.011
    4        0.004   0.004  -0.000   0.008
    5        0.004   0.004  -0.000   0.008
    6        0.005   0.005  -0.000   0.010
    7       -0.000  -0.000   0.137   0.137
    8       -0.000  -0.000   0.165   0.164
    9       -0.000  -0.000   0.150   0.150
   10       -0.000  -0.000   0.150   0.150
   11       -0.000  -0.000   0.171   0.171
   12       -0.000  -0.000   0.137   0.137
   13       -0.000  -0.000   0.150   0.150
   14       -0.000  -0.000   0.171   0.171
   15       -0.000  -0.000   0.150   0.150
   16       -0.000  -0.000   0.149   0.148
   17       -0.000  -0.000   0.112   0.111
   18       -0.000  -0.000   0.275   0.275
   19       -0.000  -0.000   0.149   0.148
   20       -0.000  -0.000   0.112   0.111
   21       -0.000  -0.000   0.138   0.137
   22       -0.000  -0.000   0.132   0.132
   23       -0.000  -0.000   0.165   0.165
   24       -0.000  -0.000   0.138   0.137
   25       -0.000  -0.000   0.138   0.137
   26       -0.000  -0.000   0.171   0.171
   27       -0.000  -0.000   0.149   0.148
   28       -0.000  -0.000   0.275   0.275
   29       -0.000  -0.000   0.165   0.164
   30       -0.000  -0.000   0.149   0.148
   31       -0.000  -0.000   0.138   0.137
   32       -0.000  -0.000   0.171   0.171
   33       -0.000  -0.000   0.132   0.132
   34        0.003   0.011   0.000   0.015
   35        0.004   0.033   0.000   0.037
   36        0.003   0.010   0.000   0.014
   37        0.006   0.036   0.000   0.042
   38        0.004   0.011   0.000   0.015
   39        0.004   0.011   0.000   0.014
   40        0.004   0.011   0.000   0.014
   41        0.004   0.011   0.000   0.015
   42        0.004   0.008   0.000   0.012
   43        0.003   0.010   0.000   0.013
   44        0.004   0.033   0.000   0.037
   45        0.003   0.011   0.000   0.015
   46        0.004   0.011   0.000   0.014
   47        0.004   0.011   0.000   0.015
   48        0.004   0.008   0.000   0.012
   49        0.003   0.010   0.000   0.013
   50        0.004   0.011   0.000   0.015
   51        0.004   0.011   0.000   0.014
   52        0.004   0.014   0.000   0.018
   53        0.004   0.013   0.000   0.017
   54        0.004   0.018   0.000   0.022
   55        0.004   0.018   0.000   0.022
   56        0.003   0.009   0.000   0.012
   57        0.006   0.033   0.000   0.039
   58        0.004   0.014   0.000   0.018
   59        0.004   0.013   0.000   0.017
   60        0.004   0.018   0.000   0.022
   61        0.004   0.018   0.000   0.022
   62        0.003   0.011   0.000   0.014
   63        0.003   0.011   0.000   0.013
   64        0.004   0.031   0.000   0.034
   65        0.005   0.028   0.000   0.034
   66        0.003   0.022   0.000   0.025
   67        0.003   0.022   0.000   0.025
   68        0.003   0.011   0.000   0.014
   69        0.003   0.011   0.000   0.013
   70        0.003   0.011   0.000   0.013
   71        0.003   0.011   0.000   0.014
   72        0.003   0.010   0.000   0.013
   73        0.004   0.008   0.000   0.012
   74        0.004   0.013   0.000   0.017
   75        0.004   0.014   0.000   0.018
   76        0.006   0.033   0.000   0.039
   77        0.003   0.009   0.000   0.012
   78        0.006   0.036   0.000   0.042
   79        0.003   0.010   0.000   0.014
   80        0.004   0.013   0.000   0.017
   81        0.004   0.014   0.000   0.018
   82        0.003   0.011   0.000   0.013
   83        0.003   0.011   0.000   0.014
   84        0.003   0.010   0.000   0.013
   85        0.004   0.008   0.000   0.012
   86        0.005   0.028   0.000   0.034
   87        0.004   0.031   0.000   0.034
--------------------------------------------------
tot           0.22    0.88    4.24    5.34
 

 total amount of memory used by VASP MPI-rank0   145370. kBytes
=======================================================================

   base      :      30000. kBytes
   nonlr-proj:      39858. kBytes
   fftplans  :       9349. kBytes
   grid      :      55332. kBytes
   one-center:       1353. kBytes
   wavefun   :       9478. kBytes
 
  
  
 General timing and accounting informations for this job:
 ========================================================
  
                  Total CPU time used (sec):      245.544
                            User time (sec):      241.717
                          System time (sec):        3.827
                         Elapsed time (sec):      251.664
  
                   Maximum memory used (kb):      197124.
                   Average memory used (kb):           0.
  
                          Minor page faults:        31865
                          Major page faults:           46
                 Voluntary context switches:          860
