 vasp.5.4.4.18Apr17-6-g9f103f2a35 (build May 12 2020 05:39:39) gamma-only       
  
 MD_VERSION_INFO: Compiled 2020-05-12T12:39:39-UTC in devlin.sd.materialsdesign.
 com:/home/medea2/data/build/wwolf/vasp-gpu5.4.4/13047/x86_64/src/src/build/gam 
 from svn 13047
 
 This VASP executable licensed from Materials Design, Inc.
 
 executed on                        Lin64 date 2023.01.20  07:50:03
 running on   16 total cores
 distrk:  each k-point on   16 cores,    1 groups
 distr:  one band on NCORES_PER_BAND=   1 cores,   16 groups


--------------------------------------------------------------------------------------------------------


 INCAR:
 POTCAR:    PAW_PBE Li_sv 10Sep2004               
 POTCAR:    PAW_PBE Ni 02Aug2007                  
 POTCAR:    PAW_PBE O 08Apr2002                   

 ----------------------------------------------------------------------------- 
|                                                                             |
|           W    W    AA    RRRRR   N    N  II  N    N   GGGG   !!!           |
|           W    W   A  A   R    R  NN   N  II  NN   N  G    G  !!!           |
|           W    W  A    A  R    R  N N  N  II  N N  N  G       !!!           |
|           W WW W  AAAAAA  RRRRR   N  N N  II  N  N N  G  GGG   !            |
|           WW  WW  A    A  R   R   N   NN  II  N   NN  G    G                |
|           W    W  A    A  R    R  N    N  II  N    N   GGGG   !!!           |
|                                                                             |
|      For optimal performance we recommend to set                            |
|        NCORE= 4 - approx SQRT( number of cores)                             |
|      NCORE specifies how many cores store one orbital (NPAR=cpu/NCORE).     |
|      This setting can  greatly improve the performance of VASP for DFT.     |
|      The default,   NCORE=1            might be grossly inefficient         |
|      on modern multi-core architectures or massively parallel machines.     |
|      Do your own testing !!!!                                               |
|      Unfortunately you need to use the default for GW and RPA calculations. |
|      (for HF NCORE is supported but not extensively tested yet)             |
|                                                                             |
 ----------------------------------------------------------------------------- 

 POTCAR:    PAW_PBE Li_sv 10Sep2004               
  local pseudopotential read in
  atomic valenz-charges read in
  non local Contribution for L=           0  read in
    real space projection operators read in
  non local Contribution for L=           0  read in
    real space projection operators read in
  non local Contribution for L=           1  read in
    real space projection operators read in
    PAW grid and wavefunctions read in
 
   number of l-projection  operators is LMAX  =           3
   number of lm-projection operators is LMMAX =           5
 
 POTCAR:    PAW_PBE Ni 02Aug2007                  
  local pseudopotential read in
  partial core-charges read in
  partial kinetic energy density read in
  atomic valenz-charges read in
  non local Contribution for L=           2  read in
    real space projection operators read in
  non local Contribution for L=           2  read in
    real space projection operators read in
  non local Contribution for L=           0  read in
    real space projection operators read in
  non local Contribution for L=           0  read in
    real space projection operators read in
  non local Contribution for L=           1  read in
    real space projection operators read in
  non local Contribution for L=           1  read in
    real space projection operators read in
    PAW grid and wavefunctions read in
 
   number of l-projection  operators is LMAX  =           6
   number of lm-projection operators is LMMAX =          18
 
 POTCAR:    PAW_PBE O 08Apr2002                   
  local pseudopotential read in
  partial core-charges read in
  partial kinetic energy density read in
  kinetic energy density of atom read in
  atomic valenz-charges read in
  non local Contribution for L=           0  read in
    real space projection operators read in
  non local Contribution for L=           0  read in
    real space projection operators read in
  non local Contribution for L=           1  read in
    real space projection operators read in
  non local Contribution for L=           1  read in
    real space projection operators read in
    PAW grid and wavefunctions read in
 
   number of l-projection  operators is LMAX  =           4
   number of lm-projection operators is LMMAX =           8
 
 Optimization of the real space projectors (new method)

 maximal supplied QI-value         = 22.11
 optimisation between [QCUT,QGAM] = [ 11.28, 22.77] = [ 35.61,145.23] Ry 
 Optimized for a Real-space Cutoff    1.10 Angstroem

   l    n(q)    QCUT    max X(q) W(low)/X(q) W(high)/X(q)  e(spline) 
   0      7    11.276    10.506    0.54E-04    0.58E-04    0.16E-07
   0      7    11.276     8.367    0.11E-03    0.14E-03    0.35E-07
   1      7    11.276     8.983    0.23E-03    0.43E-03    0.86E-07
 Optimization of the real space projectors (new method)

 maximal supplied QI-value         = 16.25
 optimisation between [QCUT,QGAM] = [ 11.38, 22.75] = [ 36.24,144.96] Ry 
 Optimized for a Real-space Cutoff    1.47 Angstroem

   l    n(q)    QCUT    max X(q) W(low)/X(q) W(high)/X(q)  e(spline) 
   2      9    11.376    60.317    0.17E-03    0.16E-04    0.16E-06
   2      9    11.376    55.921    0.17E-03    0.16E-04    0.17E-06
   0     10    11.376    51.690    0.45E-04    0.60E-04    0.21E-06
   0     10    11.376    30.015    0.37E-04    0.55E-04    0.19E-06
   1     10    11.376    18.849    0.83E-04    0.11E-03    0.92E-07
   1     10    11.376    14.624    0.69E-04    0.92E-04    0.82E-07
 Optimization of the real space projectors (new method)

 maximal supplied QI-value         = 24.76
 optimisation between [QCUT,QGAM] = [ 11.39, 22.77] = [ 36.31,145.25] Ry 
 Optimized for a Real-space Cutoff    1.10 Angstroem

   l    n(q)    QCUT    max X(q) W(low)/X(q) W(high)/X(q)  e(spline) 
   0      7    11.387    20.381    0.22E-03    0.48E-03    0.18E-06
   0      7    11.387    15.268    0.22E-03    0.52E-03    0.19E-06
   1      7    11.387     5.964    0.22E-03    0.73E-03    0.24E-06
   1      7    11.387     5.382    0.19E-03    0.60E-03    0.21E-06

 ----------------------------------------------------------------------------- 
|                                                                             |
|  ADVICE TO THIS USER RUNNING 'VASP/VAMP'   (HEAR YOUR MASTER'S VOICE ...):  |
|                                                                             |
|      You enforced a specific xc-type in the INCAR file,                     |
|      a different type was found on the POTCAR file                          |
|          I HOPE YOU KNOW, WHAT YOU ARE  DOING                               |
|                                                                             |
 ----------------------------------------------------------------------------- 

  PAW_PBE Li_sv 10Sep2004               :
 energy of atom  1       EATOM= -202.7858
 kinetic energy error for atom=    0.0143 (will be added to EATOM!!)
  PAW_PBE Ni 02Aug2007                  :
 energy of atom  2       EATOM=-1077.6739
 kinetic energy error for atom=    0.0030 (will be added to EATOM!!)
  PAW_PBE O 08Apr2002                   :
 energy of atom  3       EATOM= -432.3788
 kinetic energy error for atom=    0.0224 (will be added to EATOM!!)
 
 
 POSCAR: ce283358_1                              
  positions in direct lattice
  No initial velocities read in
 exchange correlation table for  LEXCH =       14
   RHO(1)=    0.500       N(1)  =     2000
   RHO(2)=  100.500       N(2)  =     4000
 


--------------------------------------------------------------------------------------------------------


 ion  position               nearest neighbor table
   1  0.975  0.499  0.976-  92 2.01  93 2.01  57 2.12  80 2.12  45 2.27  44 2.27  39 2.78  40 2.80

   2  0.111  0.834  0.222-  46 2.08  41 2.09  59 2.11  58 2.11  65 2.13  64 2.13
   3  0.201  0.166  0.090-  42 2.01  79 2.02  43 2.14  48 2.14  49 2.24  66 2.25  14 2.79  33 2.80

   4  0.333  0.500  0.998-  45 2.10  50 2.10  86 2.10  81 2.11  51 2.12  80 2.13
   5  0.463  0.833  0.219-  71 2.02  52 2.02  47 2.14  70 2.16  46 2.23  65 2.25  29 2.80  19 2.81

   6  0.999  0.499  0.332-  57 2.09  44 2.10  75 2.11  62 2.12  63 2.12  56 2.13
   7  0.114  0.834  0.581-  82 1.99  77 2.02  83 2.14  76 2.17  64 2.24  59 2.25  34 2.79  32 2.81

   8  0.554  0.167  0.445-  49 2.09  90 2.09  72 2.11  67 2.11  66 2.12  73 2.12
   9  0.667  0.501  0.357-  74 2.00  69 2.02  75 2.09  50 2.11  56 2.25  51 2.28  30 2.79  28 2.79

  10  0.908  0.168  0.443-  61 2.00  60 2.00  78 2.14  55 2.16  72 2.24  73 2.25  24 2.79  23 2.80

  11  0.357  0.500  0.665-  68 2.01  87 2.01  63 2.11  86 2.12  62 2.25  81 2.27  27 2.77  37 2.78

  12  0.554  0.167  0.799-  85 1.99  54 2.03  84 2.11  91 2.17  67 2.25  90 2.26  36 2.78  20 2.82

  13  0.759  0.832  0.868-  88 2.00  89 2.00  53 2.15  94 2.15  41 2.22  58 2.26  37 2.80  38 2.80

  14  0.001  1.000  0.001-  79 1.87  94 1.87  43 1.88  58 1.88  91 1.91  46 1.92   3 2.79  32 2.81
                            23 2.81  17 2.81  20 2.82  38 2.82  26 2.82
  15  0.114  0.333  0.225-  57 1.87  42 1.88  66 1.89  63 1.92  60 1.93  45 1.96  27 2.78  18 2.80
                            24 2.83  39 2.84  21 2.84  33 2.85
  16  0.221  0.666  0.112-  80 1.86  65 1.87  47 1.89  44 1.93  41 1.93  50 1.94  25 2.79  28 2.81
                            40 2.81  22 2.83  34 2.83  19 2.85
  17  0.334  1.000  1.000-  79 1.85  52 1.85  82 1.93  85 1.94  49 1.96  46 1.97  29 2.80  14 2.81
                            20 2.82  32 2.82  35 2.83  26 2.85
  18  0.444  0.333  0.221-  51 1.87  48 1.87  66 1.87  69 1.88  45 1.91  72 1.91  36 2.80  15 2.80
                            21 2.80  27 2.81  33 2.82  30 2.83
  19  0.556  0.666  0.108-  50 1.87  47 1.88  71 1.88  53 1.89  56 1.92  86 1.92  22 2.77  37 2.78
                             5 2.81  34 2.82  31 2.83  28 2.84  16 2.85
  20  0.668  0.998  0.001-  85 1.87  88 1.87  91 1.88  55 1.90  52 1.90  58 1.91  23 2.79  29 2.81
                            14 2.82  17 2.82  12 2.82  38 2.83  35 2.83
  21  0.775  0.333  0.220-  60 1.87  75 1.88  54 1.89  51 1.91  57 1.93  72 1.93  36 2.78  18 2.80
                            39 2.81  30 2.83  15 2.84  24 2.85
  22  0.887  0.667  0.114-  53 1.87  41 1.87  44 1.88  92 1.88  56 1.89  59 1.92  19 2.77  31 2.78
                            25 2.81  37 2.82  16 2.83  40 2.85
  23  0.998  0.001  0.331-  55 1.87  61 1.87  64 1.88  76 1.88  43 1.90  58 1.91  20 2.79  10 2.80
                            14 2.81  26 2.81  29 2.81  35 2.83  32 2.83
  24  0.111  0.334  0.558-  78 1.86  60 1.87  63 1.87  81 1.91  84 1.95  75 1.97  33 2.77  10 2.79
                            30 2.81  36 2.82  27 2.83  15 2.83  21 2.85
  25  0.224  0.667  0.444-  83 1.87  68 1.87  62 1.87  59 1.89  65 1.90  44 1.91  16 2.79  28 2.79
                            22 2.81  37 2.82  34 2.83  31 2.83
  26  0.333  1.000  0.337-  46 1.87  49 1.87  43 1.88  70 1.88  67 1.90  64 1.90  35 2.76  38 2.81
                            23 2.81  14 2.82  29 2.82  17 2.85
  27  0.444  0.334  0.554-  90 1.87  87 1.88  84 1.88  63 1.90  69 1.91  66 1.91  11 2.77  15 2.78
                            30 2.81  18 2.81  24 2.83  39 2.83  36 2.83
  28  0.554  0.668  0.444-  74 1.87  71 1.88  68 1.90  65 1.90  89 1.92  50 1.95   9 2.79  25 2.79
                            16 2.81  37 2.82  31 2.83  40 2.83  19 2.84
  29  0.665  1.000  0.332-  55 1.87  52 1.87  70 1.88  73 1.88  76 1.91  49 1.92   5 2.80  17 2.80
                            38 2.80  20 2.81  23 2.81  32 2.82  26 2.82
  30  0.777  0.334  0.556-  78 1.87  69 1.88  72 1.89  93 1.90  90 1.91  75 1.91   9 2.79  39 2.80
                            33 2.81  27 2.81  24 2.81  18 2.83  21 2.83
  31  0.890  0.669  0.445-  77 1.86  74 1.87  56 1.88  59 1.91  71 1.92  62 1.95  22 2.78  34 2.80
                            40 2.81  28 2.83  25 2.83  19 2.83
  32  0.998  0.002  0.667-  61 1.87  82 1.87  76 1.89  94 1.90  79 1.91  73 1.91  38 2.78  14 2.81
                             7 2.81  17 2.82  29 2.82  23 2.83  35 2.84
  33  0.111  0.333  0.886-  42 1.88  93 1.88  45 1.88  48 1.88  78 1.89  81 1.91  24 2.77   3 2.80
                            30 2.81  36 2.81  18 2.82  39 2.82  15 2.85
  34  0.220  0.666  0.777-  77 1.86  86 1.87  83 1.89  47 1.91  62 1.92  80 1.94   7 2.79  40 2.80
                            31 2.80  19 2.82  37 2.83  25 2.83  16 2.83
  35  0.334  1.000  0.665-  85 1.86  82 1.86  64 1.90  67 1.91  88 1.97  61 1.97  26 2.76  38 2.83
                            23 2.83  17 2.83  20 2.83  32 2.84
  36  0.446  0.333  0.891-  84 1.87  54 1.87  87 1.88  81 1.88  51 1.90  48 1.90  21 2.78  12 2.78
                            18 2.80  33 2.81  39 2.82  24 2.82  27 2.83
  37  0.556  0.666  0.778-  68 1.87  53 1.87  89 1.88  92 1.91  83 1.92  86 1.92  11 2.78  19 2.78
                            13 2.80  25 2.82  22 2.82  28 2.82  40 2.83  34 2.83
  38  0.669  0.999  0.666-  88 1.87  94 1.87  67 1.88  91 1.88  73 1.90  70 1.91  32 2.78  13 2.80
                            29 2.80  26 2.81  14 2.82  35 2.83  20 2.83
  39  0.779  0.332  0.889-  54 1.86  93 1.87  42 1.92  87 1.93  90 1.94  57 1.95   1 2.78  30 2.80
                            21 2.81  36 2.82  33 2.82  27 2.83  15 2.84
  40  0.890  0.667  0.778-  89 1.86  92 1.88  77 1.90  80 1.90  74 1.93  41 1.95  34 2.80   1 2.80
                            16 2.81  31 2.81  37 2.83  28 2.83  22 2.85
  41  0.997  0.737  0.007-  22 1.87  16 1.93  40 1.95   2 2.09  13 2.22
  42  0.007  0.266  0.003-  33 1.88  15 1.88  39 1.92   3 2.01
  43  0.113  0.068  0.221-  26 1.88  14 1.88  23 1.90   3 2.14
  44  0.104  0.597  0.222-  22 1.88  25 1.91  16 1.93   6 2.10   1 2.27
  45  0.222  0.403  0.103-  33 1.88  18 1.91  15 1.96   4 2.10   1 2.27
  46  0.224  0.929  0.122-  26 1.87  14 1.92  17 1.97   2 2.08   5 2.23
  47  0.335  0.732  0.003-  19 1.88  16 1.89  34 1.91   5 2.14
  48  0.332  0.265  0.001-  18 1.87  33 1.88  36 1.90   3 2.14
  49  0.442  0.070  0.230-  26 1.87  29 1.92  17 1.96   8 2.09   3 2.24
  50  0.448  0.596  0.217-  19 1.87  16 1.94  28 1.95   4 2.10   9 2.11
  51  0.552  0.403  0.111-  18 1.87  36 1.90  21 1.91   4 2.12   9 2.28
  52  0.551  0.933  0.111-  17 1.85  29 1.87  20 1.90   5 2.02
  53  0.667  0.734  0.998-  22 1.87  37 1.87  19 1.89  13 2.15
  54  0.667  0.266  0.997-  39 1.86  36 1.87  21 1.89  12 2.03
  55  0.777  0.067  0.224-  23 1.87  29 1.87  20 1.90  10 2.16
  56  0.782  0.598  0.229-  31 1.88  22 1.89  19 1.92   6 2.13   9 2.25
  57  0.899  0.403  0.117-  15 1.87  21 1.93  39 1.95   6 2.09   1 2.12
  58  0.892  0.930  0.110-  14 1.88  20 1.91  23 1.91   2 2.11  13 2.26
  59  0.006  0.738  0.338-  25 1.89  31 1.91  22 1.92   2 2.11   7 2.25
  60  0.996  0.267  0.338-  24 1.87  21 1.87  15 1.93  10 2.00
  61  0.100  0.069  0.550-  32 1.87  23 1.87  35 1.97  10 2.00
  62  0.115  0.597  0.551-  25 1.87  34 1.92  31 1.95   6 2.12  11 2.25
  63  0.221  0.403  0.450-  24 1.87  27 1.90  15 1.92  11 2.11   6 2.12
  64  0.216  0.931  0.443-  23 1.88  35 1.90  26 1.90   2 2.13   7 2.24
  65  0.331  0.736  0.328-  16 1.87  25 1.90  28 1.90   2 2.13   5 2.25
  66  0.336  0.264  0.331-  18 1.87  15 1.89  27 1.91   8 2.12   3 2.25
  67  0.452  0.069  0.559-  38 1.88  26 1.90  35 1.91   8 2.11  12 2.25
  68  0.444  0.600  0.558-  37 1.87  25 1.87  28 1.90  11 2.01
  69  0.556  0.401  0.440-  18 1.88  30 1.88  27 1.91   9 2.02
  70  0.553  0.932  0.441-  29 1.88  26 1.88  38 1.91   5 2.16
  71  0.660  0.734  0.328-  28 1.88  19 1.88  31 1.92   5 2.02
  72  0.667  0.264  0.338-  30 1.89  18 1.91  21 1.93   8 2.11  10 2.24
  73  0.774  0.070  0.550-  29 1.88  38 1.90  32 1.91   8 2.12  10 2.25
  74  0.774  0.601  0.548-  28 1.87  31 1.87  40 1.93   9 2.00
  75  0.880  0.404  0.436-  21 1.88  30 1.91  24 1.97   9 2.09   6 2.11
  76  0.891  0.933  0.446-  23 1.88  32 1.89  29 1.91   7 2.17
  77  0.003  0.734  0.666-  31 1.86  34 1.86  40 1.90   7 2.02
  78  0.996  0.267  0.662-  24 1.86  30 1.87  33 1.89  10 2.14
  79  0.116  0.066  0.895-  17 1.85  14 1.87  32 1.91   3 2.02
  80  0.111  0.597  0.896-  16 1.86  40 1.90  34 1.94   1 2.12   4 2.13
  81  0.229  0.403  0.782-  36 1.88  24 1.91  33 1.91   4 2.11  11 2.27
  82  0.218  0.934  0.769-  35 1.86  32 1.87  17 1.93   7 1.99
  83  0.330  0.734  0.663-  25 1.87  34 1.89  37 1.92   7 2.14
  84  0.342  0.266  0.672-  36 1.87  27 1.88  24 1.95  12 2.11
  85  0.450  0.066  0.883-  35 1.86  20 1.87  17 1.94  12 1.99
  86  0.437  0.596  0.883-  34 1.87  37 1.92  19 1.92   4 2.10  11 2.12
  87  0.552  0.400  0.776-  27 1.88  36 1.88  39 1.93  11 2.01
  88  0.567  0.931  0.782-  38 1.87  20 1.87  35 1.97  13 2.00
  89  0.671  0.734  0.673-  40 1.86  37 1.88  28 1.92  13 2.00
  90  0.659  0.264  0.660-  27 1.87  30 1.91  39 1.94   8 2.09  12 2.26
  91  0.776  0.066  0.888-  20 1.88  38 1.88  14 1.91  12 2.17
  92  0.783  0.600  0.893-  40 1.88  22 1.88  37 1.91   1 2.01
  93  0.891  0.400  0.782-  39 1.87  33 1.88  30 1.90   1 2.01
  94  0.889  0.933  0.780-  38 1.87  14 1.87  32 1.90  13 2.15
 
  LATTYP: Found a triclinic cell.
 ALAT       =     8.4487669871
 B/A-ratio  =     0.9994102489
 C/A-ratio  =     1.6872292607
 COS(alpha) =     0.0001568633
 COS(beta)  =     0.0008122832
 COS(gamma) =     0.4999542184
  
  Lattice vectors:
  
 A1 = (   4.2229432811,   7.3176773309,  -0.0034825029)
 A2 = (   8.4437842059,   0.0012152821,  -0.0006420591)
 A3 = (   0.0011512948,   0.0059204831, -14.2550056014)


Analysis of symmetry for initial positions (statically):
=====================================================================
 Subroutine PRICEL returns:
 Original cell was already a primitive cell.
 

 Routine SETGRP: Setting up the symmetry group for a 
 triclinic supercell.


 Subroutine GETGRP returns: Found  1 space group operations
 (whereof  1 operations were pure point group operations)
 out of a pool of  2 trial point group operations.


The static configuration has the point symmetry C_1 .


Analysis of symmetry for dynamics (positions and initial velocities):
=====================================================================
 Subroutine PRICEL returns:
 Original cell was already a primitive cell.
 

 Routine SETGRP: Setting up the symmetry group for a 
 triclinic supercell.


 Subroutine GETGRP returns: Found  1 space group operations
 (whereof  1 operations were pure point group operations)
 out of a pool of  2 trial point group operations.


The dynamic configuration has the point symmetry C_1 .


Analysis of structural, dynamic, and magnetic symmetry:
=====================================================================
 Subroutine PRICEL returns:
 Original cell was already a primitive cell.
 

 Routine SETGRP: Setting up the symmetry group for a 
 triclinic supercell.


 Subroutine GETGRP returns: Found  1 space group operations
 (whereof  1 operations were pure point group operations)
 out of a pool of  2 trial point group operations.


The magnetic configuration has the point symmetry C_1 .


 Subroutine INISYM returns: Found  1 space group operations
 (whereof  1 operations are pure point group operations),
 and found     1 'primitive' translations

 
 
 KPOINTS: Automatic mesh                          

Automatic generation of k-mesh.
Space group operators:
 irot       det(A)        alpha          n_x          n_y          n_z        tau_x        tau_y        tau_z
    1     1.000000     0.000000     1.000000     0.000000     0.000000     0.000000     0.000000     0.000000
 
 Subroutine IBZKPT returns following result:
 ===========================================
 
 Found      1 irreducible k-points:
 
 Following reciprocal coordinates:
            Coordinates               Weight
  0.000000  0.000000  0.000000      1.000000
 
 Following cartesian coordinates:
            Coordinates               Weight
  0.000000  0.000000  0.000000      1.000000
 


--------------------------------------------------------------------------------------------------------




 Dimension of arrays:
   k-points           NKPTS =      1   k-points in BZ     NKDIM =      1   number of bands    NBANDS=    416
   number of dos      NEDOS =    301   number of ions     NIONS =     94
   non local maximal  LDIM  =      6   non local SUM 2l+1 LMDIM =     18
   total plane-waves  NPLWV = 442368
   max r-space proj   IRMAX =   6793   max aug-charges    IRDMAX=  16479
   dimension x,y,z NGX =    64 NGY =  108 NGZ =   64
   dimension x,y,z NGXF=   128 NGYF=  216 NGZF=  128
   support grid    NGXF=   128 NGYF=  216 NGZF=  128
   ions per type =              13  27  54
   NGX,Y,Z   is equivalent  to a cutoff of  12.60, 12.60, 12.60 a.u.
   NGXF,Y,Z  is equivalent  to a cutoff of  25.19, 25.19, 25.20 a.u.

 SYSTEM =  unknown system                          
 POSCAR =  ce283358_1                              

 Startparameter for this run:
   NWRITE =      1    write-flag & timer
   PREC   = accura    normal or accurate (medium, high low for compatibility)
   ISTART =      0    job   : 0-new  1-cont  2-samecut
   ICHARG =      2    charge: 1-file 2-atom 10-const
   ISPIN  =      2    spin polarized calculation?
   LNONCOLLINEAR =      F non collinear calculations
   LSORBIT =      F    spin-orbit coupling
   INIWAV =      1    electr: 0-lowe 1-rand  2-diag
   LASPH  =      F    aspherical Exc in radial PAW
   METAGGA=      F    non-selfconsistent MetaGGA calc.

 Electronic Relaxation 1
   ENCUT  =  500.0 eV  36.75 Ry    6.06 a.u.  15.40 25.99 15.39*2*pi/ulx,y,z
   ENINI  =  500.0     initial cutoff
   ENAUG  =  628.9 eV  augmentation charge cutoff
   NELM   =     80;   NELMIN=  2; NELMDL= -5     # of ELM steps 
   EDIFF  = 0.1E-04   stopping-criterion for ELM
   LREAL  =      T    real-space projection
   NLSPLINE    = F    spline interpolate recip. space projectors
   LCOMPAT=      F    compatible to vasp.4.4
   GGA_COMPAT  = T    GGA compatible to vasp.4.4-vasp.4.6
   LMAXPAW     = -100 max onsite density
   LMAXMIX     =    2 max onsite mixed and CHGCAR
   VOSKOWN=      1    Vosko Wilk Nusair interpolation
   ROPT   =   -0.00025  -0.00025  -0.00025
 Ionic relaxation
   EDIFFG = -.2E-01   stopping-criterion for IOM
   NSW    =     20    number of steps for IOM
   NBLOCK =      1;   KBLOCK =     20    inner block; outer block 
   IBRION =      1    ionic relax: 0-MD 1-quasi-New 2-CG
   NFREE  =      0    steps in history (QN), initial steepest desc. (CG)
   ISIF   =      3    stress and relaxation
   IWAVPR =     11    prediction:  0-non 1-charg 2-wave 3-comb
   ISYM   =      2    0-nonsym 1-usesym 2-fastsym
   LCORR  =      T    Harris-Foulkes like correction to forces

   POTIM  = 0.5000    time-step for ionic-motion
   TEIN   =    0.0    initial temperature
   TEBEG  =    0.0;   TEEND  =   0.0 temperature during run
   SMASS  =  -3.00    Nose mass-parameter (am)
   estimated Nose-frequenzy (Omega)   =  0.10E-29 period in steps =****** mass=  -0.163E-26a.u.
   SCALEE = 1.0000    scale energy and forces
   NPACO  =    256;   APACO  = 16.0  distance and # of slots for P.C.
   PSTRESS=    0.0 pullay stress

  Mass of Ions in am
   POMASS =   7.01 58.69 16.00
  Ionic Valenz
   ZVAL   =   3.00 10.00  6.00
  Atomic Wigner-Seitz radii
   RWIGS  =   1.23  1.15  0.73
  virtual crystal weights 
   VCA    =   1.00  1.00  1.00
   NELECT =     633.0000    total number of electrons
   NUPDOWN=      -1.0000    fix difference up-down

 DOS related values:
   EMIN   =  10.00;   EMAX   =-10.00  energy-range for DOS
   EFERMI =   0.00
   ISMEAR =     0;   SIGMA  =   0.05  broadening in eV -4-tet -1-fermi 0-gaus

 Electronic relaxation 2 (details)
   IALGO  =     38    algorithm
   LDIAG  =      T    sub-space diagonalisation (order eigenvalues)
   LSUBROT=      F    optimize rotation matrix (better conditioning)
   TURBO    =      0    0=normal 1=particle mesh
   IRESTART =      0    0=no restart 2=restart with 2 vectors
   NREBOOT  =      0    no. of reboots
   NMIN     =      0    reboot dimension
   EREF     =   0.00    reference energy to select bands
   IMIX   =      4    mixing-type and parameters
     AMIX     =   0.40;   BMIX     =  1.00
     AMIX_MAG =   1.60;   BMIX_MAG =  1.00
     AMIN     =   0.10
     WC   =   100.;   INIMIX=   1;  MIXPRE=   1;  MAXMIX= -45

 Intra band minimization:
   WEIMIN = 0.0010     energy-eigenvalue tresh-hold
   EBREAK =  0.60E-08  absolut break condition
   DEPER  =   0.30     relativ break condition  

   TIME   =   0.40     timestep for ELM

  volume/ion in A,a.u.               =       9.37        63.23
  Fermi-wavevector in a.u.,A,eV,Ry     =   1.466433  2.771156 29.258314  2.150425
  Thomas-Fermi vector in A             =   2.582171
 
 Write flags
   LWAVE        =      F    write WAVECAR
   LDOWNSAMPLE  =      F    k-point downsampling of WAVECAR
   LCHARG       =      T    write CHGCAR
   LVTOT        =      F    write LOCPOT, total local potential
   LVHAR        =      F    write LOCPOT, Hartree potential only
   LELF         =      F    write electronic localiz. function (ELF)
   LORBIT       =      0    0 simple, 1 ext, 2 COOP (PROOUT), +10 PAW based schemes


 Dipole corrections
   LMONO  =      F    monopole corrections only (constant potential shift)
   LDIPOL =      F    correct potential (dipole corrections)
   IDIPOL =      0    1-x, 2-y, 3-z, 4-all directions 
   EPSILON=  1.0000000 bulk dielectric constant

 Exchange correlation treatment:
   GGA     =    PS    GGA type
   LEXCH   =    14    internal setting for exchange type
   VOSKOWN=      1    Vosko Wilk Nusair interpolation
   LHFCALC =     F    Hartree Fock is set to
   LHFONE  =     F    Hartree Fock one center treatment
   AEXX    =    0.0000 exact exchange contribution

 Linear response parameters
   LEPSILON=     F    determine dielectric tensor
   LRPA    =     F    only Hartree local field effects (RPA)
   LNABLA  =     F    use nabla operator in PAW spheres
   LVEL    =     F    velocity operator in full k-point grid
   LINTERFAST=   F  fast interpolation
   KINTER  =     0    interpolate to denser k-point grid
   CSHIFT  =0.1000    complex shift for real part using Kramers Kronig
   OMEGAMAX=  -1.0    maximum frequency
   DEG_THRESHOLD= 0.2000000E-02 threshold for treating states as degnerate
   RTIME   =   -0.100 relaxation time in fs
  (WPLASMAI=    0.000 imaginary part of plasma frequency in eV, 0.658/RTIME)
   DFIELD  = 0.0000000 0.0000000 0.0000000 field for delta impulse in time
 
 Orbital magnetization related:
   ORBITALMAG=     F  switch on orbital magnetization
   LCHIMAG   =     F  perturbation theory with respect to B field
   DQ        =  0.001000  dq finite difference perturbation B field
   LLRAUG    =     F  two centre corrections for induced B field



--------------------------------------------------------------------------------------------------------


 quasi-Newton-method for relaxation of ions
 charge density and potential will be updated during run
 spin polarized calculation
 Variant of blocked Davidson
 Davidson routine will perform the subspace rotation
 perform sub-space diagonalisation
    after iterative eigenvector-optimisation
 modified Broyden-mixing scheme, WC =      100.0
 initial mixing is a Kerker type mixing with AMIX =  0.4000 and BMIX =      1.0000
 Hartree-type preconditioning will be used
 using additional bands           99
 real space projection scheme for non local part
 use partial core corrections
 calculate Harris-corrections to forces 
   (improved forces if not selfconsistent)
 use gradient corrections 
 use of overlap-Matrix (Vanderbilt PP)
 Gauss-broadening in eV      SIGMA  =   0.05


--------------------------------------------------------------------------------------------------------


  energy-cutoff  :      500.00
  volume of cell :      880.73
      direct lattice vectors                 reciprocal lattice vectors
    -4.220840925  7.316462049 -0.002840444    -0.000019666  0.136666759  0.000056760
    -0.001151295 -0.005920483 14.255005601     0.000005330  0.000030309  0.070150810
     8.443784206  0.001215282 -0.000642059     0.118420483  0.068316370  0.000037938

  length of vectors
     8.446663430 14.255006877  8.443784318     0.136666772  0.070150816  0.136713344


 
 k-points in units of 2pi/SCALE and weight: Automatic mesh                          
   0.00000000  0.00000000  0.00000000       1.000
 
 k-points in reciprocal lattice and weights: Automatic mesh                          
   0.00000000  0.00000000  0.00000000       1.000
 
 position of ions in fractional coordinates (direct lattice) 
   0.97471057  0.49937838  0.97601465
   0.11105407  0.83355078  0.22241591
   0.20068643  0.16641133  0.08966847
   0.33259841  0.50029632  0.99814936
   0.46328053  0.83300120  0.21872214
   0.99939741  0.49877021  0.33246072
   0.11419859  0.83376298  0.58094835
   0.55438104  0.16680556  0.44481858
   0.66701039  0.50092180  0.35728433
   0.90806958  0.16795540  0.44338470
   0.35746466  0.50006086  0.66506403
   0.55439745  0.16667926  0.79902501
   0.75915741  0.83219032  0.86795247
   0.00149906  0.99989927  0.00081239
   0.11429873  0.33258548  0.22499013
   0.22120131  0.66571570  0.11230680
   0.33363833  0.99996154  0.99977489
   0.44352430  0.33301137  0.22064565
   0.55613993  0.66597180  0.10818816
   0.66830450  0.99843961  0.00130592
   0.77515850  0.33316319  0.21975745
   0.88732158  0.66739043  0.11409646
   0.99785456  0.00076850  0.33140164
   0.11116392  0.33382569  0.55836823
   0.22387678  0.66712550  0.44362157
   0.33335713  0.99987108  0.33725698
   0.44367212  0.33400642  0.55395739
   0.55424727  0.66775276  0.44353933
   0.66508640  0.99981464  0.33205332
   0.77715649  0.33446804  0.55630960
   0.88966579  0.66907065  0.44480304
   0.99837512  0.00152907  0.66692734
   0.11135609  0.33257243  0.88645206
   0.22043348  0.66595234  0.77676276
   0.33379580  0.99997648  0.66486522
   0.44598448  0.33257735  0.89069215
   0.55580675  0.66620798  0.77830567
   0.66914395  0.99916689  0.66622907
   0.77888541  0.33234565  0.88920528
   0.89035872  0.66733835  0.77849822
   0.99735553  0.73702603  0.00734865
   0.00668904  0.26597500  0.00295939
   0.11333581  0.06751791  0.22143497
   0.10407265  0.59689344  0.22204416
   0.22184378  0.40321094  0.10321523
   0.22413921  0.92949054  0.12175775
   0.33460613  0.73239988  0.00293025
   0.33199890  0.26507158  0.00131992
   0.44221950  0.07011822  0.22984027
   0.44840616  0.59573517  0.21664258
   0.55169695  0.40259029  0.11143613
   0.55109267  0.93341090  0.11116362
   0.66748860  0.73362887  0.99798086
   0.66671569  0.26615727  0.99664717
   0.77739059  0.06687028  0.22421179
   0.78179531  0.59767997  0.22899919
   0.89902428  0.40281150  0.11720262
   0.89213565  0.93024227  0.10995797
   0.00632192  0.73785285  0.33762688
   0.99628285  0.26699004  0.33804888
   0.10025167  0.06874678  0.55003902
   0.11507863  0.59658796  0.55118766
   0.22083409  0.40271571  0.44978611
   0.21578857  0.93124850  0.44261502
   0.33060668  0.73589767  0.32759357
   0.33560031  0.26397903  0.33082767
   0.45176399  0.06881031  0.55919505
   0.44405128  0.60006413  0.55752178
   0.55562898  0.40094285  0.44036862
   0.55324118  0.93208090  0.44055375
   0.66000579  0.73437185  0.32815025
   0.66669656  0.26365511  0.33814398
   0.77374297  0.06978678  0.55006745
   0.77384273  0.60137470  0.54774099
   0.87990264  0.40442395  0.43589322
   0.89137412  0.93343416  0.44589026
   0.00329722  0.73388150  0.66564342
   0.99648121  0.26673110  0.66191490
   0.11620536  0.06634152  0.89484700
   0.11111608  0.59677273  0.89558265
   0.22853333  0.40278814  0.78164548
   0.21769614  0.93440124  0.76891148
   0.32962842  0.73381932  0.66338895
   0.34178462  0.26550864  0.67156531
   0.45007154  0.06586272  0.88348584
   0.43701774  0.59596384  0.88349232
   0.55150927  0.40027575  0.77583099
   0.56650544  0.93123281  0.78184619
   0.67103731  0.73365283  0.67314215
   0.65943768  0.26362877  0.66007073
   0.77550058  0.06649125  0.88792559
   0.78315509  0.59987507  0.89271441
   0.89084896  0.39971869  0.78248193
   0.88943957  0.93296813  0.78013254
 
 position of ions in cartesian coordinates  (Angst):
   4.12658389  7.12966247  7.11524633
   1.40833072  0.80785816 11.88181279
  -0.09011587  1.46743839  2.37156683
   7.02373683  2.43169468  7.13014125
  -0.10954990  3.38490846 11.87298042
  -1.41164514  7.30950429  7.10691995
   4.42242851  0.83129939 11.88459857
   1.41580588  4.05566085  2.37595390
   0.20091032  4.87762471  7.13851906
  -0.08916589  6.64340108  2.39134117
   4.10627997  2.61322426  7.12692799
   4.40657942  4.05621212  2.37392603
   4.12356260  5.55047422 11.86016405
  -0.00061883  0.00504892 14.25356492
   1.41694844  0.83456668  4.74053876
   0.01387241  1.61460612  9.48908061
   7.03249786  2.43634693 14.25286776
  -0.00934466  3.24332527  4.74567747
  -1.43462743  4.06516530  9.49178259
  -2.81092958  4.88371485 14.23086311
  -1.41661980  5.66971233  4.74690025
  -2.78260571  6.48824205  9.51106067
  -1.41350232  7.30116322  0.00790784
   4.24515129  0.81202877  4.75801282
   2.80012847  1.63457538  9.50895700
   1.43952660  2.43348493 14.25200442
   2.80444268  3.24480596  4.75964749
   1.40499205  4.05171472  9.51696025
  -0.00458840  4.86056356 14.25026096
   1.41671922  5.68473183  4.76527913
  -0.00008719  6.50578533  9.53479323
   1.41740621  7.30537513  0.01853287
   7.01461067  0.81384091  4.73993640
   5.62763576  1.60979442  9.49202948
   4.20392820  2.43709196 14.25329531
   5.63799987  3.26214195  4.73905332
   4.22510625  4.06354058  9.49472003
   2.79999399  4.89066042 14.24080119
   4.22032346  5.69779853  4.73480580
   2.81464015  6.51127091  9.50988306
  -4.14847716  7.29275926 10.50347254
  -0.00355114  0.04736900  3.79145421
   1.39129894  0.82908652  0.96200409
   1.43493167  0.75817954  8.50828115
  -0.06530439  1.62084983  5.74707780
   0.08097010  1.63455096 13.24917802
  -1.38842006  2.44380045 10.43941208
  -1.39047460  2.42748960  3.77765299
   0.07410275  3.23534638  0.99813195
  -0.06405374  3.27748289  8.49079542
  -1.38814593  4.03422169  5.73728823
  -1.38850751  4.02665746 13.30414089
   5.60852720  4.88052440 10.45534692
   5.60106634  4.87763547  3.79153970
  -1.38812303  5.68762533  0.95088412
  -1.36690200  5.71671546  8.51756364
  -2.80546860  6.57543462  5.73945131
  -2.83817227  6.52190277 13.25800411
   2.82331521  0.04229595 10.51786178
  -1.35104702  7.28809578  3.80289758
   4.22118529  0.73374898  0.97934782
   4.16769422  0.83910619  8.50368394
   2.86532764  1.61388658  5.73979865
   2.82546435  1.57383334 13.27405546
   1.36984397  2.41491248 10.48907600
   1.37661801  2.45424610  3.76185689
   2.81481917  3.30558628  0.97924911
   2.83263293  3.24600921  8.55229827
   1.37269446  4.06339974  5.71358160
   1.38372468  4.04278513 13.28496414
  -0.01579503  4.82495827 10.46638943
   0.04089113  4.87671005  3.75629425
   1.37872451  5.66131639  0.99225999
   1.35804730  5.65889620  8.57004998
  -0.03380640  6.43590962  5.76228649
   0.00157811  6.51672042 13.30329099
   5.60578744  0.02058800 10.46104815
   1.38277082  7.28994219  3.79899789
   7.06533425  0.85090682  0.94479412
   7.09241628  0.81053179  8.50610797
   5.63497920  1.67062066  5.74059619
   5.57258606  1.58816788 13.31878287
   4.20935917  2.40817546 10.45923629
   4.22762837  2.49989840  3.78342515
   5.56020758  3.29361509  0.93702779
   5.61475001  3.19496901  8.49365930
   4.22265573  4.03366967  5.70386840
   4.20953904  4.14025237 13.27261780
   2.85068066  4.90609349 10.45588696
   2.78980974  4.82399212  3.75573269
   4.22411094  5.67460598  0.94506027
   4.23162415  5.72745784  8.54842480
   2.84651662  6.51644702  5.69495936
   2.83201376  6.50297532 13.29643862
 


--------------------------------------------------------------------------------------------------------


 use serial FFT for orbitals x direction half grid
 k-point  1 :   0.0000 0.0000 0.0000  plane waves:   11198

 maximum and minimum number of plane-waves per node :     11198    11198

 maximum number of plane-waves:     11198
 maximum index in each direction: 
   IXMAX=   15   IYMAX=   25   IZMAX=   13
   IXMIN=    0   IYMIN=  -25   IZMIN=  -15

 The following grids will avoid any aliasing or wrap around errors in the Hartre
 e energy
  - symmetry arguments have not been applied
  - exchange correlation energies might require even more grid points
  - we recommend to set PREC=Normal or Accurate and rely on VASP defaults
 NGX is ok and might be reduce to    64
 NGY is ok and might be reduce to   108
 NGZ is ok and might be reduce to    60

 serial   3D FFT for wavefunctions
 parallel 3D FFT for charge:
    minimum data exchange during FFTs selected (reduces bandwidth)


 total amount of memory used by VASP MPI-rank0   145625. kBytes
=======================================================================

   base      :      30000. kBytes
   nonlr-proj:      39752. kBytes
   fftplans  :       9349. kBytes
   grid      :      55332. kBytes
   one-center:       1461. kBytes
   wavefun   :       9731. kBytes
 
     INWAV:  cpu time    0.0000: real time    0.0000
 Broyden mixing: mesh for mixing (old mesh)
   NGX = 31   NGY = 51   NGZ = 31
  (NGX  =128   NGY  =216   NGZ  =128)
  gives a total of  49011 points

 initial charge density was supplied:
 charge density of overlapping atoms calculated
 number of electron     633.0000000 magnetization      67.5000000
 keeping initial charge density in first step


--------------------------------------------------------------------------------------------------------


 Maximum index for non-local projection operator         6554
 Maximum index for augmentation-charges         1082 (set IRDMAX)


--------------------------------------------------------------------------------------------------------


 First call to EWALD:  gamma=   0.185
 Maximum number of real-space cells 3x 2x 3
 Maximum number of reciprocal cells 2x 4x 2

    FEWALD:  cpu time    0.0035: real time    0.0035


--------------------------------------- Iteration      1(   1)  ---------------------------------------


    POTLOK:  cpu time    0.2541: real time    0.2556
    SETDIJ:  cpu time    0.0280: real time    0.0281
     EDDAV:  cpu time    4.5759: real time    4.6046
    --------------------------------------------
      LOOP:  cpu time    4.8584: real time    4.8888

 eigenvalue-minimisations  :  1680
 total energy-change (2. order) : 0.1138629E+05  (-0.2921765E+05)
 number of electron     633.0000000 magnetization      67.5000000
 augmentation part      633.0000000 magnetization      67.5000000

 Free energy of the ion-electron system (eV)
  ---------------------------------------------------
  alpha Z        PSCENC =      1960.19490939
  Ewald energy   TEWEN  =    -37083.62992396
  -Hartree energ DENC   =    -19119.02464395
  -exchange      EXHF   =         0.00000000
  -V(xc)+E(xc)   XCENC  =      2573.84019403
  PAW double counting   =     45694.50341149   -47775.14712272
  entropy T*S    EENTRO =        -0.01237010
  eigenvalues    EBANDS =     10186.76568960
  atomic energy  EATOM  =     54948.79752401
  Solvation  Ediel_sol  =         0.00000000
  ---------------------------------------------------
  free energy    TOTEN  =     11386.28766779 eV

  energy without entropy =    11386.30003789  energy(sigma->0) =    11386.29385284


--------------------------------------------------------------------------------------------------------




--------------------------------------- Iteration      1(   2)  ---------------------------------------


     EDDAV:  cpu time    4.6215: real time    4.6325
    --------------------------------------------
      LOOP:  cpu time    4.6213: real time    4.6323

 eigenvalue-minimisations  :  1712
 total energy-change (2. order) :-0.9146316E+04  (-0.8388205E+04)
 number of electron     633.0000000 magnetization      67.5000000
 augmentation part      633.0000000 magnetization      67.5000000

 Free energy of the ion-electron system (eV)
  ---------------------------------------------------
  alpha Z        PSCENC =      1960.19490939
  Ewald energy   TEWEN  =    -37083.62992396
  -Hartree energ DENC   =    -19119.02464395
  -exchange      EXHF   =         0.00000000
  -V(xc)+E(xc)   XCENC  =      2573.84019403
  PAW double counting   =     45694.50341149   -47775.14712272
  entropy T*S    EENTRO =        -0.02040585
  eigenvalues    EBANDS =      1040.45750745
  atomic energy  EATOM  =     54948.79752401
  Solvation  Ediel_sol  =         0.00000000
  ---------------------------------------------------
  free energy    TOTEN  =      2239.97144989 eV

  energy without entropy =     2239.99185574  energy(sigma->0) =     2239.98165282


--------------------------------------------------------------------------------------------------------




--------------------------------------- Iteration      1(   3)  ---------------------------------------


     EDDAV:  cpu time    4.8514: real time    4.8630
    --------------------------------------------
      LOOP:  cpu time    4.8514: real time    4.8630

 eigenvalue-minimisations  :  1824
 total energy-change (2. order) :-0.2543823E+04  (-0.2155537E+04)
 number of electron     633.0000000 magnetization      67.5000000
 augmentation part      633.0000000 magnetization      67.5000000

 Free energy of the ion-electron system (eV)
  ---------------------------------------------------
  alpha Z        PSCENC =      1960.19490939
  Ewald energy   TEWEN  =    -37083.62992396
  -Hartree energ DENC   =    -19119.02464395
  -exchange      EXHF   =         0.00000000
  -V(xc)+E(xc)   XCENC  =      2573.84019403
  PAW double counting   =     45694.50341149   -47775.14712272
  entropy T*S    EENTRO =        -0.12555752
  eigenvalues    EBANDS =     -1503.26055967
  atomic energy  EATOM  =     54948.79752401
  Solvation  Ediel_sol  =         0.00000000
  ---------------------------------------------------
  free energy    TOTEN  =      -303.85176890 eV

  energy without entropy =     -303.72621138  energy(sigma->0) =     -303.78899014


--------------------------------------------------------------------------------------------------------




--------------------------------------- Iteration      1(   4)  ---------------------------------------


     EDDAV:  cpu time    5.0474: real time    5.0595
    --------------------------------------------
      LOOP:  cpu time    5.0474: real time    5.0595

 eigenvalue-minimisations  :  1920
 total energy-change (2. order) :-0.4382548E+03  (-0.4200068E+03)
 number of electron     633.0000000 magnetization      67.5000000
 augmentation part      633.0000000 magnetization      67.5000000

 Free energy of the ion-electron system (eV)
  ---------------------------------------------------
  alpha Z        PSCENC =      1960.19490939
  Ewald energy   TEWEN  =    -37083.62992396
  -Hartree energ DENC   =    -19119.02464395
  -exchange      EXHF   =         0.00000000
  -V(xc)+E(xc)   XCENC  =      2573.84019403
  PAW double counting   =     45694.50341149   -47775.14712272
  entropy T*S    EENTRO =        -0.30515140
  eigenvalues    EBANDS =     -1941.33576548
  atomic energy  EATOM  =     54948.79752401
  Solvation  Ediel_sol  =         0.00000000
  ---------------------------------------------------
  free energy    TOTEN  =      -742.10656859 eV

  energy without entropy =     -741.80141719  energy(sigma->0) =     -741.95399289


--------------------------------------------------------------------------------------------------------




--------------------------------------- Iteration      1(   5)  ---------------------------------------


     EDDAV:  cpu time    6.0218: real time    6.0361
    CHARGE:  cpu time    0.2728: real time    0.2735
    MIXING:  cpu time    0.0051: real time    0.0051
    --------------------------------------------
      LOOP:  cpu time    6.2994: real time    6.3144

 eigenvalue-minimisations  :  2400
 total energy-change (2. order) :-0.2271850E+02  (-0.2247799E+02)
 number of electron     632.9999903 magnetization      72.3738803
 augmentation part      188.4134754 magnetization      50.9672135

 Broyden mixing:
  rms(total) = 0.15778E+02    rms(broyden)= 0.15777E+02
  rms(prec ) = 0.17344E+02
  weight for this iteration     100.00

 Free energy of the ion-electron system (eV)
  ---------------------------------------------------
  alpha Z        PSCENC =      1960.19490939
  Ewald energy   TEWEN  =    -37083.62992396
  -Hartree energ DENC   =    -19119.02464395
  -exchange      EXHF   =         0.00000000
  -V(xc)+E(xc)   XCENC  =      2573.84019403
  PAW double counting   =     45694.50341149   -47775.14712272
  entropy T*S    EENTRO =        -0.29073455
  eigenvalues    EBANDS =     -1964.06868532
  atomic energy  EATOM  =     54948.79752401
  Solvation  Ediel_sol  =         0.00000000
  ---------------------------------------------------
  free energy    TOTEN  =      -764.82507158 eV

  energy without entropy =     -764.53433703  energy(sigma->0) =     -764.67970430


--------------------------------------------------------------------------------------------------------




--------------------------------------- Iteration      1(   6)  ---------------------------------------


    POTLOK:  cpu time    0.2257: real time    0.2262
    SETDIJ:  cpu time    0.0288: real time    0.0288
     EDDAV:  cpu time    6.2975: real time    6.3125
    CHARGE:  cpu time    0.2610: real time    0.2617
    MIXING:  cpu time    0.0053: real time    0.0054
    --------------------------------------------
      LOOP:  cpu time    6.8183: real time    6.8346

 eigenvalue-minimisations  :  2560
 total energy-change (2. order) :-0.8160356E+02  (-0.1796513E+03)
 number of electron     632.9999884 magnetization      68.0357716
 augmentation part      238.4113727 magnetization      68.5875514

 Broyden mixing:
  rms(total) = 0.28839E+02    rms(broyden)= 0.28838E+02
  rms(prec ) = 0.30817E+02
  weight for this iteration     100.00

 eigenvalues of (default mixing * dielectric matrix)
  average eigenvalue GAMMA=   0.2409
  0.2409

 Free energy of the ion-electron system (eV)
  ---------------------------------------------------
  alpha Z        PSCENC =      1960.19490939
  Ewald energy   TEWEN  =    -37083.62992396
  -Hartree energ DENC   =    -18245.62289882
  -exchange      EXHF   =         0.00000000
  -V(xc)+E(xc)   XCENC  =      2608.58576449
  PAW double counting   =     50392.74931338   -52184.12367999
  entropy T*S    EENTRO =        -0.03692146
  eigenvalues    EBANDS =     -3243.34271648
  atomic energy  EATOM  =     54948.79752401
  Solvation  Ediel_sol  =         0.00000000
  ---------------------------------------------------
  free energy    TOTEN  =      -846.42862943 eV

  energy without entropy =     -846.39170796  energy(sigma->0) =     -846.41016869


--------------------------------------------------------------------------------------------------------




--------------------------------------- Iteration      1(   7)  ---------------------------------------


    POTLOK:  cpu time    0.2257: real time    0.2262
    SETDIJ:  cpu time    0.0287: real time    0.0288
     EDDAV:  cpu time    5.7245: real time    5.7381
    CHARGE:  cpu time    0.2621: real time    0.2628
    MIXING:  cpu time    0.0052: real time    0.0052
    --------------------------------------------
      LOOP:  cpu time    6.2462: real time    6.2611

 eigenvalue-minimisations  :  2272
 total energy-change (2. order) : 0.1842397E+03  (-0.5798725E+02)
 number of electron     632.9999874 magnetization      63.5054515
 augmentation part      228.8305955 magnetization      55.9467046

 Broyden mixing:
  rms(total) = 0.14212E+02    rms(broyden)= 0.14210E+02
  rms(prec ) = 0.15958E+02
  weight for this iteration     100.00

 eigenvalues of (default mixing * dielectric matrix)
  average eigenvalue GAMMA=   0.4421
  0.4421  0.4421

 Free energy of the ion-electron system (eV)
  ---------------------------------------------------
  alpha Z        PSCENC =      1960.19490939
  Ewald energy   TEWEN  =    -37083.62992396
  -Hartree energ DENC   =    -18494.23192134
  -exchange      EXHF   =         0.00000000
  -V(xc)+E(xc)   XCENC  =      2582.78899834
  PAW double counting   =     52105.15708383   -54054.34450139
  entropy T*S    EENTRO =        -0.08754387
  eigenvalues    EBANDS =     -2626.83360198
  atomic energy  EATOM  =     54948.79752401
  Solvation  Ediel_sol  =         0.00000000
  ---------------------------------------------------
  free energy    TOTEN  =      -662.18897697 eV

  energy without entropy =     -662.10143311  energy(sigma->0) =     -662.14520504


--------------------------------------------------------------------------------------------------------




--------------------------------------- Iteration      1(   8)  ---------------------------------------


    POTLOK:  cpu time    0.2258: real time    0.2263
    SETDIJ:  cpu time    0.0287: real time    0.0287
     EDDAV:  cpu time    6.3918: real time    6.4070
    CHARGE:  cpu time    0.2607: real time    0.2613
    MIXING:  cpu time    0.0057: real time    0.0057
    --------------------------------------------
      LOOP:  cpu time    6.9128: real time    6.9292

 eigenvalue-minimisations  :  2608
 total energy-change (2. order) :-0.8643235E+02  (-0.3266561E+02)
 number of electron     632.9999900 magnetization      57.8824998
 augmentation part      207.2677274 magnetization      56.6470161

 Broyden mixing:
  rms(total) = 0.15475E+02    rms(broyden)= 0.15474E+02
  rms(prec ) = 0.20815E+02
  weight for this iteration     100.00

 eigenvalues of (default mixing * dielectric matrix)
  average eigenvalue GAMMA=   0.4413
  0.5686  0.5686  0.1867

 Free energy of the ion-electron system (eV)
  ---------------------------------------------------
  alpha Z        PSCENC =      1960.19490939
  Ewald energy   TEWEN  =    -37083.62992396
  -Hartree energ DENC   =    -18695.42968245
  -exchange      EXHF   =         0.00000000
  -V(xc)+E(xc)   XCENC  =      2568.82898885
  PAW double counting   =     53812.07998228   -55902.07670533
  entropy T*S    EENTRO =        -0.03932948
  eigenvalues    EBANDS =     -2357.34709356
  atomic energy  EATOM  =     54948.79752401
  Solvation  Ediel_sol  =         0.00000000
  ---------------------------------------------------
  free energy    TOTEN  =      -748.62133026 eV

  energy without entropy =     -748.58200078  energy(sigma->0) =     -748.60166552


--------------------------------------------------------------------------------------------------------




--------------------------------------- Iteration      1(   9)  ---------------------------------------


    POTLOK:  cpu time    0.2257: real time    0.2263
    SETDIJ:  cpu time    0.0286: real time    0.0287
     EDDAV:  cpu time    5.5036: real time    5.5167
    CHARGE:  cpu time    0.2619: real time    0.2626
    MIXING:  cpu time    0.0056: real time    0.0056
    --------------------------------------------
      LOOP:  cpu time    6.0255: real time    6.0398

 eigenvalue-minimisations  :  2160
 total energy-change (2. order) : 0.5576139E+02  (-0.6447637E+02)
 number of electron     632.9999890 magnetization      54.4210874
 augmentation part      204.0964913 magnetization      47.2445438

 Broyden mixing:
  rms(total) = 0.14238E+02    rms(broyden)= 0.14237E+02
  rms(prec ) = 0.16883E+02
  weight for this iteration     100.00

 eigenvalues of (default mixing * dielectric matrix)
  average eigenvalue GAMMA=   0.3894
  0.6059  0.6059  0.2052  0.1409

 Free energy of the ion-electron system (eV)
  ---------------------------------------------------
  alpha Z        PSCENC =      1960.19490939
  Ewald energy   TEWEN  =    -37083.62992396
  -Hartree energ DENC   =    -18624.15009668
  -exchange      EXHF   =         0.00000000
  -V(xc)+E(xc)   XCENC  =      2560.97504259
  PAW double counting   =     55138.09053375   -57253.61044195
  entropy T*S    EENTRO =        -0.05413620
  eigenvalues    EBANDS =     -2339.47335393
  atomic energy  EATOM  =     54948.79752401
  Solvation  Ediel_sol  =         0.00000000
  ---------------------------------------------------
  free energy    TOTEN  =      -692.85994298 eV

  energy without entropy =     -692.80580678  energy(sigma->0) =     -692.83287488


--------------------------------------------------------------------------------------------------------




--------------------------------------- Iteration      1(  10)  ---------------------------------------


    POTLOK:  cpu time    0.2253: real time    0.2258
    SETDIJ:  cpu time    0.0287: real time    0.0288
     EDDAV:  cpu time    5.9581: real time    5.9723
    CHARGE:  cpu time    0.2694: real time    0.2701
    MIXING:  cpu time    0.0061: real time    0.0061
    --------------------------------------------
      LOOP:  cpu time    6.4877: real time    6.5031

 eigenvalue-minimisations  :  2384
 total energy-change (2. order) : 0.4717571E+02  (-0.1256272E+02)
 number of electron     632.9999892 magnetization      51.4237114
 augmentation part      207.5396052 magnetization      43.8972753

 Broyden mixing:
  rms(total) = 0.11457E+02    rms(broyden)= 0.11456E+02
  rms(prec ) = 0.13435E+02
  weight for this iteration     100.00

 eigenvalues of (default mixing * dielectric matrix)
  average eigenvalue GAMMA=   0.3769
  0.6531  0.6531  0.1977  0.1902  0.1902

 Free energy of the ion-electron system (eV)
  ---------------------------------------------------
  alpha Z        PSCENC =      1960.19490939
  Ewald energy   TEWEN  =    -37083.62992396
  -Hartree energ DENC   =    -18576.09232016
  -exchange      EXHF   =         0.00000000
  -V(xc)+E(xc)   XCENC  =      2558.10680783
  PAW double counting   =     56113.54753534   -58244.77048163
  entropy T*S    EENTRO =        -0.05048006
  eigenvalues    EBANDS =     -2321.78780181
  atomic energy  EATOM  =     54948.79752401
  Solvation  Ediel_sol  =         0.00000000
  ---------------------------------------------------
  free energy    TOTEN  =      -645.68423105 eV

  energy without entropy =     -645.63375098  energy(sigma->0) =     -645.65899101


--------------------------------------------------------------------------------------------------------




--------------------------------------- Iteration      1(  11)  ---------------------------------------


    POTLOK:  cpu time    0.2298: real time    0.2304
    SETDIJ:  cpu time    0.0287: real time    0.0288
     EDDAV:  cpu time    5.5070: real time    5.5201
    CHARGE:  cpu time    0.2690: real time    0.2697
    MIXING:  cpu time    0.0060: real time    0.0060
    --------------------------------------------
      LOOP:  cpu time    6.0406: real time    6.0550

 eigenvalue-minimisations  :  2176
 total energy-change (2. order) : 0.1741517E+02  (-0.1442292E+02)
 number of electron     632.9999892 magnetization      48.5863423
 augmentation part      208.0787639 magnetization      41.8599814

 Broyden mixing:
  rms(total) = 0.10695E+02    rms(broyden)= 0.10694E+02
  rms(prec ) = 0.13140E+02
  weight for this iteration     100.00

 eigenvalues of (default mixing * dielectric matrix)
  average eigenvalue GAMMA=   0.3934
  0.7220  0.7220  0.3216  0.3216  0.1665  0.1065

 Free energy of the ion-electron system (eV)
  ---------------------------------------------------
  alpha Z        PSCENC =      1960.19490939
  Ewald energy   TEWEN  =    -37083.62992396
  -Hartree energ DENC   =    -18555.44890416
  -exchange      EXHF   =         0.00000000
  -V(xc)+E(xc)   XCENC  =      2557.45225933
  PAW double counting   =     56807.44836783   -58949.97368632
  entropy T*S    EENTRO =        -0.09731179
  eigenvalues    EBANDS =     -2313.01229583
  atomic energy  EATOM  =     54948.79752401
  Solvation  Ediel_sol  =         0.00000000
  ---------------------------------------------------
  free energy    TOTEN  =      -628.26906150 eV

  energy without entropy =     -628.17174971  energy(sigma->0) =     -628.22040560


--------------------------------------------------------------------------------------------------------




--------------------------------------- Iteration      1(  12)  ---------------------------------------


    POTLOK:  cpu time    0.2255: real time    0.2260
    SETDIJ:  cpu time    0.0289: real time    0.0290
     EDDAV:  cpu time    5.7400: real time    5.7537
    CHARGE:  cpu time    0.2660: real time    0.2666
    MIXING:  cpu time    0.0064: real time    0.0064
    --------------------------------------------
      LOOP:  cpu time    6.2669: real time    6.2819

 eigenvalue-minimisations  :  2288
 total energy-change (2. order) : 0.2436188E+02  (-0.6351778E+01)
 number of electron     632.9999888 magnetization      45.6646739
 augmentation part      206.8132619 magnetization      36.2712818

 Broyden mixing:
  rms(total) = 0.91383E+01    rms(broyden)= 0.91375E+01
  rms(prec ) = 0.12688E+02
  weight for this iteration     100.00

 eigenvalues of (default mixing * dielectric matrix)
  average eigenvalue GAMMA=   0.4014
  0.7953  0.7953  0.3775  0.3775  0.1756  0.1583  0.1305

 Free energy of the ion-electron system (eV)
  ---------------------------------------------------
  alpha Z        PSCENC =      1960.19490939
  Ewald energy   TEWEN  =    -37083.62992396
  -Hartree energ DENC   =    -18590.80391882
  -exchange      EXHF   =         0.00000000
  -V(xc)+E(xc)   XCENC  =      2558.23127720
  PAW double counting   =     57308.26433801   -59469.82385855
  entropy T*S    EENTRO =        -0.08746844
  eigenvalues    EBANDS =     -2235.05006439
  atomic energy  EATOM  =     54948.79752401
  Solvation  Ediel_sol  =         0.00000000
  ---------------------------------------------------
  free energy    TOTEN  =      -603.90718554 eV

  energy without entropy =     -603.81971710  energy(sigma->0) =     -603.86345132


--------------------------------------------------------------------------------------------------------




--------------------------------------- Iteration      1(  13)  ---------------------------------------


    POTLOK:  cpu time    0.2257: real time    0.2262
    SETDIJ:  cpu time    0.0288: real time    0.0289
     EDDAV:  cpu time    5.4562: real time    5.4691
    CHARGE:  cpu time    0.2672: real time    0.2678
    MIXING:  cpu time    0.0065: real time    0.0065
    --------------------------------------------
      LOOP:  cpu time    5.9843: real time    5.9985

 eigenvalue-minimisations  :  2144
 total energy-change (2. order) : 0.1134766E+02  (-0.2155121E+02)
 number of electron     632.9999886 magnetization      43.5733564
 augmentation part      206.7869827 magnetization      38.8155381

 Broyden mixing:
  rms(total) = 0.91587E+01    rms(broyden)= 0.91576E+01
  rms(prec ) = 0.10690E+02
  weight for this iteration     100.00

 eigenvalues of (default mixing * dielectric matrix)
  average eigenvalue GAMMA=   0.3813
  0.8095  0.8095  0.4070  0.4070  0.2357  0.1723  0.1047  0.1047

 Free energy of the ion-electron system (eV)
  ---------------------------------------------------
  alpha Z        PSCENC =      1960.19490939
  Ewald energy   TEWEN  =    -37083.62992396
  -Hartree energ DENC   =    -18600.71977353
  -exchange      EXHF   =         0.00000000
  -V(xc)+E(xc)   XCENC  =      2558.61940407
  PAW double counting   =     57860.00435042   -60030.23833793
  entropy T*S    EENTRO =        -0.07186058
  eigenvalues    EBANDS =     -2205.51582184
  atomic energy  EATOM  =     54948.79752401
  Solvation  Ediel_sol  =         0.00000000
  ---------------------------------------------------
  free energy    TOTEN  =      -592.55952993 eV

  energy without entropy =     -592.48766936  energy(sigma->0) =     -592.52359965


--------------------------------------------------------------------------------------------------------




--------------------------------------- Iteration      1(  14)  ---------------------------------------


    POTLOK:  cpu time    0.2253: real time    0.2259
    SETDIJ:  cpu time    0.0290: real time    0.0290
     EDDAV:  cpu time    5.9356: real time    5.9497
    CHARGE:  cpu time    0.2637: real time    0.2643
    MIXING:  cpu time    0.0072: real time    0.0073
    --------------------------------------------
      LOOP:  cpu time    6.4607: real time    6.4761

 eigenvalue-minimisations  :  2384
 total energy-change (2. order) : 0.1132888E+02  (-0.1345662E+02)
 number of electron     632.9999885 magnetization      41.4899760
 augmentation part      208.2213216 magnetization      36.6611508

 Broyden mixing:
  rms(total) = 0.72949E+01    rms(broyden)= 0.72942E+01
  rms(prec ) = 0.85951E+01
  weight for this iteration     100.00

 eigenvalues of (default mixing * dielectric matrix)
  average eigenvalue GAMMA=   0.3673
  0.8368  0.8368  0.4264  0.4264  0.2158  0.1909  0.1264  0.1228  0.1228

 Free energy of the ion-electron system (eV)
  ---------------------------------------------------
  alpha Z        PSCENC =      1960.19490939
  Ewald energy   TEWEN  =    -37083.62992396
  -Hartree energ DENC   =    -18595.00478838
  -exchange      EXHF   =         0.00000000
  -V(xc)+E(xc)   XCENC  =      2558.40122733
  PAW double counting   =     58234.09901632   -60411.00324620
  entropy T*S    EENTRO =        -0.06384381
  eigenvalues    EBANDS =     -2193.02152806
  atomic energy  EATOM  =     54948.79752401
  Solvation  Ediel_sol  =         0.00000000
  ---------------------------------------------------
  free energy    TOTEN  =      -581.23065335 eV

  energy without entropy =     -581.16680954  energy(sigma->0) =     -581.19873144


--------------------------------------------------------------------------------------------------------




--------------------------------------- Iteration      1(  15)  ---------------------------------------


    POTLOK:  cpu time    0.2268: real time    0.2274
    SETDIJ:  cpu time    0.0290: real time    0.0291
     EDDAV:  cpu time    5.0702: real time    5.0822
    CHARGE:  cpu time    0.2606: real time    0.2613
    MIXING:  cpu time    0.0071: real time    0.0072
    --------------------------------------------
      LOOP:  cpu time    5.5938: real time    5.6071

 eigenvalue-minimisations  :  1952
 total energy-change (2. order) : 0.5996542E+01  (-0.1155295E+02)
 number of electron     632.9999880 magnetization      39.7300785
 augmentation part      209.7217599 magnetization      35.4058653

 Broyden mixing:
  rms(total) = 0.45796E+01    rms(broyden)= 0.45790E+01
  rms(prec ) = 0.53906E+01
  weight for this iteration     100.00

 eigenvalues of (default mixing * dielectric matrix)
  average eigenvalue GAMMA=   0.3767
  0.9099  0.9099  0.4290  0.4290  0.2964  0.2964  0.1543  0.1170  0.1124  0.1124

 Free energy of the ion-electron system (eV)
  ---------------------------------------------------
  alpha Z        PSCENC =      1960.19490939
  Ewald energy   TEWEN  =    -37083.62992396
  -Hartree energ DENC   =    -18587.13555521
  -exchange      EXHF   =         0.00000000
  -V(xc)+E(xc)   XCENC  =      2558.22473911
  PAW double counting   =     58535.30995300   -60711.73759394
  entropy T*S    EENTRO =        -0.04015499
  eigenvalues    EBANDS =     -2195.21800909
  atomic energy  EATOM  =     54948.79752401
  Solvation  Ediel_sol  =         0.00000000
  ---------------------------------------------------
  free energy    TOTEN  =      -575.23411168 eV

  energy without entropy =     -575.19395669  energy(sigma->0) =     -575.21403419


--------------------------------------------------------------------------------------------------------




--------------------------------------- Iteration      1(  16)  ---------------------------------------


    POTLOK:  cpu time    0.2255: real time    0.2261
    SETDIJ:  cpu time    0.0289: real time    0.0289
     EDDAV:  cpu time    5.7387: real time    5.7524
    CHARGE:  cpu time    0.2613: real time    0.2620
    MIXING:  cpu time    0.0073: real time    0.0073
    --------------------------------------------
      LOOP:  cpu time    6.2618: real time    6.2767

 eigenvalue-minimisations  :  2272
 total energy-change (2. order) : 0.1216953E+01  (-0.1706500E+01)
 number of electron     632.9999880 magnetization      38.2556245
 augmentation part      208.5714918 magnetization      30.9869909

 Broyden mixing:
  rms(total) = 0.57527E+01    rms(broyden)= 0.57522E+01
  rms(prec ) = 0.69957E+01
  weight for this iteration     100.00

 eigenvalues of (default mixing * dielectric matrix)
  average eigenvalue GAMMA=   0.3676
  0.8642  0.8642  0.4952  0.4952  0.3312  0.3312  0.1838  0.1345  0.1345  0.1050
  0.1050

 Free energy of the ion-electron system (eV)
  ---------------------------------------------------
  alpha Z        PSCENC =      1960.19490939
  Ewald energy   TEWEN  =    -37083.62992396
  -Hartree energ DENC   =    -18607.59664703
  -exchange      EXHF   =         0.00000000
  -V(xc)+E(xc)   XCENC  =      2558.37738262
  PAW double counting   =     58608.65307603   -60786.39092303
  entropy T*S    EENTRO =        -0.06318864
  eigenvalues    EBANDS =     -2172.35936832
  atomic energy  EATOM  =     54948.79752401
  Solvation  Ediel_sol  =         0.00000000
  ---------------------------------------------------
  free energy    TOTEN  =      -574.01715893 eV

  energy without entropy =     -573.95397029  energy(sigma->0) =     -573.98556461


--------------------------------------------------------------------------------------------------------




--------------------------------------- Iteration      1(  17)  ---------------------------------------


    POTLOK:  cpu time    0.2249: real time    0.2255
    SETDIJ:  cpu time    0.0288: real time    0.0288
     EDDAV:  cpu time    5.3990: real time    5.4118
    CHARGE:  cpu time    0.2634: real time    0.2640
    MIXING:  cpu time    0.0076: real time    0.0076
    --------------------------------------------
      LOOP:  cpu time    5.9236: real time    5.9377

 eigenvalue-minimisations  :  2112
 total energy-change (2. order) : 0.5506986E+00  (-0.3895796E+01)
 number of electron     632.9999883 magnetization      36.7459530
 augmentation part      208.5744462 magnetization      31.8787825

 Broyden mixing:
  rms(total) = 0.45992E+01    rms(broyden)= 0.45988E+01
  rms(prec ) = 0.54835E+01
  weight for this iteration     100.00

 eigenvalues of (default mixing * dielectric matrix)
  average eigenvalue GAMMA=   0.3637
  0.9037  0.7305  0.5824  0.5824  0.3606  0.3606  0.2492  0.1582  0.1075  0.1075
  0.1194  0.1027

 Free energy of the ion-electron system (eV)
  ---------------------------------------------------
  alpha Z        PSCENC =      1960.19490939
  Ewald energy   TEWEN  =    -37083.62992396
  -Hartree energ DENC   =    -18613.06006578
  -exchange      EXHF   =         0.00000000
  -V(xc)+E(xc)   XCENC  =      2558.08746319
  PAW double counting   =     58783.96456749   -60961.81356379
  entropy T*S    EENTRO =        -0.05702431
  eigenvalues    EBANDS =     -2165.95034660
  atomic energy  EATOM  =     54948.79752401
  Solvation  Ediel_sol  =         0.00000000
  ---------------------------------------------------
  free energy    TOTEN  =      -573.46646036 eV

  energy without entropy =     -573.40943605  energy(sigma->0) =     -573.43794820


--------------------------------------------------------------------------------------------------------




--------------------------------------- Iteration      1(  18)  ---------------------------------------


    POTLOK:  cpu time    0.2264: real time    0.2269
    SETDIJ:  cpu time    0.0289: real time    0.0290
     EDDAV:  cpu time    5.5052: real time    5.5183
    CHARGE:  cpu time    0.2609: real time    0.2616
    MIXING:  cpu time    0.0079: real time    0.0079
    --------------------------------------------
      LOOP:  cpu time    6.0293: real time    6.0436

 eigenvalue-minimisations  :  2160
 total energy-change (2. order) : 0.3121897E+01  (-0.4579402E+01)
 number of electron     632.9999878 magnetization      34.6071607
 augmentation part      209.1137871 magnetization      30.9536468

 Broyden mixing:
  rms(total) = 0.32400E+01    rms(broyden)= 0.32396E+01
  rms(prec ) = 0.38476E+01
  weight for this iteration     100.00

 eigenvalues of (default mixing * dielectric matrix)
  average eigenvalue GAMMA=   0.3705
  0.8614  0.8614  0.6375  0.6375  0.3910  0.3910  0.2716  0.1883  0.1271  0.1271
  0.1066  0.1066  0.1094

 Free energy of the ion-electron system (eV)
  ---------------------------------------------------
  alpha Z        PSCENC =      1960.19490939
  Ewald energy   TEWEN  =    -37083.62992396
  -Hartree energ DENC   =    -18612.02265198
  -exchange      EXHF   =         0.00000000
  -V(xc)+E(xc)   XCENC  =      2557.70292734
  PAW double counting   =     58970.22855213   -61149.30567620
  entropy T*S    EENTRO =        -0.04180162
  eigenvalues    EBANDS =     -2162.26842202
  atomic energy  EATOM  =     54948.79752401
  Solvation  Ediel_sol  =         0.00000000
  ---------------------------------------------------
  free energy    TOTEN  =      -570.34456291 eV

  energy without entropy =     -570.30276129  energy(sigma->0) =     -570.32366210


--------------------------------------------------------------------------------------------------------




--------------------------------------- Iteration      1(  19)  ---------------------------------------


    POTLOK:  cpu time    0.2248: real time    0.2254
    SETDIJ:  cpu time    0.0288: real time    0.0289
     EDDAV:  cpu time    5.2818: real time    5.2943
    CHARGE:  cpu time    0.2648: real time    0.2654
    MIXING:  cpu time    0.0081: real time    0.0082
    --------------------------------------------
      LOOP:  cpu time    5.8083: real time    5.8222

 eigenvalue-minimisations  :  2048
 total energy-change (2. order) : 0.1814838E+01  (-0.8983638E+00)
 number of electron     632.9999877 magnetization      33.0400863
 augmentation part      209.2803009 magnetization      27.8305384

 Broyden mixing:
  rms(total) = 0.22340E+01    rms(broyden)= 0.22333E+01
  rms(prec ) = 0.25206E+01
  weight for this iteration     100.00

 eigenvalues of (default mixing * dielectric matrix)
  average eigenvalue GAMMA=   0.3617
  0.8539  0.8539  0.6793  0.6793  0.4006  0.4006  0.2380  0.2380  0.1430  0.1430
  0.1330  0.1049  0.1049  0.0921

 Free energy of the ion-electron system (eV)
  ---------------------------------------------------
  alpha Z        PSCENC =      1960.19490939
  Ewald energy   TEWEN  =    -37083.62992396
  -Hartree energ DENC   =    -18616.16416130
  -exchange      EXHF   =         0.00000000
  -V(xc)+E(xc)   XCENC  =      2557.42780759
  PAW double counting   =     59137.64633539   -61316.24700202
  entropy T*S    EENTRO =        -0.06306510
  eigenvalues    EBANDS =     -2156.49214881
  atomic energy  EATOM  =     54948.79752401
  Solvation  Ediel_sol  =         0.00000000
  ---------------------------------------------------
  free energy    TOTEN  =      -568.52972480 eV

  energy without entropy =     -568.46665971  energy(sigma->0) =     -568.49819225


--------------------------------------------------------------------------------------------------------




--------------------------------------- Iteration      1(  20)  ---------------------------------------


    POTLOK:  cpu time    0.2247: real time    0.2252
    SETDIJ:  cpu time    0.0286: real time    0.0287
     EDDAV:  cpu time    6.0246: real time    6.0389
    CHARGE:  cpu time    0.2618: real time    0.2624
    MIXING:  cpu time    0.0083: real time    0.0083
    --------------------------------------------
      LOOP:  cpu time    6.5480: real time    6.5636

 eigenvalue-minimisations  :  2416
 total energy-change (2. order) :-0.5563126E+00  (-0.2781185E+00)
 number of electron     632.9999878 magnetization      31.5648991
 augmentation part      209.2405665 magnetization      26.4592005

 Broyden mixing:
  rms(total) = 0.15830E+01    rms(broyden)= 0.15827E+01
  rms(prec ) = 0.17065E+01
  weight for this iteration     100.00

 eigenvalues of (default mixing * dielectric matrix)
  average eigenvalue GAMMA=   0.3782
  0.8836  0.8836  0.7276  0.7276  0.4202  0.4202  0.3426  0.3426  0.1978  0.1571
  0.1071  0.1071  0.1289  0.1289  0.0986

 Free energy of the ion-electron system (eV)
  ---------------------------------------------------
  alpha Z        PSCENC =      1960.19490939
  Ewald energy   TEWEN  =    -37083.62992396
  -Hartree energ DENC   =    -18619.17412306
  -exchange      EXHF   =         0.00000000
  -V(xc)+E(xc)   XCENC  =      2556.94494771
  PAW double counting   =     59270.67496586   -61448.66797874
  entropy T*S    EENTRO =        -0.06220437
  eigenvalues    EBANDS =     -2154.16415426
  atomic energy  EATOM  =     54948.79752401
  Solvation  Ediel_sol  =         0.00000000
  ---------------------------------------------------
  free energy    TOTEN  =      -569.08603742 eV

  energy without entropy =     -569.02383304  energy(sigma->0) =     -569.05493523


--------------------------------------------------------------------------------------------------------




--------------------------------------- Iteration      1(  21)  ---------------------------------------


    POTLOK:  cpu time    0.2253: real time    0.2258
    SETDIJ:  cpu time    0.0287: real time    0.0287
     EDDAV:  cpu time    5.6782: real time    5.6917
    CHARGE:  cpu time    0.2616: real time    0.2622
    MIXING:  cpu time    0.0089: real time    0.0089
    --------------------------------------------
      LOOP:  cpu time    6.2026: real time    6.2173

 eigenvalue-minimisations  :  2256
 total energy-change (2. order) :-0.1209864E+01  (-0.1727328E+00)
 number of electron     632.9999877 magnetization      29.7981721
 augmentation part      209.1163337 magnetization      24.8223901

 Broyden mixing:
  rms(total) = 0.15553E+01    rms(broyden)= 0.15551E+01
  rms(prec ) = 0.16924E+01
  weight for this iteration     100.00

 eigenvalues of (default mixing * dielectric matrix)
  average eigenvalue GAMMA=   0.3858
  0.8176  0.8176  0.8336  0.8336  0.4488  0.4488  0.3798  0.3798  0.3130  0.1815
  0.1064  0.1064  0.1397  0.1397  0.1295  0.0972

 Free energy of the ion-electron system (eV)
  ---------------------------------------------------
  alpha Z        PSCENC =      1960.19490939
  Ewald energy   TEWEN  =    -37083.62992396
  -Hartree energ DENC   =    -18623.16295091
  -exchange      EXHF   =         0.00000000
  -V(xc)+E(xc)   XCENC  =      2556.52119117
  PAW double counting   =     59376.15803356   -61554.09080890
  entropy T*S    EENTRO =        -0.05711715
  eigenvalues    EBANDS =     -2151.02675835
  atomic energy  EATOM  =     54948.79752401
  Solvation  Ediel_sol  =         0.00000000
  ---------------------------------------------------
  free energy    TOTEN  =      -570.29590113 eV

  energy without entropy =     -570.23878398  energy(sigma->0) =     -570.26734255


--------------------------------------------------------------------------------------------------------




--------------------------------------- Iteration      1(  22)  ---------------------------------------


    POTLOK:  cpu time    0.2254: real time    0.2259
    SETDIJ:  cpu time    0.0288: real time    0.0289
     EDDAV:  cpu time    5.4225: real time    5.4354
    CHARGE:  cpu time    0.2608: real time    0.2614
    MIXING:  cpu time    0.0090: real time    0.0090
    --------------------------------------------
      LOOP:  cpu time    5.9465: real time    5.9606

 eigenvalue-minimisations  :  2112
 total energy-change (2. order) :-0.1214970E+01  (-0.2297591E+00)
 number of electron     632.9999877 magnetization      27.1173111
 augmentation part      209.2070523 magnetization      22.1962710

 Broyden mixing:
  rms(total) = 0.15059E+01    rms(broyden)= 0.15056E+01
  rms(prec ) = 0.16626E+01
  weight for this iteration     100.00

 eigenvalues of (default mixing * dielectric matrix)
  average eigenvalue GAMMA=   0.3946
  0.9541  0.8832  0.8832  0.6554  0.5011  0.5011  0.4162  0.4162  0.3963  0.2128
  0.1783  0.1065  0.1065  0.1346  0.1346  0.1303  0.0972

 Free energy of the ion-electron system (eV)
  ---------------------------------------------------
  alpha Z        PSCENC =      1960.19490939
  Ewald energy   TEWEN  =    -37083.62992396
  -Hartree energ DENC   =    -18623.09018524
  -exchange      EXHF   =         0.00000000
  -V(xc)+E(xc)   XCENC  =      2556.05497016
  PAW double counting   =     59524.95216306   -61702.53136376
  entropy T*S    EENTRO =        -0.04601569
  eigenvalues    EBANDS =     -2152.21294898
  atomic energy  EATOM  =     54948.79752401
  Solvation  Ediel_sol  =         0.00000000
  ---------------------------------------------------
  free energy    TOTEN  =      -571.51087100 eV

  energy without entropy =     -571.46485531  energy(sigma->0) =     -571.48786316


--------------------------------------------------------------------------------------------------------




--------------------------------------- Iteration      1(  23)  ---------------------------------------


    POTLOK:  cpu time    0.2251: real time    0.2256
    SETDIJ:  cpu time    0.0288: real time    0.0289
     EDDAV:  cpu time    5.5006: real time    5.5137
    CHARGE:  cpu time    0.2653: real time    0.2660
    MIXING:  cpu time    0.0092: real time    0.0092
    --------------------------------------------
      LOOP:  cpu time    6.0290: real time    6.0433

 eigenvalue-minimisations  :  2144
 total energy-change (2. order) :-0.1151564E+01  (-0.2176121E+00)
 number of electron     632.9999877 magnetization      23.2177205
 augmentation part      209.4826708 magnetization      18.3215107

 Broyden mixing:
  rms(total) = 0.13183E+01    rms(broyden)= 0.13181E+01
  rms(prec ) = 0.14517E+01
  weight for this iteration     100.00

 eigenvalues of (default mixing * dielectric matrix)
  average eigenvalue GAMMA=   0.4416
  1.3265  1.1196  1.1196  0.5981  0.5981  0.5176  0.4207  0.4207  0.3801  0.3801
  0.1950  0.1633  0.1065  0.1065  0.1349  0.1349  0.1296  0.0973

 Free energy of the ion-electron system (eV)
  ---------------------------------------------------
  alpha Z        PSCENC =      1960.19490939
  Ewald energy   TEWEN  =    -37083.62992396
  -Hartree energ DENC   =    -18619.75983182
  -exchange      EXHF   =         0.00000000
  -V(xc)+E(xc)   XCENC  =      2555.43722511
  PAW double counting   =     59765.03672526   -61942.10968150
  entropy T*S    EENTRO =        -0.06054961
  eigenvalues    EBANDS =     -2156.56883221
  atomic energy  EATOM  =     54948.79752401
  Solvation  Ediel_sol  =         0.00000000
  ---------------------------------------------------
  free energy    TOTEN  =      -572.66243533 eV

  energy without entropy =     -572.60188572  energy(sigma->0) =     -572.63216052


--------------------------------------------------------------------------------------------------------




--------------------------------------- Iteration      1(  24)  ---------------------------------------


    POTLOK:  cpu time    0.2265: real time    0.2271
    SETDIJ:  cpu time    0.0291: real time    0.0292
     EDDAV:  cpu time    5.6625: real time    5.6760
    CHARGE:  cpu time    0.2646: real time    0.2652
    MIXING:  cpu time    0.0094: real time    0.0095
    --------------------------------------------
      LOOP:  cpu time    6.1921: real time    6.2069

 eigenvalue-minimisations  :  2240
 total energy-change (2. order) :-0.2351657E+01  (-0.3026199E+00)
[...]
   0.162E+02 0.542E+02 0.336E+03   -.166E+02 -.593E+02 -.354E+03   0.429E+00 0.516E+01 0.176E+02   -.102E-01 0.130E-01 0.331E-01
   0.262E+02 0.233E+02 -.326E+03   -.288E+02 -.242E+02 0.347E+03   0.256E+01 0.982E+00 -.203E+02   0.184E-02 -.144E-01 0.230E-01
   0.355E+02 -.204E+02 0.347E+03   -.377E+02 0.221E+02 -.369E+03   0.216E+01 -.168E+01 0.224E+02   0.420E-01 0.904E-02 -.479E-02
 -----------------------------------------------------------------------------------------------
   -.323E+00 -.224E+00 -.479E+00   0.341E-12 -.711E-14 0.568E-12   0.321E+00 0.228E+00 0.490E+00   -.649E-03 0.220E-02 0.153E-01
 
 
 POSITION                                       TOTAL-FORCE (eV/Angst)
 -----------------------------------------------------------------------------------
      4.09691      7.12329      7.15564        -0.000774      0.002648      0.000761
      1.39282      0.79709     11.96885        -0.001781     -0.001441     -0.003702
     -0.09660      1.47202      2.37785         0.001049      0.009885     -0.001507
      6.99305      2.42914      7.17084         0.000148      0.008974     -0.004096
     -0.14084      3.37335     11.95786        -0.008606     -0.006345      0.002819
     -1.40455      7.31615      7.15218         0.001085     -0.007078      0.002304
      4.41010      0.81495     11.96786         0.009495     -0.000207     -0.000625
      1.39920      4.06564      2.38334         0.002441      0.001049     -0.000599
      0.23137      4.88128      7.18515         0.019021     -0.001218     -0.002382
     -0.11399      6.65868      2.40625        -0.014745     -0.003393      0.001255
      4.07445      2.61291      7.18258        -0.003688     -0.008515      0.001613
      4.40623      4.07262      2.38234         0.013912      0.007127      0.003336
      4.08700      5.56039     11.93115        -0.007391      0.005736     -0.001259
     -0.00881     -0.01347     14.36288         0.000393     -0.001401      0.000135
      1.40762      0.83961      4.77777        -0.001052      0.001474      0.001310
      0.00568      1.60840      9.54851        -0.001683     -0.001366     -0.004265
      6.98977      2.41760     14.35489        -0.001728     -0.002328      0.002626
     -0.00911      3.24956      4.77629         0.003320      0.003609      0.000862
     -1.43119      4.07033      9.54364         0.003966      0.000765     -0.004193
     -2.80859      4.88678     14.32363        -0.000459      0.003886     -0.001023
     -1.42051      5.67463      4.78909        -0.002294     -0.003541      0.006993
     -2.78723      6.50189      9.56826        -0.004281     -0.003827     -0.001738
     -1.41459      7.32772     -0.00355         0.000356      0.002561     -0.002009
      4.21708      0.79931      4.79203        -0.002304     -0.002927      0.003475
      2.78277      1.61749      9.57141        -0.001114     -0.003298     -0.002580
      1.42699      2.42008     14.35141        -0.000342     -0.002942     -0.000400
      2.79266      3.24657      4.79018         0.003557     -0.000619      0.002875
      1.39608      4.04561      9.57997        -0.000086      0.001130     -0.000738
     -0.01397      4.85618     14.34440        -0.003074      0.001414     -0.001382
      1.41211      5.69134      4.79843         0.002250      0.001154      0.003317
     -0.01213      6.51541      9.59502         0.001532     -0.000532     -0.000429
      1.40448      7.32842      0.01601        -0.000442      0.001164      0.001704
      6.97802      0.81181      4.77007         0.000251      0.004271     -0.001137
      5.60400      1.59824      9.54249         0.002710      0.000778     -0.004746
      4.17364      2.42065     14.35531         0.001553      0.002298      0.000997
      5.60538      3.26027      4.77052         0.000564     -0.002884      0.003537
      4.20137      4.05183      9.55425        -0.001293     -0.002803     -0.001701
      2.77907      4.88464     14.33844        -0.003060      0.002106      0.000372
      4.19775      5.71789      4.76741        -0.000050      0.003296      0.005243
      2.78781      6.52122      9.56584        -0.000776     -0.004885     -0.001465
     -4.15387      7.27574     10.57037        -0.004936     -0.013785     -0.001486
     -0.00014      0.09503      3.81458        -0.002041      0.010450     -0.002526
      1.38033      0.83808      0.95912         0.001012     -0.002316     -0.001463
      1.41636      0.74058      8.57259        -0.004912     -0.001607      0.000786
     -0.06843      1.62846      5.78560         0.002838      0.006036     -0.002148
      0.06768      1.63918     13.34191         0.000541     -0.007831     -0.000905
     -1.38578      2.45529     10.49334         0.003502      0.000294     -0.006602
     -1.39383      2.42874      3.81056        -0.001473      0.005550     -0.001381
      0.06785      3.22436      0.99935        -0.002486     -0.012349     -0.000395
     -0.05186      3.31309      8.53519         0.005434      0.010618     -0.004255
     -1.38226      4.03625      5.76970         0.002526     -0.002409      0.003009
     -1.38932      4.01441     13.40151        -0.003938      0.000501      0.001234
      5.57127      4.88153     10.50309         0.001350     -0.006131     -0.003324
      5.56717      4.88500      3.83331        -0.001167      0.000666      0.006272
     -1.38667      5.71427      0.93929        -0.001652      0.002007     -0.002961
     -1.37331      5.72198      8.58556        -0.001425      0.001670      0.000905
     -2.82753      6.61752      5.77863        -0.009841      0.000041      0.003370
     -2.83724      6.53364     13.35298        -0.001258      0.003295     -0.000414
      2.79795      0.03493     10.57780        -0.001557     -0.003403     -0.003394
     -1.35668      7.28703      3.84431        -0.003734     -0.004645      0.004592
      4.19514      0.70197      0.99410         0.000744      0.001630      0.000511
      4.14275      0.85712      8.54561        -0.000028      0.004633     -0.002811
      2.84451      1.61498      5.76655        -0.000371     -0.003659      0.000688
      2.80544      1.54800     13.37559         0.000696      0.004943      0.000970
      1.35669      2.40039     10.54736        -0.000949     -0.003700     -0.004052
      1.37038      2.45867      3.79273         0.003117      0.006005     -0.000153
      2.80522      3.31896      0.97115        -0.001130     -0.000489     -0.001362
      2.81687      3.22759      8.61969        -0.003141     -0.001572     -0.000147
      1.37862      4.07043      5.74730         0.005770      0.000303      0.001762
      1.36643      4.02866     13.38471        -0.002201     -0.001328      0.000323
     -0.02145      4.78943     10.53706         0.002731     -0.004559     -0.000402
      0.05225      4.87991      3.78530         0.003127     -0.000713      0.002339
      1.37311      5.67759      0.98313        -0.000495     -0.001231     -0.001442
      1.35631      5.66427      8.63578         0.004431      0.002896      0.003040
     -0.04088      6.40156      5.81177         0.000350     -0.005579      0.005113
     -0.00639      6.53806     13.39251         0.000044      0.011110     -0.000429
      5.57245      0.01028     10.52069         0.002897      0.001121     -0.003269
      1.35693      7.29370      3.83250        -0.004358     -0.000514      0.001244
      7.03364      0.85188      0.94924         0.002593     -0.003993      0.000355
      7.05015      0.80269      8.56572        -0.000923      0.000452     -0.001921
      5.59985      1.66870      5.76585         0.001697     -0.005214     -0.000120
      5.53459      1.56280     13.42878         0.001221      0.005235      0.005370
      4.20543      2.34962     10.52954         0.002936     -0.004147     -0.002338
      4.20066      2.53112      3.79995        -0.000392      0.000457      0.000467
      5.53072      3.30892      0.92598        -0.003776      0.002692     -0.000663
      5.59443      3.18296      8.54497         0.001133      0.002610     -0.004025
      4.19964      4.00026      5.75297         0.003746     -0.008050      0.006820
      4.17892      4.16403     13.35322        -0.002763      0.002115     -0.000533
      2.82213      4.90691     10.51029        -0.003306     -0.006676     -0.002080
      2.78826      4.83049      3.79531         0.007337      0.005974      0.006090
      4.20309      5.67422      0.94322         0.000416      0.003277     -0.001375
      4.19817      5.76417      8.59476        -0.003312     -0.002572     -0.002043
      2.83322      6.54567      5.71935         0.000553      0.005895      0.000494
      2.80720      6.49961     13.39668        -0.001756      0.002221      0.001112
 -----------------------------------------------------------------------------------
    total drift:                               -0.002455      0.006853      0.025916


--------------------------------------------------------------------------------------------------------



  FREE ENERGIE OF THE ION-ELECTRON SYSTEM (eV)
  ---------------------------------------------------
  free  energy   TOTEN  =      -576.7288326656 eV

  energy  without entropy=     -576.6835470625  energy(sigma->0) =     -576.70618986
 
 d Force = 0.2119588E-03[ 0.200E-03, 0.224E-03]  d Energy = 0.2129654E-03-0.101E-05
 d Force = 0.1357050E+00[ 0.135E+00, 0.136E+00]  d Ewald  =-0.3608611E+00 0.497E+00


--------------------------------------------------------------------------------------------------------


    POTLOK:  cpu time    0.2558: real time    0.2564


--------------------------------------------------------------------------------------------------------


 Quasi-Newton relaxation of ions (Broydens 2nd method)
  g(Force)  = 0.213E-03   g(Stress)= 0.283E-03

 retain information from N=  1 steps
 eigenvalues of (default step * inverse Hessian matrix)
  average eigenvalue of G=   0.0834
 eigenvalue spectrum of G is  0.0834


--------------------------------------------------------------------------------------------------------


  
 reached required accuracy - stopping structural energy minimisation
     LOOP+:  cpu time   39.2989: real time   39.5334
    4ORBIT:  cpu time    0.0000: real time    0.0000

volume of typ            1:    11.4 %

volume of typ            2:    19.4 %

volume of typ            3:     9.9 %
 
total charge     
 
# of ion       s       p       d       tot
------------------------------------------
    1        2.077   0.249   0.094   2.420
    2        2.072   0.236   0.089   2.396
    3        2.072   0.236   0.090   2.397
    4        2.074   0.239   0.090   2.403
    5        2.070   0.230   0.087   2.387
    6        2.071   0.231   0.087   2.389
    7        2.071   0.234   0.088   2.393
    8        2.071   0.236   0.089   2.396
    9        2.079   0.253   0.096   2.428
   10        2.072   0.235   0.089   2.396
   11        2.077   0.247   0.094   2.418
   12        2.071   0.235   0.088   2.394
   13        2.072   0.236   0.089   2.397
   14        0.285   0.389   7.839   8.513
   15        0.278   0.373   7.841   8.493
   16        0.276   0.369   7.851   8.496
   17        0.272   0.361   7.841   8.474
   18        0.290   0.399   7.842   8.531
   19        0.287   0.393   7.837   8.517
   20        0.287   0.393   7.830   8.511
   21        0.276   0.371   7.843   8.490
   22        0.293   0.406   7.838   8.537
   23        0.293   0.405   7.834   8.531
   24        0.275   0.364   7.852   8.491
   25        0.293   0.407   7.838   8.538
   26        0.293   0.405   7.837   8.535
   27        0.289   0.398   7.836   8.524
   28        0.280   0.378   7.834   8.492
   29        0.285   0.388   7.842   8.515
   30        0.285   0.390   7.837   8.512
   31        0.276   0.369   7.848   8.493
   32        0.287   0.393   7.831   8.512
   33        0.291   0.400   7.836   8.527
   34        0.285   0.390   7.838   8.513
   35        0.272   0.358   7.845   8.475
   36        0.294   0.407   7.835   8.535
   37        0.276   0.369   7.846   8.490
   38        0.293   0.405   7.833   8.531
   39        0.269   0.356   7.847   8.472
   40        0.279   0.376   7.836   8.491
   41        1.270   2.763   0.006   4.039
   42        1.274   2.756   0.007   4.036
   43        1.273   2.752   0.007   4.033
   44        1.267   2.770   0.007   4.043
   45        1.272   2.759   0.006   4.037
   46        1.270   2.761   0.006   4.037
   47        1.275   2.750   0.007   4.032
   48        1.274   2.751   0.007   4.032
   49        1.270   2.761   0.006   4.038
   50        1.269   2.765   0.006   4.040
   51        1.267   2.771   0.007   4.045
   52        1.269   2.767   0.007   4.043
   53        1.272   2.757   0.008   4.037
   54        1.269   2.769   0.008   4.046
   55        1.273   2.755   0.007   4.035
   56        1.266   2.773   0.007   4.046
   57        1.267   2.773   0.006   4.045
   58        1.267   2.770   0.007   4.044
   59        1.267   2.770   0.007   4.043
   60        1.272   2.761   0.007   4.040
   61        1.275   2.751   0.007   4.034
   62        1.271   2.759   0.006   4.036
   63        1.263   2.780   0.007   4.050
   64        1.266   2.774   0.007   4.047
   65        1.266   2.774   0.007   4.046
   66        1.266   2.772   0.007   4.046
   67        1.266   2.774   0.007   4.047
   68        1.269   2.768   0.007   4.045
   69        1.271   2.763   0.007   4.041
   70        1.274   2.749   0.007   4.031
   71        1.276   2.752   0.007   4.034
   72        1.271   2.761   0.006   4.038
   73        1.267   2.770   0.007   4.044
   74        1.273   2.761   0.007   4.041
   75        1.268   2.768   0.006   4.042
   76        1.279   2.739   0.007   4.025
   77        1.269   2.768   0.007   4.045
   78        1.272   2.759   0.007   4.038
   79        1.269   2.767   0.007   4.044
   80        1.264   2.777   0.007   4.048
   81        1.266   2.773   0.007   4.046
   82        1.272   2.763   0.007   4.042
   83        1.277   2.745   0.007   4.029
   84        1.278   2.743   0.007   4.028
   85        1.273   2.761   0.007   4.041
   86        1.264   2.778   0.006   4.048
   87        1.275   2.754   0.007   4.035
   88        1.276   2.751   0.007   4.033
   89        1.273   2.756   0.007   4.037
   90        1.269   2.763   0.006   4.039
   91        1.278   2.740   0.007   4.025
   92        1.275   2.756   0.007   4.037
   93        1.269   2.769   0.007   4.045
   94        1.273   2.755   0.007   4.035
--------------------------------------------------
tot         103.22  162.65  213.21  479.08
 
magnetization (x)
 
# of ion       s       p       d       tot
------------------------------------------
    1        0.007   0.013   0.001   0.020
    2        0.005   0.010   0.000   0.016
    3        0.005   0.010   0.001   0.016
    4        0.006   0.009   0.000   0.015
    5        0.006   0.011   0.001   0.017
    6        0.006   0.009   0.001   0.015
    7        0.006   0.012   0.001   0.019
    8        0.005   0.011   0.001   0.018
    9        0.007   0.013   0.001   0.021
   10        0.006   0.012   0.001   0.019
   11        0.006   0.010   0.001   0.017
   12        0.006   0.013   0.001   0.020
   13        0.006   0.012   0.001   0.019
   14        0.000  -0.000   0.341   0.341
   15       -0.000  -0.001   0.426   0.425
   16        0.000  -0.001   0.573   0.573
   17       -0.000  -0.001   0.566   0.565
   18       -0.000  -0.001   0.278   0.277
   19       -0.001  -0.001   0.234   0.232
   20       -0.001  -0.001   0.207   0.206
   21       -0.000  -0.001   0.469   0.468
   22       -0.001  -0.001   0.175   0.174
   23       -0.000  -0.000   0.163   0.162
   24        0.001  -0.000   0.598   0.599
   25       -0.001  -0.000   0.169   0.168
   26       -0.001  -0.000   0.184   0.183
   27       -0.001  -0.001   0.213   0.212
   28       -0.001  -0.001   0.340   0.339
   29        0.000  -0.000   0.347   0.347
   30       -0.001  -0.001   0.274   0.273
   31        0.001  -0.000   0.556   0.557
   32       -0.001  -0.001   0.206   0.205
   33       -0.000  -0.000   0.184   0.184
   34       -0.001  -0.001   0.268   0.267
   35        0.001  -0.001   0.658   0.659
   36       -0.001  -0.000   0.139   0.138
   37        0.000  -0.001   0.530   0.530
   38       -0.000  -0.000   0.159   0.158
   39        0.000  -0.001   0.649   0.648
   40       -0.001  -0.001   0.372   0.371
   41        0.012   0.087   0.000   0.098
   42        0.010   0.082   0.000   0.092
   43        0.003   0.010   0.000   0.013
   44        0.005   0.017   0.000   0.023
   45        0.010   0.056   0.000   0.066
   46        0.011   0.083   0.000   0.095
   47        0.008   0.062   0.000   0.070
   48        0.003   0.005   0.000   0.008
   49        0.011   0.078   0.000   0.089
   50        0.011   0.077   0.000   0.088
   51        0.004   0.003   0.000   0.008
   52        0.004   0.008   0.000   0.012
   53        0.003   0.001   0.000   0.005
   54        0.004   0.005   0.000   0.009
   55        0.003   0.006   0.000   0.010
   56        0.004   0.004   0.000   0.008
   57        0.012   0.085   0.000   0.097
   58        0.004   0.009   0.000   0.013
   59        0.004   0.013   0.000   0.017
   60        0.010   0.078   0.000   0.088
   61        0.010   0.090   0.000   0.100
   62        0.010   0.075   0.000   0.085
   63        0.005   0.012   0.000   0.017
   64        0.004   0.008   0.000   0.012
   65        0.004   0.001   0.000   0.005
   66        0.004   0.006   0.000   0.010
   67        0.004   0.009   0.000   0.013
   68        0.004   0.008   0.000   0.011
   69        0.004   0.010   0.000   0.014
   70        0.004   0.010   0.000   0.014
   71        0.011   0.082   0.000   0.093
   72        0.011   0.072   0.000   0.083
   73        0.004   0.008   0.000   0.012
   74        0.010   0.066   0.000   0.076
   75        0.012   0.088   0.000   0.100
   76        0.008   0.055   0.000   0.064
   77        0.004   0.008   0.000   0.012
   78        0.004   0.010   0.000   0.015
   79        0.004   0.008   0.000   0.012
   80        0.004   0.005   0.000   0.010
   81        0.004   0.010   0.000   0.014
   82        0.009   0.070   0.000   0.080
   83        0.010   0.076   0.000   0.086
   84        0.010   0.084   0.000   0.094
   85        0.010   0.073   0.000   0.083
   86        0.005   0.020   0.000   0.026
   87        0.010   0.078   0.000   0.088
   88        0.010   0.087   0.000   0.097
   89        0.009   0.066   0.000   0.075
   90        0.008   0.043   0.000   0.052
   91        0.008   0.052   0.000   0.060
   92        0.011   0.084   0.000   0.095
   93        0.004   0.010   0.000   0.015
   94        0.003   0.006   0.000   0.009
--------------------------------------------------
tot           0.44    2.29    9.30   12.03
 

 total amount of memory used by VASP MPI-rank0   145625. kBytes
=======================================================================

   base      :      30000. kBytes
   nonlr-proj:      39752. kBytes
   fftplans  :       9349. kBytes
   grid      :      55332. kBytes
   one-center:       1461. kBytes
   wavefun   :       9731. kBytes
 
  
  
 General timing and accounting informations for this job:
 ========================================================
  
                  Total CPU time used (sec):     1420.837
                            User time (sec):     1412.197
                          System time (sec):        8.640
                         Elapsed time (sec):     1432.188
  
                   Maximum memory used (kb):      222360.
                   Average memory used (kb):           0.
  
                          Minor page faults:        38426
                          Major page faults:           51
                 Voluntary context switches:          985
