 vasp.5.4.4.18Apr17-6-g9f103f2a35 (build May 12 2020 04:58:55) complex          
  
 MD_VERSION_INFO: Compiled 2020-05-12T11:58:55-UTC in devlin.sd.materialsdesign.
 com:/home/medea2/data/build/wwolf/vasp-gpu5.4.4/13047/x86_64/src/src/build/std 
 from svn 13047
 
 This VASP executable licensed from Materials Design, Inc.
 
 executed on                        Lin64 date 2023.03.14  09:20:10
 running on   16 total cores
 distrk:  each k-point on   16 cores,    1 groups
 distr:  one band on NCORES_PER_BAND=   1 cores,   16 groups


--------------------------------------------------------------------------------------------------------


 INCAR:
 POTCAR:    PAW_PBE Li_sv 10Sep2004               
 POTCAR:    PAW_PBE Ni 02Aug2007                  
 POTCAR:    PAW_PBE O 08Apr2002                   

 ----------------------------------------------------------------------------- 
|                                                                             |
|           W    W    AA    RRRRR   N    N  II  N    N   GGGG   !!!           |
|           W    W   A  A   R    R  NN   N  II  NN   N  G    G  !!!           |
|           W    W  A    A  R    R  N N  N  II  N N  N  G       !!!           |
|           W WW W  AAAAAA  RRRRR   N  N N  II  N  N N  G  GGG   !            |
|           WW  WW  A    A  R   R   N   NN  II  N   NN  G    G                |
|           W    W  A    A  R    R  N    N  II  N    N   GGGG   !!!           |
|                                                                             |
|      For optimal performance we recommend to set                            |
|        NCORE= 4 - approx SQRT( number of cores)                             |
|      NCORE specifies how many cores store one orbital (NPAR=cpu/NCORE).     |
|      This setting can  greatly improve the performance of VASP for DFT.     |
|      The default,   NCORE=1            might be grossly inefficient         |
|      on modern multi-core architectures or massively parallel machines.     |
|      Do your own testing !!!!                                               |
|      Unfortunately you need to use the default for GW and RPA calculations. |
|      (for HF NCORE is supported but not extensively tested yet)             |
|                                                                             |
 ----------------------------------------------------------------------------- 

 POTCAR:    PAW_PBE Li_sv 10Sep2004               
  local pseudopotential read in
  atomic valenz-charges read in
  non local Contribution for L=           0  read in
    real space projection operators read in
  non local Contribution for L=           0  read in
    real space projection operators read in
  non local Contribution for L=           1  read in
    real space projection operators read in
    PAW grid and wavefunctions read in
 
   number of l-projection  operators is LMAX  =           3
   number of lm-projection operators is LMMAX =           5
 
 POTCAR:    PAW_PBE Ni 02Aug2007                  
  local pseudopotential read in
  partial core-charges read in
  partial kinetic energy density read in
  atomic valenz-charges read in
  non local Contribution for L=           2  read in
    real space projection operators read in
  non local Contribution for L=           2  read in
    real space projection operators read in
  non local Contribution for L=           0  read in
    real space projection operators read in
  non local Contribution for L=           0  read in
    real space projection operators read in
  non local Contribution for L=           1  read in
    real space projection operators read in
  non local Contribution for L=           1  read in
    real space projection operators read in
    PAW grid and wavefunctions read in
 
   number of l-projection  operators is LMAX  =           6
   number of lm-projection operators is LMMAX =          18
 
 POTCAR:    PAW_PBE O 08Apr2002                   
  local pseudopotential read in
  partial core-charges read in
  partial kinetic energy density read in
  kinetic energy density of atom read in
  atomic valenz-charges read in
  non local Contribution for L=           0  read in
    real space projection operators read in
  non local Contribution for L=           0  read in
    real space projection operators read in
  non local Contribution for L=           1  read in
    real space projection operators read in
  non local Contribution for L=           1  read in
    real space projection operators read in
    PAW grid and wavefunctions read in
 
   number of l-projection  operators is LMAX  =           4
   number of lm-projection operators is LMMAX =           8
 

 ----------------------------------------------------------------------------- 
|                                                                             |
|  ADVICE TO THIS USER RUNNING 'VASP/VAMP'   (HEAR YOUR MASTER'S VOICE ...):  |
|                                                                             |
|      You have a (more or less) 'large supercell' and for larger cells       |
|      it might be more efficient to use real space projection opertators     |
|      So try LREAL= Auto  in the INCAR   file.                               |
|      Mind:          For very  accurate calculation you might also keep the  |
|      reciprocal projection scheme          (i.e. LREAL=.FALSE.)             |
|                                                                             |
 ----------------------------------------------------------------------------- 


 ----------------------------------------------------------------------------- 
|                                                                             |
|  ADVICE TO THIS USER RUNNING 'VASP/VAMP'   (HEAR YOUR MASTER'S VOICE ...):  |
|                                                                             |
|      You enforced a specific xc-type in the INCAR file,                     |
|      a different type was found on the POTCAR file                          |
|          I HOPE YOU KNOW, WHAT YOU ARE  DOING                               |
|                                                                             |
 ----------------------------------------------------------------------------- 

  PAW_PBE Li_sv 10Sep2004               :
 energy of atom  1       EATOM= -202.7858
 kinetic energy error for atom=    0.0143 (will be added to EATOM!!)
  PAW_PBE Ni 02Aug2007                  :
 energy of atom  2       EATOM=-1077.6739
 kinetic energy error for atom=    0.0030 (will be added to EATOM!!)
  PAW_PBE O 08Apr2002                   :
 energy of atom  3       EATOM= -432.3788
 kinetic energy error for atom=    0.0224 (will be added to EATOM!!)
 
 
 POSCAR: 1                                       
  positions in direct lattice
  No initial velocities read in
 exchange correlation table for  LEXCH =       14
   RHO(1)=    0.500       N(1)  =     2000
   RHO(2)=  100.500       N(2)  =     4000
 


--------------------------------------------------------------------------------------------------------


 ion  position               nearest neighbor table
   1  0.997  0.500  0.000-  42 2.11  41 2.12  89 2.12  90 2.12  54 2.15  77 2.15  36 2.83  37 2.84

   2  0.220  0.832  0.112-  62 2.06  43 2.07  56 2.09  55 2.12  61 2.14  38 2.21
   3  0.109  0.168  0.888-  40 2.08  45 2.10  63 2.10  76 2.14  46 2.16  39 2.23
   4  0.999  0.499  0.619-  83 2.00  48 2.00  42 2.14  47 2.14  78 2.15  77 2.16  33 2.80  16 2.83

   5  0.381  0.501  0.381-  72 2.00  59 2.00  41 2.13  54 2.15  53 2.16  60 2.16  28 2.81  21 2.82

   6  0.565  0.836  0.781-  73 2.05  91 2.06  86 2.11  67 2.13  68 2.13  74 2.15  25 2.65  28 2.82
                            35 2.83  29 2.84
   7  0.445  0.166  0.554-  69 2.08  70 2.09  58 2.12  57 2.12  52 2.14  75 2.18
   8  0.891  0.834  0.446-  85 2.06  80 2.06  49 2.10  44 2.11  79 2.12  50 2.16  16 2.84
   9  0.779  0.165  0.218-  87 2.11  88 2.11  81 2.11  82 2.11  64 2.14  51 2.16  33 2.82
  10  0.614  0.502  0.998-  65 2.00  66 2.01  71 2.12  84 2.12  89 2.17  90 2.18  24 2.83
  11  0.998  0.999  0.999-  40 1.86  55 1.86  76 1.86  91 1.88  88 1.89  43 1.93  35 2.79  29 2.79
                            17 2.80  23 2.82  14 2.82  20 2.82
  12  0.226  0.337  0.122-  63 1.84  54 1.84  39 1.85  60 1.87  57 1.91  42 2.25  18 2.70  24 2.75
                            21 2.81  36 2.85  15 2.87  30 2.90
  13  0.103  0.663  0.878-  77 1.83  38 1.84  62 1.85  47 1.86  44 1.91  41 2.25  25 2.50  31 2.69
                            16 2.82  37 2.83  22 2.87  19 2.90
  14  0.000  0.000  0.665-  76 1.85  46 1.85  79 1.86  49 1.86  82 1.95  43 2.02  26 2.77  29 2.79
                            32 2.80  17 2.80  23 2.82  11 2.82
  15  0.217  0.334  0.777-  66 1.82  63 1.86  48 1.86  45 1.86  42 1.90  69 2.01  30 2.74  33 2.77
                            24 2.81  27 2.81  18 2.86  12 2.87
  16  0.114  0.672  0.550-  50 1.85  47 1.85  44 1.88  83 1.88  53 1.88  68 1.90  25 2.53  19 2.72
                            28 2.77  34 2.81  31 2.81  13 2.82   4 2.83   8 2.84
  17  0.003  0.999  0.333-  85 1.86  88 1.86  82 1.87  52 1.89  55 1.89  49 1.94  20 2.77  26 2.79
                            11 2.80  14 2.80  32 2.83  35 2.83
  18  0.224  0.334  0.441-  48 1.83  57 1.86  69 1.88  72 1.89  54 1.90  51 1.91  12 2.70  33 2.79
                            27 2.81  21 2.82  15 2.86  36 2.87
  19  0.115  0.662  0.228-  38 1.84  41 1.86  53 1.86  56 1.87  50 1.90  89 2.14  16 2.72  22 2.74
                            28 2.79  34 2.82  37 2.85  13 2.90
  20  0.334  0.999  0.333-  55 1.86  58 1.86  61 1.86  52 1.87  73 2.00  40 2.02  17 2.77  32 2.78
                            29 2.81  26 2.82  23 2.82  11 2.82
  21  0.564  0.329  0.449-  60 1.86  75 1.86  57 1.87  78 1.88  72 1.90  81 1.90  30 2.73  33 2.77
                            24 2.78  12 2.81   5 2.82  18 2.82  27 2.83
  22  0.440  0.666  0.223-  65 1.81  56 1.86  62 1.86  59 1.87  41 1.90  80 2.02  19 2.74  28 2.77
                            34 2.82  31 2.86  13 2.87  25 2.91
  23  0.334  0.999  0.999-  40 1.86  61 1.87  43 1.87  46 1.87  67 1.89  64 1.90  35 2.78  26 2.79
                            32 2.81  11 2.82  14 2.82  20 2.82
  24  0.549  0.328  0.112-  84 1.86  81 1.87  63 1.88  66 1.89  87 1.89  60 1.91  12 2.75  21 2.78
                            36 2.80  15 2.81  10 2.83  27 2.83  33 2.86
  25  0.381  0.713  0.862-  62 1.56  68 1.60  47 2.02  86 2.14  65 2.45  71 2.46  13 2.50  16 2.53
                             6 2.65  22 2.91  28 2.95
  26  0.332  0.999  0.667-  52 1.86  70 1.87  67 1.87  73 1.87  49 1.89  46 1.89  14 2.77  23 2.79
                            17 2.79  35 2.81  20 2.82  29 2.82
  27  0.553  0.334  0.778-  72 1.85  66 1.85  75 1.86  69 1.88  90 1.90  87 1.96  36 2.76  18 2.81
                            15 2.81  21 2.83  30 2.83  24 2.83
  28  0.448  0.676  0.555-  68 1.85  74 1.86  53 1.86  59 1.87  56 1.89  71 2.03  22 2.77  16 2.77
                            19 2.79  31 2.80  37 2.81   5 2.81   6 2.82  25 2.95
  29  0.668  0.999  0.666-  58 1.86  91 1.86  70 1.88  73 1.88  76 1.89  79 1.89  14 2.79  11 2.79
                            32 2.79  20 2.81  35 2.82  26 2.82   6 2.84
  30  0.888  0.338  0.772-  39 1.84  42 1.86  45 1.87  78 1.87  75 1.90  90 2.15  21 2.73  15 2.74
                            33 2.78  27 2.83  36 2.86  12 2.90
  31  0.783  0.667  0.559-  59 1.84  80 1.87  83 1.88  44 1.88  77 1.90  74 1.90  13 2.69  28 2.80
                            34 2.81  16 2.81  37 2.86  22 2.86
  32  0.666  0.999  0.334-  64 1.86  85 1.87  82 1.88  79 1.88  58 1.89  61 1.91  20 2.78  29 2.79
                            14 2.80  23 2.81  35 2.82  17 2.83
  33  0.893  0.325  0.445-  81 1.85  51 1.85  78 1.86  48 1.87  45 1.89  84 2.07  15 2.77  21 2.77
                            30 2.78  18 2.79   4 2.80  36 2.81   9 2.82  24 2.86
  34  0.776  0.667  0.222-  65 1.85  83 1.85  50 1.86  80 1.89  89 1.91  86 1.95  37 2.76  16 2.81
                            31 2.81  22 2.82  19 2.82
  35  0.666  1.000  0.999-  64 1.86  88 1.86  91 1.86  67 1.87  70 1.99  85 2.02  23 2.78  11 2.79
                            26 2.81  29 2.82  32 2.82  17 2.83   6 2.83
  36  0.879  0.339  0.107-  51 1.84  87 1.85  90 1.85  84 1.87  39 1.90  54 2.18  27 2.76  24 2.80
                            33 2.81   1 2.83  12 2.85  30 2.86  18 2.87
  37  0.773  0.662  0.893-  86 1.85  74 1.85  89 1.86  71 1.86  38 1.90  77 2.17  34 2.76  28 2.81
                            13 2.83   1 2.84  19 2.85  31 2.86
  38  0.006  0.723  0.006-  13 1.84  19 1.84  37 1.90   2 2.21
  39  0.999  0.278  0.994-  30 1.84  12 1.85  36 1.90   3 2.23
  40  0.215  0.069  0.095-  23 1.86  11 1.86  20 2.02   3 2.08
  41  0.235  0.585  0.143-  19 1.86  22 1.90   1 2.12   5 2.13  13 2.25
  42  0.092  0.416  0.857-  30 1.86  15 1.90   1 2.11   4 2.14  12 2.25
  43  0.121  0.926  0.899-  23 1.87  11 1.93  14 2.02   2 2.07
  44  0.002  0.737  0.662-  16 1.88  31 1.88  13 1.91   8 2.11
  45  0.001  0.264  0.674-  15 1.86  30 1.87  33 1.89   3 2.10
  46  0.220  0.066  0.780-  14 1.85  23 1.87  26 1.89   3 2.16
  47  0.211  0.602  0.760-  16 1.85  13 1.86  25 2.02   4 2.14
  48  0.112  0.394  0.552-  18 1.83  15 1.86  33 1.87   4 2.00
  49  0.111  0.930  0.559-  14 1.86  26 1.89  17 1.94   8 2.10
  50  0.996  0.733  0.329-  16 1.85  34 1.86  19 1.90   8 2.16
  51  0.995  0.270  0.317-  36 1.84  33 1.85  18 1.91   9 2.16
  52  0.228  0.065  0.449-  26 1.86  20 1.87  17 1.89   7 2.14
  53  0.236  0.602  0.452-  19 1.86  28 1.86  16 1.88   5 2.16
  54  0.140  0.415  0.238-  12 1.84  18 1.90   1 2.15   5 2.15  36 2.18
  55  0.113  0.934  0.217-  20 1.86  11 1.86  17 1.89   2 2.12
  56  0.327  0.736  0.326-  22 1.86  19 1.87  28 1.89   2 2.09
  57  0.340  0.265  0.340-  18 1.86  21 1.87  12 1.91   7 2.12
  58  0.555  0.065  0.448-  29 1.86  20 1.86  32 1.89   7 2.12
  59  0.560  0.607  0.449-  31 1.84  22 1.87  28 1.87   5 2.00
  60  0.452  0.399  0.237-  21 1.86  12 1.87  24 1.91   5 2.16
  61  0.438  0.932  0.217-  20 1.86  23 1.87  32 1.91   2 2.14
  62  0.317  0.732  0.005-  25 1.56  13 1.85  22 1.86   2 2.06
  63  0.316  0.270  0.996-  12 1.84  15 1.86  24 1.88   3 2.10
  64  0.561  0.065  0.115-  35 1.86  32 1.86  23 1.90   9 2.14
  65  0.552  0.606  0.117-  22 1.81  34 1.85  10 2.00  25 2.45
  66  0.438  0.394  0.890-  15 1.82  27 1.85  24 1.89  10 2.01
  67  0.446  0.932  0.885-  35 1.87  26 1.87  23 1.89   6 2.13
  68  0.336  0.743  0.661-  25 1.60  28 1.85  16 1.90   6 2.13
  69  0.336  0.263  0.657-  27 1.88  18 1.88  15 2.01   7 2.08
  70  0.548  0.069  0.765-  26 1.87  29 1.88  35 1.99   7 2.09
  71  0.550  0.598  0.785-  37 1.86  28 2.03  10 2.12  25 2.46
  72  0.451  0.397  0.560-  27 1.85  18 1.89  21 1.90   5 2.00
  73  0.450  0.928  0.569-  26 1.87  29 1.88  20 2.00   6 2.05
  74  0.679  0.732  0.682-  37 1.85  28 1.86  31 1.90   6 2.15
  75  0.667  0.268  0.673-  27 1.86  21 1.86  30 1.90   7 2.18
  76  0.895  0.065  0.780-  14 1.85  11 1.86  29 1.89   3 2.14
  77  0.902  0.586  0.762-  13 1.83  31 1.90   1 2.15   4 2.16  37 2.17
  78  0.784  0.398  0.547-  33 1.86  30 1.87  21 1.88   4 2.15
  79  0.781  0.933  0.554-  14 1.86  32 1.88  29 1.89   8 2.12
  80  0.680  0.738  0.346-  31 1.87  34 1.89  22 2.02   8 2.06
  81  0.672  0.262  0.330-  33 1.85  24 1.87  21 1.90   9 2.11
  82  0.886  0.068  0.435-  17 1.87  32 1.88  14 1.95   9 2.11
  83  0.893  0.604  0.441-  34 1.85  16 1.88  31 1.88   4 2.00
  84  0.757  0.403  0.209-  24 1.86  36 1.87  33 2.07  10 2.12
  85  0.786  0.930  0.237-  17 1.86  32 1.87  35 2.02   8 2.06
  86  0.670  0.738  0.996-  37 1.85  34 1.95   6 2.11  25 2.14
  87  0.671  0.264  0.007-  36 1.85  24 1.89  27 1.96   9 2.11
  88  0.887  0.065  0.114-  35 1.86  17 1.86  11 1.89   9 2.11
  89  0.861  0.587  0.099-  37 1.86  34 1.91   1 2.12  19 2.14  10 2.17
  90  0.761  0.414  0.902-  36 1.85  27 1.90   1 2.12  30 2.15  10 2.18
  91  0.773  0.934  0.885-  29 1.86  35 1.86  11 1.88   6 2.06
 
  LATTYP: Found a base centered monoclinic cell.
 ALAT       =    14.6249098366
 B/A-ratio  =     0.5731202362
 C/A-ratio  =     1.3956243751
 COS(beta)  =    -0.6170579448
  
  Lattice vectors:
  
 A1 = (   4.1909158800,  -0.0552290600,   7.3122463500)
 A2 = (  -4.1909159000,  -0.0552290600,   7.3122463500)
 A3 = (   0.0000000100, -14.2382675300, -14.6244927000)


Analysis of symmetry for initial positions (statically):
=====================================================================
 Subroutine PRICEL returns:
 Original cell was already a primitive cell.
 

 Routine SETGRP: Setting up the symmetry group for a 
 base centered monoclinic supercell.


 Subroutine GETGRP returns: Found  1 space group operations
 (whereof  1 operations were pure point group operations)
 out of a pool of  4 trial point group operations.


The static configuration has the point symmetry C_1 .


Analysis of symmetry for dynamics (positions and initial velocities):
=====================================================================
 Subroutine PRICEL returns:
 Original cell was already a primitive cell.
 

 Routine SETGRP: Setting up the symmetry group for a 
 base centered monoclinic supercell.


 Subroutine GETGRP returns: Found  1 space group operations
 (whereof  1 operations were pure point group operations)
 out of a pool of  4 trial point group operations.


The dynamic configuration has the point symmetry C_1 .


Analysis of structural, dynamic, and magnetic symmetry:
=====================================================================
 Subroutine PRICEL returns:
 Original cell was already a primitive cell.
 

 Routine SETGRP: Setting up the symmetry group for a 
 base centered monoclinic supercell.


 Subroutine GETGRP returns: Found  1 space group operations
 (whereof  1 operations were pure point group operations)
 out of a pool of  4 trial point group operations.


The magnetic configuration has the point symmetry C_1 .


 Subroutine INISYM returns: Found  1 space group operations
 (whereof  1 operations are pure point group operations),
 and found     1 'primitive' translations

 
 
 KPOINTS: Automatic mesh                          

Automatic generation of k-mesh.
Space group operators:
 irot       det(A)        alpha          n_x          n_y          n_z        tau_x        tau_y        tau_z
    1     1.000000     0.000000     1.000000     0.000000     0.000000     0.000000     0.000000     0.000000
 
 Subroutine IBZKPT returns following result:
 ===========================================
 
 Found      4 irreducible k-points:
 
 Following reciprocal coordinates:
            Coordinates               Weight
  0.000000  0.000000  0.000000      1.000000
  0.500000  0.000000  0.000000      1.000000
  0.000000  0.000000  0.500000      1.000000
  0.500000  0.000000  0.500000      1.000000
 
 Following cartesian coordinates:
            Coordinates               Weight
  0.000000  0.000000  0.000000      1.000000
  0.059653 -0.000000  0.034189      1.000000
  0.000000  0.000000  0.068378      1.000000
  0.059653 -0.000000  0.102568      1.000000
 


--------------------------------------------------------------------------------------------------------




 Dimension of arrays:
   k-points           NKPTS =      4   k-points in BZ     NKDIM =      4   number of bands    NBANDS=    416
   number of dos      NEDOS =    301   number of ions     NIONS =     91
   non local maximal  LDIM  =      6   non local SUM 2l+1 LMDIM =     18
   total plane-waves  NPLWV = 442368
   max r-space proj   IRMAX =      1   max aug-charges    IRDMAX=  16503
   dimension x,y,z NGX =    64 NGY =  108 NGZ =   64
   dimension x,y,z NGXF=   128 NGYF=  216 NGZF=  128
   support grid    NGXF=   128 NGYF=  216 NGZF=  128
   ions per type =              10  27  54
   NGX,Y,Z   is equivalent  to a cutoff of  12.69, 12.51, 12.62 a.u.
   NGXF,Y,Z  is equivalent  to a cutoff of  25.39, 25.03, 25.25 a.u.

 SYSTEM =  unknown system                          
 POSCAR =  1                                       

 Startparameter for this run:
   NWRITE =      1    write-flag & timer
   PREC   = accura    normal or accurate (medium, high low for compatibility)
   ISTART =      0    job   : 0-new  1-cont  2-samecut
   ICHARG =      2    charge: 1-file 2-atom 10-const
   ISPIN  =      2    spin polarized calculation?
   LNONCOLLINEAR =      F non collinear calculations
   LSORBIT =      F    spin-orbit coupling
   INIWAV =      1    electr: 0-lowe 1-rand  2-diag
   LASPH  =      F    aspherical Exc in radial PAW
   METAGGA=      F    non-selfconsistent MetaGGA calc.

 Electronic Relaxation 1
   ENCUT  =  500.0 eV  36.75 Ry    6.06 a.u.  15.28 26.16 15.37*2*pi/ulx,y,z
   ENINI  =  500.0     initial cutoff
   ENAUG  =  628.9 eV  augmentation charge cutoff
   NELM   =     60;   NELMIN=  2; NELMDL= -5     # of ELM steps 
   EDIFF  = 0.1E-04   stopping-criterion for ELM
   LREAL  =      F    real-space projection
   NLSPLINE    = F    spline interpolate recip. space projectors
   LCOMPAT=      F    compatible to vasp.4.4
   GGA_COMPAT  = T    GGA compatible to vasp.4.4-vasp.4.6
   LMAXPAW     = -100 max onsite density
   LMAXMIX     =    2 max onsite mixed and CHGCAR
   VOSKOWN=      1    Vosko Wilk Nusair interpolation
   ROPT   =    0.00000   0.00000   0.00000
 Ionic relaxation
   EDIFFG = 0.1E-03   stopping-criterion for IOM
   NSW    =      0    number of steps for IOM
   NBLOCK =      1;   KBLOCK =      1    inner block; outer block 
   IBRION =     -1    ionic relax: 0-MD 1-quasi-New 2-CG
   NFREE  =      0    steps in history (QN), initial steepest desc. (CG)
   ISIF   =      2    stress and relaxation
   IWAVPR =     10    prediction:  0-non 1-charg 2-wave 3-comb
   ISYM   =      2    0-nonsym 1-usesym 2-fastsym
   LCORR  =      T    Harris-Foulkes like correction to forces

   POTIM  = 0.5000    time-step for ionic-motion
   TEIN   =    0.0    initial temperature
   TEBEG  =    0.0;   TEEND  =   0.0 temperature during run
   SMASS  =  -3.00    Nose mass-parameter (am)
   estimated Nose-frequenzy (Omega)   =  0.10E-29 period in steps =****** mass=  -0.161E-26a.u.
   SCALEE = 1.0000    scale energy and forces
   NPACO  =    256;   APACO  = 16.0  distance and # of slots for P.C.
   PSTRESS=    0.0 pullay stress

  Mass of Ions in am
   POMASS =   7.01 58.69 16.00
  Ionic Valenz
   ZVAL   =   3.00 10.00  6.00
  Atomic Wigner-Seitz radii
   RWIGS  =   1.23  1.15  0.73
  virtual crystal weights 
   VCA    =   1.00  1.00  1.00
   NELECT =     624.0000    total number of electrons
   NUPDOWN=      -1.0000    fix difference up-down

 DOS related values:
   EMIN   =  10.00;   EMAX   =-10.00  energy-range for DOS
   EFERMI =   0.00
   ISMEAR =     1;   SIGMA  =   0.20  broadening in eV -4-tet -1-fermi 0-gaus

 Electronic relaxation 2 (details)
   IALGO  =     38    algorithm
   LDIAG  =      T    sub-space diagonalisation (order eigenvalues)
   LSUBROT=      F    optimize rotation matrix (better conditioning)
   TURBO    =      0    0=normal 1=particle mesh
   IRESTART =      0    0=no restart 2=restart with 2 vectors
   NREBOOT  =      0    no. of reboots
   NMIN     =      0    reboot dimension
   EREF     =   0.00    reference energy to select bands
   IMIX   =      4    mixing-type and parameters
     AMIX     =   0.40;   BMIX     =  1.00
     AMIX_MAG =   1.60;   BMIX_MAG =  1.00
     AMIN     =   0.10
     WC   =   100.;   INIMIX=   1;  MIXPRE=   1;  MAXMIX= -45

 Intra band minimization:
   WEIMIN = 0.0000     energy-eigenvalue tresh-hold
   EBREAK =  0.60E-08  absolut break condition
   DEPER  =   0.30     relativ break condition  

   TIME   =   0.40     timestep for ELM

  volume/ion in A,a.u.               =       9.66        65.22
  Fermi-wavevector in a.u.,A,eV,Ry     =   1.460165  2.759312 29.008743  2.132082
  Thomas-Fermi vector in A             =   2.576647
 
 Write flags
   LWAVE        =      F    write WAVECAR
   LDOWNSAMPLE  =      F    k-point downsampling of WAVECAR
   LCHARG       =      T    write CHGCAR
   LVTOT        =      F    write LOCPOT, total local potential
   LVHAR        =      F    write LOCPOT, Hartree potential only
   LELF         =      F    write electronic localiz. function (ELF)
   LORBIT       =      0    0 simple, 1 ext, 2 COOP (PROOUT), +10 PAW based schemes


 Dipole corrections
   LMONO  =      F    monopole corrections only (constant potential shift)
   LDIPOL =      F    correct potential (dipole corrections)
   IDIPOL =      0    1-x, 2-y, 3-z, 4-all directions 
   EPSILON=  1.0000000 bulk dielectric constant

 Exchange correlation treatment:
   GGA     =    PS    GGA type
   LEXCH   =    14    internal setting for exchange type
   VOSKOWN=      1    Vosko Wilk Nusair interpolation
   LHFCALC =     F    Hartree Fock is set to
   LHFONE  =     F    Hartree Fock one center treatment
   AEXX    =    0.0000 exact exchange contribution

 Linear response parameters
   LEPSILON=     F    determine dielectric tensor
   LRPA    =     F    only Hartree local field effects (RPA)
   LNABLA  =     F    use nabla operator in PAW spheres
   LVEL    =     F    velocity operator in full k-point grid
   LINTERFAST=   F  fast interpolation
   KINTER  =     0    interpolate to denser k-point grid
   CSHIFT  =0.1000    complex shift for real part using Kramers Kronig
   OMEGAMAX=  -1.0    maximum frequency
   DEG_THRESHOLD= 0.2000000E-02 threshold for treating states as degnerate
   RTIME   =   -0.100 relaxation time in fs
  (WPLASMAI=    0.000 imaginary part of plasma frequency in eV, 0.658/RTIME)
   DFIELD  = 0.0000000 0.0000000 0.0000000 field for delta impulse in time
 
 Orbital magnetization related:
   ORBITALMAG=     F  switch on orbital magnetization
   LCHIMAG   =     F  perturbation theory with respect to B field
   DQ        =  0.001000  dq finite difference perturbation B field
   LLRAUG    =     F  two centre corrections for induced B field



--------------------------------------------------------------------------------------------------------


 Static calculation
 charge density and potential will be updated during run
 spin polarized calculation
 Variant of blocked Davidson
 Davidson routine will perform the subspace rotation
 perform sub-space diagonalisation
    after iterative eigenvector-optimisation
 modified Broyden-mixing scheme, WC =      100.0
 initial mixing is a Kerker type mixing with AMIX =  0.4000 and BMIX =      1.0000
 Hartree-type preconditioning will be used
 using additional bands          104
 reciprocal scheme for non local part
 use partial core corrections
 calculate Harris-corrections to forces 
   (improved forces if not selfconsistent)
 use gradient corrections 
 use of overlap-Matrix (Vanderbilt PP)
 Methfessel and Paxton  Order N= 1 SIGMA  =   0.20


--------------------------------------------------------------------------------------------------------


  energy-cutoff  :      500.00
  volume of cell :      879.43
      direct lattice vectors                 reciprocal lattice vectors
     8.381831780  0.000000000  0.000000000     0.119305663 -0.000000000  0.068378440
     0.000000010 14.348725650  0.000000000     0.000000000  0.069692600  0.000526385
    -4.190915900 -0.055229060  7.312246350     0.000000000  0.000000000  0.136756880

  length of vectors
     8.381831780 14.348725650  8.428272244     0.137511645  0.069694588  0.136756880


 
 k-points in units of 2pi/SCALE and weight: Automatic mesh                          
   0.00000000  0.00000000  0.00000000       0.250
   0.05965283 -0.00000000  0.03418922       0.250
   0.00000000  0.00000000  0.06837844       0.250
   0.05965283 -0.00000000  0.10256766       0.250
 
 k-points in reciprocal lattice and weights: Automatic mesh                          
   0.00000000  0.00000000  0.00000000       0.250
   0.50000000  0.00000000  0.00000000       0.250
   0.00000000  0.00000000  0.50000000       0.250
   0.50000000  0.00000000  0.50000000       0.250
 
 position of ions in fractional coordinates (direct lattice) 
   0.99744420  0.50004579  0.00010084
   0.21989016  0.83206660  0.11226127
   0.10856898  0.16760763  0.88772614
   0.99936886  0.49938930  0.61861476
   0.38092317  0.50120278  0.38078172
   0.56463693  0.83587670  0.78142075
   0.44541692  0.16569682  0.55355314
   0.89131596  0.83396692  0.44588003
   0.77909525  0.16528788  0.21837534
   0.61427624  0.50158215  0.99840148
   0.99807050  0.99945148  0.99866703
   0.22592698  0.33703907  0.12180609
   0.10316568  0.66324462  0.87819001
   0.00009558  0.00010612  0.66466034
   0.21706612  0.33449975  0.77700510
   0.11412024  0.67210664  0.54957174
   0.00262594  0.99913543  0.33313954
   0.22418743  0.33365869  0.44149635
   0.11531323  0.66206248  0.22764293
   0.33359866  0.99893540  0.33341531
   0.56410586  0.32888309  0.44869739
   0.43995826  0.66637013  0.22295585
   0.33437877  0.99901339  0.99909005
   0.54871680  0.32792754  0.11203064
   0.38055448  0.71298634  0.86213986
   0.33186545  0.99882650  0.66695531
   0.55331215  0.33410186  0.77846129
   0.44784208  0.67584118  0.55514700
   0.66847597  0.99918658  0.66616496
   0.88781661  0.33847604  0.77217003
   0.78345855  0.66705739  0.55921027
   0.66568167  0.99942646  0.33361960
   0.89322013  0.32501294  0.44518763
   0.77560536  0.66705656  0.22195027
   0.66585203  0.99959624  0.99919671
   0.87904954  0.33909221  0.10657693
   0.77349112  0.66179641  0.89300826
   0.00635049  0.72252833  0.00590019
   0.99935078  0.27832858  0.99401288
   0.21456561  0.06877015  0.09491752
   0.23470323  0.58470805  0.14284608
   0.09233043  0.41583785  0.85735837
   0.12111496  0.92626712  0.89897321
   0.00219565  0.73736856  0.66192539
   0.00065623  0.26449475  0.67374370
   0.22001279  0.06555444  0.78046068
   0.21089212  0.60181971  0.76010373
   0.11228883  0.39421432  0.55201752
   0.11054463  0.92992651  0.55917845
   0.99619438  0.73321145  0.32862693
   0.99450734  0.26950319  0.31701096
   0.22785056  0.06492388  0.44929746
   0.23627539  0.60222691  0.45234278
   0.14042975  0.41464425  0.23802543
   0.11257187  0.93351723  0.21726725
   0.32666347  0.73605690  0.32630905
   0.34016266  0.26493312  0.33957585
   0.55454344  0.06496346  0.44812844
   0.56047123  0.60656870  0.44928700
   0.45163126  0.39919099  0.23691300
   0.43772924  0.93237258  0.21719468
   0.31673478  0.73217986  0.00484321
   0.31592024  0.26998852  0.99645601
   0.56103062  0.06526729  0.11517141
   0.55240522  0.60558896  0.11685271
   0.43848957  0.39382993  0.88995713
   0.44572702  0.93218488  0.88531694
   0.33627681  0.74271863  0.66131970
   0.33640833  0.26339825  0.65701616
   0.54843599  0.06872099  0.76486457
   0.55014090  0.59776149  0.78536307
   0.45144345  0.39733179  0.55957666
   0.45028573  0.92842297  0.56906021
   0.67874082  0.73195892  0.68224773
   0.66716690  0.26799338  0.67258632
   0.89471434  0.06501349  0.77961575
   0.90222979  0.58616888  0.76248879
   0.78400082  0.39836858  0.54667115
   0.78127249  0.93258553  0.55357736
   0.68011693  0.73763969  0.34554327
   0.67180536  0.26164521  0.33045496
   0.88558829  0.06840995  0.43452145
   0.89275499  0.60401999  0.44132022
   0.75749111  0.40334450  0.20937439
   0.78616431  0.92950471  0.23703010
   0.67001722  0.73770514  0.99551635
   0.67119293  0.26410666  0.00702350
   0.88720375  0.06498274  0.11439921
   0.86071147  0.58671135  0.09855245
   0.76099390  0.41395181  0.90207441
   0.77308753  0.93396129  0.88506959
 
 position of ions in cartesian coordinates  (Angst):
   8.35998689  7.17501428  0.00073737
   1.37260480 11.93289528  0.82088206
  -2.81037867  2.35592762  6.49127223
   5.78397924  7.13143455  4.52346352
   1.59700977  7.17059097  2.78436974
   1.45782313 11.95060831  5.71394103
   1.41351504  2.34696599  4.04771693
   5.60221474 11.94173700  3.26038462
   5.61505264  2.35960978  1.59681428
   0.96454348  7.14192389  7.30055758
   4.18032951 14.28569965  7.30249934
   1.38320286  4.82935391  0.89067614
  -2.81570309  9.46821348  6.42154170
  -2.78473445 -0.03518588  4.86016015
  -1.43695132  4.75673188  5.68165271
  -1.34667228  9.61352145  4.01860395
  -1.37414960 14.31792119  2.43599839
   0.02882726  4.76319358  3.22833007
   0.01250373  9.48718038  1.66458118
   1.39885234 14.31503578  2.43801488
   2.84778740  4.69427209  3.28098585
   2.75326692  9.54924853  1.63030810
  -1.38439577 14.27939025  7.30559257
   4.12974093  4.69915496  0.81919564
  -0.42341201 10.18283021  6.30417904
  -0.01351323 14.29505211  4.87694153
   1.37530357  4.75094224  5.69230073
   1.42716260  9.66679943  4.05937162
   2.81121182 14.30026245  4.87116230
   4.20542982  4.81405361  5.64629748
   4.22321457  9.54053882  4.08908326
   4.18146010 14.32207058  2.43950870
   5.62107696  4.63893421  3.25532162
   5.57081875  9.55915347  1.62295505
   1.39351034 14.28774751  7.30637250
   6.92139042  4.85965495  0.77931677
   2.74074994  9.44661512  6.52989639
   0.02850155 10.36703492  0.04314364
   4.21056575  3.93876204  7.26846705
   1.40066151  0.98152181  0.69406029
   1.36858709  8.38192614  1.04452573
  -2.81921869  5.91939213  6.26921561
  -2.75235589 13.24110334  6.57351357
  -2.75567007 10.54374165  4.84016152
  -2.81810277  3.75795237  4.92657991
  -1.42673488  0.89751856  5.70692076
  -1.41786853  8.59336610  5.55806573
  -1.37227291  5.62598572  4.03648810
  -1.41690335 13.31237747  4.08885058
   6.97268589 10.50250018  2.40300107
   7.00722696  3.84951912  2.31806224
   0.02683720  0.90676067  3.28537371
   0.08469003  8.61620624  3.30764184
   0.17951399  5.93647066  1.74050058
   0.03300971 13.38278316  1.58871166
   1.37050448 10.54345678  2.38605216
   1.42805237  3.78269820  2.48306227
   2.77002122  0.90739315  3.27682555
   2.81485154  8.67867417  3.28529723
   2.79261479  5.71479752  1.73236622
   2.75872823 13.36636290  1.58818101
   2.63452017 10.50558045  0.03541474
  -1.52807303  3.81895787  7.28633182
   4.21979059  0.93014163  0.84216172
   4.14044775  8.68297618  0.85445580
  -0.05438967  5.60180612  6.50758578
   0.02572007 13.32676988  6.47365556
   0.04708041 10.62054179  4.83573256
   0.06621856  3.74314284  4.80426402
   1.39141512  0.94381588  5.59287816
   1.31979791  8.53374076  5.74276824
   1.43878434  5.67029995  4.09176239
   1.38933577 13.29025782  4.16110844
   2.82984852 10.46499783  4.98876347
   2.77332803  3.80821718  4.91811686
   4.23204105  0.88980329  5.70074242
   4.36681194  8.36866490  5.57550587
   4.28031018  5.68588933  3.99739412
   4.22849843 13.35084036  4.04789403
   4.25248292 10.56510551  2.52669751
   4.24605057  3.73602462  2.41636808
   5.60180922  0.95759739  3.17732789
   5.63338623  8.64254342  3.22704217
   5.47169260  5.77591602  1.53099712
   5.59612379 13.32411712  1.73322248
   1.44384634 10.53014723  7.27946080
   5.59639134  3.78920611  0.05135756
   6.95695512  0.92610135  0.83651521
   6.80131373  8.41311724  0.72063979
   2.59800487  5.88986023  6.59619031
   2.77063742 13.35227276  6.47184688
 


--------------------------------------------------------------------------------------------------------


 k-point  1 :   0.0000 0.0000 0.0000  plane waves:   22377
 k-point  2 :   0.5000 0.0000 0.0000  plane waves:   22322
 k-point  3 :   0.0000 0.0000 0.5000  plane waves:   22328
 k-point  4 :   0.5000 0.0000 0.5000  plane waves:   22322

 maximum and minimum number of plane-waves per node :     22377    22322

 maximum number of plane-waves:     22377
 maximum index in each direction: 
   IXMAX=   15   IYMAX=   26   IZMAX=   15
   IXMIN=  -15   IYMIN=  -26   IZMIN=  -15

 The following grids will avoid any aliasing or wrap around errors in the Hartre
 e energy
  - symmetry arguments have not been applied
  - exchange correlation energies might require even more grid points
  - we recommend to set PREC=Normal or Accurate and rely on VASP defaults
 NGX is ok and might be reduce to    64
 NGY is ok and might be reduce to   108
 NGZ is ok and might be reduce to    64

 serial   3D FFT for wavefunctions
 parallel 3D FFT for charge:
    minimum data exchange during FFTs selected (reduces bandwidth)


 total amount of memory used by VASP MPI-rank0   246523. kBytes
=======================================================================

   base      :      30000. kBytes
   nonl-proj :      71270. kBytes
   fftplans  :       9349. kBytes
   grid      :      55332. kBytes
   one-center:       2830. kBytes
   wavefun   :      77742. kBytes
 
     INWAV:  cpu time    0.0000: real time    0.0000
 Broyden mixing: mesh for mixing (old mesh)
   NGX = 31   NGY = 53   NGZ = 31
  (NGX  =128   NGY  =216   NGZ  =128)
  gives a total of  50933 points

 initial charge density was supplied:
 charge density of overlapping atoms calculated
 number of electron     624.0000000 magnetization      67.5000000
 keeping initial charge density in first step


--------------------------------------------------------------------------------------------------------


 Maximum index for augmentation-charges         1079 (set IRDMAX)


--------------------------------------------------------------------------------------------------------


 First call to EWALD:  gamma=   0.185
 Maximum number of real-space cells 3x 2x 3
 Maximum number of reciprocal cells 2x 4x 2

    FEWALD:  cpu time    0.0039: real time    0.0040


--------------------------------------- Iteration      1(   1)  ---------------------------------------


    POTLOK:  cpu time    0.2873: real time    0.2966
    SETDIJ:  cpu time    0.0329: real time    0.0330
     EDDAV:  cpu time   57.3639: real time   57.5034
    --------------------------------------------
      LOOP:  cpu time   57.6853: real time   57.8341

 eigenvalue-minimisations  :  6656
 total energy-change (2. order) : 0.8254404E+04  (-0.2627073E+05)
 number of electron     624.0000000 magnetization      67.5000000
 augmentation part      624.0000000 magnetization      67.5000000

 Free energy of the ion-electron system (eV)
  ---------------------------------------------------
  alpha Z        PSCENC =      1918.83428665
  Ewald energy   TEWEN  =    -35949.51243087
  -Hartree energ DENC   =    -19625.60413817
  -exchange      EXHF   =         0.00000000
  -V(xc)+E(xc)   XCENC  =      2533.29519468
  PAW double counting   =     45455.27212768   -47490.22993259
  entropy T*S    EENTRO =        -0.01040288
  eigenvalues    EBANDS =      7066.61368582
  atomic energy  EATOM  =     54345.74550241
  Solvation  Ediel_sol  =         0.00000000
  ---------------------------------------------------
  free energy    TOTEN  =      8254.40389273 eV

  energy without entropy =     8254.41429561  energy(sigma->0) =     8254.40736036


--------------------------------------------------------------------------------------------------------




--------------------------------------- Iteration      1(   2)  ---------------------------------------


     EDDAV:  cpu time   59.3731: real time   59.5144
    --------------------------------------------
      LOOP:  cpu time   59.3731: real time   59.5143

 eigenvalue-minimisations  :  6688
 total energy-change (2. order) :-0.7141810E+04  (-0.6486940E+04)
 number of electron     624.0000000 magnetization      67.5000000
 augmentation part      624.0000000 magnetization      67.5000000

 Free energy of the ion-electron system (eV)
  ---------------------------------------------------
  alpha Z        PSCENC =      1918.83428665
  Ewald energy   TEWEN  =    -35949.51243087
  -Hartree energ DENC   =    -19625.60413817
  -exchange      EXHF   =         0.00000000
  -V(xc)+E(xc)   XCENC  =      2533.29519468
  PAW double counting   =     45455.27212768   -47490.22993259
  entropy T*S    EENTRO =        -0.00195728
  eigenvalues    EBANDS =       -75.20518346
  atomic energy  EATOM  =     54345.74550241
  Solvation  Ediel_sol  =         0.00000000
  ---------------------------------------------------
  free energy    TOTEN  =      1112.59346905 eV

  energy without entropy =     1112.59542633  energy(sigma->0) =     1112.59412148


--------------------------------------------------------------------------------------------------------




--------------------------------------- Iteration      1(   3)  ---------------------------------------


     EDDAV:  cpu time   60.6125: real time   60.7566
    --------------------------------------------
      LOOP:  cpu time   60.6125: real time   60.7566

 eigenvalue-minimisations  :  6832
 total energy-change (2. order) :-0.1659589E+04  (-0.1473656E+04)
 number of electron     624.0000000 magnetization      67.5000000
 augmentation part      624.0000000 magnetization      67.5000000

 Free energy of the ion-electron system (eV)
  ---------------------------------------------------
  alpha Z        PSCENC =      1918.83428665
  Ewald energy   TEWEN  =    -35949.51243087
  -Hartree energ DENC   =    -19625.60413817
  -exchange      EXHF   =         0.00000000
  -V(xc)+E(xc)   XCENC  =      2533.29519468
  PAW double counting   =     45455.27212768   -47490.22993259
  entropy T*S    EENTRO =        -0.31137923
  eigenvalues    EBANDS =     -1734.48447371
  atomic energy  EATOM  =     54345.74550241
  Solvation  Ediel_sol  =         0.00000000
  ---------------------------------------------------
  free energy    TOTEN  =      -546.99524314 eV

  energy without entropy =     -546.68386392  energy(sigma->0) =     -546.89145007


--------------------------------------------------------------------------------------------------------




--------------------------------------- Iteration      1(   4)  ---------------------------------------


     EDDAV:  cpu time   67.5960: real time   67.7565
    --------------------------------------------
      LOOP:  cpu time   67.5960: real time   67.7565

 eigenvalue-minimisations  :  7888
 total energy-change (2. order) :-0.1934432E+03  (-0.1875729E+03)
 number of electron     624.0000000 magnetization      67.5000000
 augmentation part      624.0000000 magnetization      67.5000000

 Free energy of the ion-electron system (eV)
  ---------------------------------------------------
  alpha Z        PSCENC =      1918.83428665
  Ewald energy   TEWEN  =    -35949.51243087
  -Hartree energ DENC   =    -19625.60413817
  -exchange      EXHF   =         0.00000000
  -V(xc)+E(xc)   XCENC  =      2533.29519468
  PAW double counting   =     45455.27212768   -47490.22993259
  entropy T*S    EENTRO =        -0.42773637
  eigenvalues    EBANDS =     -1927.81132607
  atomic energy  EATOM  =     54345.74550241
  Solvation  Ediel_sol  =         0.00000000
  ---------------------------------------------------
  free energy    TOTEN  =      -740.43845265 eV

  energy without entropy =     -740.01071628  energy(sigma->0) =     -740.29587386


--------------------------------------------------------------------------------------------------------




--------------------------------------- Iteration      1(   5)  ---------------------------------------


     EDDAV:  cpu time   89.9247: real time   90.1385
    CHARGE:  cpu time    2.0091: real time    2.0138
    MIXING:  cpu time    0.0058: real time    0.0058
    --------------------------------------------
      LOOP:  cpu time   91.9386: real time   92.1571

 eigenvalue-minimisations  : 11216
 total energy-change (2. order) :-0.1008546E+02  (-0.1000449E+02)
 number of electron     623.9999851 magnetization      68.8330813
 augmentation part      183.1351337 magnetization      50.9295630

 Broyden mixing:
  rms(total) = 0.15425E+02    rms(broyden)= 0.15424E+02
  rms(prec ) = 0.16984E+02
  weight for this iteration     100.00

 Free energy of the ion-electron system (eV)
  ---------------------------------------------------
  alpha Z        PSCENC =      1918.83428665
  Ewald energy   TEWEN  =    -35949.51243087
  -Hartree energ DENC   =    -19625.60413817
  -exchange      EXHF   =         0.00000000
  -V(xc)+E(xc)   XCENC  =      2533.29519468
  PAW double counting   =     45455.27212768   -47490.22993259
  entropy T*S    EENTRO =        -0.41743547
  eigenvalues    EBANDS =     -1937.90708551
  atomic energy  EATOM  =     54345.74550241
  Solvation  Ediel_sol  =         0.00000000
  ---------------------------------------------------
  free energy    TOTEN  =      -750.52391118 eV

  energy without entropy =     -750.10647571  energy(sigma->0) =     -750.38476603


--------------------------------------------------------------------------------------------------------




--------------------------------------- Iteration      1(   6)  ---------------------------------------


    POTLOK:  cpu time    0.3013: real time    0.3020
    SETDIJ:  cpu time    0.0339: real time    0.0339
     EDDAV:  cpu time   82.5618: real time   82.7580
    CHARGE:  cpu time    1.9240: real time    1.9285
    MIXING:  cpu time    0.0060: real time    0.0060
    --------------------------------------------
      LOOP:  cpu time   84.8269: real time   85.0284

 eigenvalue-minimisations  : 10192
 total energy-change (2. order) :-0.1024458E+03  (-0.1747054E+03)
 number of electron     623.9999843 magnetization      64.8349300
 augmentation part      241.8622717 magnetization      62.3816870

 Broyden mixing:
  rms(total) = 0.27442E+02    rms(broyden)= 0.27441E+02
  rms(prec ) = 0.29484E+02
  weight for this iteration     100.00

 eigenvalues of (default mixing * dielectric matrix)
  average eigenvalue GAMMA=   0.2051
  0.2051

 Free energy of the ion-electron system (eV)
  ---------------------------------------------------
  alpha Z        PSCENC =      1918.83428665
  Ewald energy   TEWEN  =    -35949.51243087
  -Hartree energ DENC   =    -18678.30225429
  -exchange      EXHF   =         0.00000000
  -V(xc)+E(xc)   XCENC  =      2548.46504913
  PAW double counting   =     50172.66591016   -51903.78885522
  entropy T*S    EENTRO =        -0.02806525
  eigenvalues    EBANDS =     -3307.04882154
  atomic energy  EATOM  =     54345.74550241
  Solvation  Ediel_sol  =         0.00000000
  ---------------------------------------------------
  free energy    TOTEN  =      -852.96967882 eV

  energy without entropy =     -852.94161357  energy(sigma->0) =     -852.96032374


--------------------------------------------------------------------------------------------------------




--------------------------------------- Iteration      1(   7)  ---------------------------------------


    POTLOK:  cpu time    0.2934: real time    0.2941
    SETDIJ:  cpu time    0.0343: real time    0.0344
     EDDAV:  cpu time   75.7096: real time   75.8893
    CHARGE:  cpu time    1.9397: real time    1.9443
    MIXING:  cpu time    0.0063: real time    0.0063
    --------------------------------------------
      LOOP:  cpu time   77.9833: real time   78.1684

 eigenvalue-minimisations  :  9168
 total energy-change (2. order) : 0.2136395E+03  (-0.4804356E+02)
 number of electron     623.9999832 magnetization      61.7487586
 augmentation part      226.4613529 magnetization      49.0669337

 Broyden mixing:
  rms(total) = 0.13957E+02    rms(broyden)= 0.13956E+02
  rms(prec ) = 0.16503E+02
  weight for this iteration     100.00

 eigenvalues of (default mixing * dielectric matrix)
  average eigenvalue GAMMA=   0.4331
  0.4331  0.4331

 Free energy of the ion-electron system (eV)
  ---------------------------------------------------
  alpha Z        PSCENC =      1918.83428665
  Ewald energy   TEWEN  =    -35949.51243087
  -Hartree energ DENC   =    -18999.68967196
  -exchange      EXHF   =         0.00000000
  -V(xc)+E(xc)   XCENC  =      2534.83795094
  PAW double counting   =     51990.94635450   -53904.67998802
  entropy T*S    EENTRO =        -0.03294384
  eigenvalues    EBANDS =     -2575.77919414
  atomic energy  EATOM  =     54345.74550241
  Solvation  Ediel_sol  =         0.00000000
  ---------------------------------------------------
  free energy    TOTEN  =      -639.33013433 eV

  energy without entropy =     -639.29719049  energy(sigma->0) =     -639.31915305


--------------------------------------------------------------------------------------------------------




--------------------------------------- Iteration      1(   8)  ---------------------------------------


    POTLOK:  cpu time    0.2772: real time    0.2778
    SETDIJ:  cpu time    0.0317: real time    0.0318
     EDDAV:  cpu time   85.7136: real time   85.9171
    CHARGE:  cpu time    1.9597: real time    1.9643
    MIXING:  cpu time    0.0057: real time    0.0058
    --------------------------------------------
      LOOP:  cpu time   87.9879: real time   88.1969

 eigenvalue-minimisations  : 10656
 total energy-change (2. order) :-0.9952924E+02  (-0.3725646E+02)
 number of electron     623.9999854 magnetization      55.7513614
 augmentation part      210.3353062 magnetization      50.6855011

 Broyden mixing:
  rms(total) = 0.14144E+02    rms(broyden)= 0.14142E+02
  rms(prec ) = 0.19483E+02
  weight for this iteration     100.00

 eigenvalues of (default mixing * dielectric matrix)
  average eigenvalue GAMMA=   0.4641
  0.6030  0.6030  0.1862

 Free energy of the ion-electron system (eV)
  ---------------------------------------------------
  alpha Z        PSCENC =      1918.83428665
  Ewald energy   TEWEN  =    -35949.51243087
  -Hartree energ DENC   =    -19165.14141293
  -exchange      EXHF   =         0.00000000
  -V(xc)+E(xc)   XCENC  =      2526.29480253
  PAW double counting   =     53542.52047334   -55575.62306495
  entropy T*S    EENTRO =        -0.04659362
  eigenvalues    EBANDS =     -2381.93093588
  atomic energy  EATOM  =     54345.74550241
  Solvation  Ediel_sol  =         0.00000000
  ---------------------------------------------------
  free energy    TOTEN  =      -738.85937331 eV

  energy without entropy =     -738.81277969  energy(sigma->0) =     -738.84384211


--------------------------------------------------------------------------------------------------------




--------------------------------------- Iteration      1(   9)  ---------------------------------------


    POTLOK:  cpu time    0.2781: real time    0.2788
    SETDIJ:  cpu time    0.0342: real time    0.0343
     EDDAV:  cpu time   67.1482: real time   67.3075
    CHARGE:  cpu time    1.9373: real time    1.9418
    MIXING:  cpu time    0.0058: real time    0.0058
    --------------------------------------------
      LOOP:  cpu time   69.4036: real time   69.5683

 eigenvalue-minimisations  :  8512
 total energy-change (2. order) : 0.7344050E+02  (-0.3583266E+02)
 number of electron     623.9999840 magnetization      51.4710111
 augmentation part      198.9820454 magnetization      43.5301798

 Broyden mixing:
  rms(total) = 0.14946E+02    rms(broyden)= 0.14945E+02
  rms(prec ) = 0.18093E+02
  weight for this iteration     100.00

 eigenvalues of (default mixing * dielectric matrix)
  average eigenvalue GAMMA=   0.4246
  0.6596  0.6596  0.1897  0.1897

 Free energy of the ion-electron system (eV)
  ---------------------------------------------------
  alpha Z        PSCENC =      1918.83428665
  Ewald energy   TEWEN  =    -35949.51243087
  -Hartree energ DENC   =    -19147.98535467
  -exchange      EXHF   =         0.00000000
  -V(xc)+E(xc)   XCENC  =      2518.48529596
  PAW double counting   =     55542.10624196   -57628.61068469
  entropy T*S    EENTRO =         0.07972405
  eigenvalues    EBANDS =     -2264.56145750
  atomic energy  EATOM  =     54345.74550241
  Solvation  Ediel_sol  =         0.00000000
  ---------------------------------------------------
  free energy    TOTEN  =      -665.41887670 eV

  energy without entropy =     -665.49860075  energy(sigma->0) =     -665.44545138


--------------------------------------------------------------------------------------------------------




--------------------------------------- Iteration      1(  10)  ---------------------------------------


    POTLOK:  cpu time    0.3002: real time    0.3010
    SETDIJ:  cpu time    0.0340: real time    0.0341
     EDDAV:  cpu time   78.9119: real time   79.0993
    CHARGE:  cpu time    1.9260: real time    1.9305
    MIXING:  cpu time    0.0070: real time    0.0071
    --------------------------------------------
      LOOP:  cpu time   81.1792: real time   81.3720

 eigenvalue-minimisations  :  9616
 total energy-change (2. order) : 0.5754425E+02  (-0.1655531E+02)
 number of electron     623.9999839 magnetization      49.1215302
 augmentation part      206.2622983 magnetization      44.0236639

 Broyden mixing:
  rms(total) = 0.92728E+01    rms(broyden)= 0.92718E+01
  rms(prec ) = 0.12448E+02
  weight for this iteration     100.00

 eigenvalues of (default mixing * dielectric matrix)
  average eigenvalue GAMMA=   0.4253
  0.7303  0.7303  0.2631  0.2631  0.1399

 Free energy of the ion-electron system (eV)
  ---------------------------------------------------
  alpha Z        PSCENC =      1918.83428665
  Ewald energy   TEWEN  =    -35949.51243087
  -Hartree energ DENC   =    -19090.13976791
  -exchange      EXHF   =         0.00000000
  -V(xc)+E(xc)   XCENC  =      2515.26440881
  PAW double counting   =     56880.59838059   -58987.02441594
  entropy T*S    EENTRO =         0.01327043
  eigenvalues    EBANDS =     -2241.65385600
  atomic energy  EATOM  =     54345.74550241
  Solvation  Ediel_sol  =         0.00000000
  ---------------------------------------------------
  free energy    TOTEN  =      -607.87462183 eV

  energy without entropy =     -607.88789226  energy(sigma->0) =     -607.87904530


--------------------------------------------------------------------------------------------------------




--------------------------------------- Iteration      1(  11)  ---------------------------------------


    POTLOK:  cpu time    0.3016: real time    0.3023
    SETDIJ:  cpu time    0.0342: real time    0.0343
     EDDAV:  cpu time   73.3603: real time   73.5345
    CHARGE:  cpu time    1.9558: real time    1.9604
    MIXING:  cpu time    0.0072: real time    0.0072
    --------------------------------------------
      LOOP:  cpu time   75.6591: real time   75.8388

 eigenvalue-minimisations  :  8800
 total energy-change (2. order) : 0.1919685E+02  (-0.1070372E+02)
 number of electron     623.9999829 magnetization      46.6311910
 augmentation part      204.7540519 magnetization      42.5809908

 Broyden mixing:
  rms(total) = 0.83885E+01    rms(broyden)= 0.83873E+01
  rms(prec ) = 0.97380E+01
  weight for this iteration     100.00

 eigenvalues of (default mixing * dielectric matrix)
  average eigenvalue GAMMA=   0.4015
  0.7738  0.7738  0.3047  0.3047  0.1559  0.0961

 Free energy of the ion-electron system (eV)
  ---------------------------------------------------
  alpha Z        PSCENC =      1918.83428665
  Ewald energy   TEWEN  =    -35949.51243087
  -Hartree energ DENC   =    -19089.05862524
  -exchange      EXHF   =         0.00000000
  -V(xc)+E(xc)   XCENC  =      2515.44356471
  PAW double counting   =     57334.57206392   -59444.21368956
  entropy T*S    EENTRO =         0.01602070
  eigenvalues    EBANDS =     -2220.50446100
  atomic energy  EATOM  =     54345.74550241
  Solvation  Ediel_sol  =         0.00000000
  ---------------------------------------------------
  free energy    TOTEN  =      -588.67776827 eV

  energy without entropy =     -588.69378897  energy(sigma->0) =     -588.68310850


--------------------------------------------------------------------------------------------------------




--------------------------------------- Iteration      1(  12)  ---------------------------------------


    POTLOK:  cpu time    0.2908: real time    0.2914
    SETDIJ:  cpu time    0.0342: real time    0.0343
     EDDAV:  cpu time   72.9388: real time   73.1120
    CHARGE:  cpu time    1.9380: real time    1.9426
    MIXING:  cpu time    0.0075: real time    0.0075
    --------------------------------------------
      LOOP:  cpu time   75.2093: real time   75.3879

 eigenvalue-minimisations  :  8736
 total energy-change (2. order) : 0.2029644E+02  (-0.4498992E+01)
 number of electron     623.9999822 magnetization      45.2337633
 augmentation part      204.4048691 magnetization      40.1788915

 Broyden mixing:
  rms(total) = 0.66903E+01    rms(broyden)= 0.66895E+01
  rms(prec ) = 0.80998E+01
  weight for this iteration     100.00

 eigenvalues of (default mixing * dielectric matrix)
  average eigenvalue GAMMA=   0.3760
  0.7835  0.7835  0.3307  0.3307  0.1465  0.1284  0.1284

 Free energy of the ion-electron system (eV)
  ---------------------------------------------------
  alpha Z        PSCENC =      1918.83428665
  Ewald energy   TEWEN  =    -35949.51243087
  -Hartree energ DENC   =    -19103.72181445
  -exchange      EXHF   =         0.00000000
  -V(xc)+E(xc)   XCENC  =      2516.50829161
  PAW double counting   =     57701.70812346   -59819.02656348
  entropy T*S    EENTRO =        -0.00909526
  eigenvalues    EBANDS =     -2178.90762828
  atomic energy  EATOM  =     54345.74550241
  Solvation  Ediel_sol  =         0.00000000
  ---------------------------------------------------
  free energy    TOTEN  =      -568.38132820 eV

  energy without entropy =     -568.37223294  energy(sigma->0) =     -568.37829645


--------------------------------------------------------------------------------------------------------




--------------------------------------- Iteration      1(  13)  ---------------------------------------


    POTLOK:  cpu time    0.3021: real time    0.3028
    SETDIJ:  cpu time    0.0347: real time    0.0347
     EDDAV:  cpu time   74.1633: real time   74.3395
    CHARGE:  cpu time    1.9368: real time    1.9414
    MIXING:  cpu time    0.0078: real time    0.0078
    --------------------------------------------
      LOOP:  cpu time   76.4446: real time   76.6262

 eigenvalue-minimisations  :  8928
 total energy-change (2. order) : 0.9159962E+01  (-0.5923687E+01)
 number of electron     623.9999824 magnetization      41.8399820
 augmentation part      204.6504335 magnetization      37.9974315

 Broyden mixing:
  rms(total) = 0.55205E+01    rms(broyden)= 0.55198E+01
  rms(prec ) = 0.65485E+01
  weight for this iteration     100.00

 eigenvalues of (default mixing * dielectric matrix)
  average eigenvalue GAMMA=   0.3858
  0.7817  0.7817  0.4428  0.4428  0.2100  0.2100  0.1297  0.0879

 Free energy of the ion-electron system (eV)
  ---------------------------------------------------
  alpha Z        PSCENC =      1918.83428665
  Ewald energy   TEWEN  =    -35949.51243087
  -Hartree energ DENC   =    -19114.59426891
  -exchange      EXHF   =         0.00000000
  -V(xc)+E(xc)   XCENC  =      2517.10871698
  PAW double counting   =     57887.74703698   -60007.29801147
  entropy T*S    EENTRO =         0.04285986
  eigenvalues    EBANDS =     -2157.29505773
  atomic energy  EATOM  =     54345.74550241
  Solvation  Ediel_sol  =         0.00000000
  ---------------------------------------------------
  free energy    TOTEN  =      -559.22136610 eV

  energy without entropy =     -559.26422596  energy(sigma->0) =     -559.23565272


--------------------------------------------------------------------------------------------------------




--------------------------------------- Iteration      1(  14)  ---------------------------------------


    POTLOK:  cpu time    0.2973: real time    0.2980
    SETDIJ:  cpu time    0.0341: real time    0.0342
     EDDAV:  cpu time   74.4059: real time   74.5827
    CHARGE:  cpu time    1.9387: real time    1.9433
    MIXING:  cpu time    0.0082: real time    0.0082
    --------------------------------------------
      LOOP:  cpu time   76.6843: real time   76.8664

 eigenvalue-minimisations  :  8976
 total energy-change (2. order) : 0.8419295E+01  (-0.4134581E+01)
 number of electron     623.9999823 magnetization      39.3949887
 augmentation part      204.2640682 magnetization      35.2065913

 Broyden mixing:
  rms(total) = 0.50966E+01    rms(broyden)= 0.50961E+01
  rms(prec ) = 0.59570E+01
  weight for this iteration     100.00

 eigenvalues of (default mixing * dielectric matrix)
  average eigenvalue GAMMA=   0.3898
  0.7890  0.7890  0.5331  0.5331  0.2414  0.2414  0.1678  0.1149  0.0985

 Free energy of the ion-electron system (eV)
  ---------------------------------------------------
  alpha Z        PSCENC =      1918.83428665
  Ewald energy   TEWEN  =    -35949.51243087
  -Hartree energ DENC   =    -19131.12819122
  -exchange      EXHF   =         0.00000000
  -V(xc)+E(xc)   XCENC  =      2518.75981343
  PAW double counting   =     58201.26742101   -60321.64222204
  entropy T*S    EENTRO =        -0.06146080
  eigenvalues    EBANDS =     -2133.06478982
  atomic energy  EATOM  =     54345.74550241
  Solvation  Ediel_sol  =         0.00000000
  ---------------------------------------------------
  free energy    TOTEN  =      -550.80207124 eV

  energy without entropy =     -550.74061044  energy(sigma->0) =     -550.78158430


--------------------------------------------------------------------------------------------------------




--------------------------------------- Iteration      1(  15)  ---------------------------------------


    POTLOK:  cpu time    0.2917: real time    0.2924
    SETDIJ:  cpu time    0.0332: real time    0.0333
     EDDAV:  cpu time   73.3285: real time   73.5025
    CHARGE:  cpu time    1.9675: real time    1.9722
    MIXING:  cpu time    0.0084: real time    0.0084
    --------------------------------------------
      LOOP:  cpu time   75.6293: real time   75.8088

 eigenvalue-minimisations  :  8800
 total energy-change (2. order) : 0.7968976E+01  (-0.2389343E+01)
 number of electron     623.9999820 magnetization      36.1914763
 augmentation part      204.8214325 magnetization      32.7114166

 Broyden mixing:
  rms(total) = 0.39974E+01    rms(broyden)= 0.39968E+01
  rms(prec ) = 0.46436E+01
  weight for this iteration     100.00

 eigenvalues of (default mixing * dielectric matrix)
  average eigenvalue GAMMA=   0.4127
  0.9066  0.9066  0.5944  0.5944  0.3021  0.3021  0.1767  0.1261  0.1261  0.0916

 Free energy of the ion-electron system (eV)
  ---------------------------------------------------
  alpha Z        PSCENC =      1918.83428665
  Ewald energy   TEWEN  =    -35949.51243087
  -Hartree energ DENC   =    -19137.10977059
  -exchange      EXHF   =         0.00000000
  -V(xc)+E(xc)   XCENC  =      2519.67337413
  PAW double counting   =     58444.84963721   -60565.22188564
  entropy T*S    EENTRO =        -0.00202580
  eigenvalues    EBANDS =     -2120.08978242
  atomic energy  EATOM  =     54345.74550241
  Solvation  Ediel_sol  =         0.00000000
  ---------------------------------------------------
  free energy    TOTEN  =      -542.83309492 eV

  energy without entropy =     -542.83106912  energy(sigma->0) =     -542.83241966


--------------------------------------------------------------------------------------------------------




--------------------------------------- Iteration      1(  16)  ---------------------------------------


    POTLOK:  cpu time    0.2965: real time    0.2972
    SETDIJ:  cpu time    0.0345: real time    0.0346
     EDDAV:  cpu time   75.1312: real time   75.3096
    CHARGE:  cpu time    1.9474: real time    1.9520
    MIXING:  cpu time    0.0088: real time    0.0088
    --------------------------------------------
      LOOP:  cpu time   77.4184: real time   77.6023

 eigenvalue-minimisations  :  9072
 total energy-change (2. order) : 0.3134632E+01  (-0.2453303E+01)
 number of electron     623.9999822 magnetization      33.0053980
 augmentation part      205.3643168 magnetization      28.8283546

 Broyden mixing:
  rms(total) = 0.34957E+01    rms(broyden)= 0.34951E+01
  rms(prec ) = 0.39599E+01
  weight for this iteration     100.00

 eigenvalues of (default mixing * dielectric matrix)
  average eigenvalue GAMMA=   0.4144
  0.9765  0.9765  0.6266  0.6266  0.3278  0.3278  0.1847  0.1847  0.1282  0.0942
  0.1047

 Free energy of the ion-electron system (eV)
  ---------------------------------------------------
  alpha Z        PSCENC =      1918.83428665
  Ewald energy   TEWEN  =    -35949.51243087
  -Hartree energ DENC   =    -19141.87280142
  -exchange      EXHF   =         0.00000000
  -V(xc)+E(xc)   XCENC  =      2520.43494849
  PAW double counting   =     58723.79980606   -60844.36731155
  entropy T*S    EENTRO =        -0.07287118
  eigenvalues    EBANDS =     -2112.68759197
  atomic energy  EATOM  =     54345.74550241
  Solvation  Ediel_sol  =         0.00000000
  ---------------------------------------------------
  free energy    TOTEN  =      -539.69846336 eV

  energy without entropy =     -539.62559218  energy(sigma->0) =     -539.67417297


--------------------------------------------------------------------------------------------------------




--------------------------------------- Iteration      1(  17)  ---------------------------------------


    POTLOK:  cpu time    0.3028: real time    0.3036
    SETDIJ:  cpu time    0.0336: real time    0.0337
     EDDAV:  cpu time   71.3214: real time   71.4907
    CHARGE:  cpu time    1.4777: real time    1.4812
    MIXING:  cpu time    0.0082: real time    0.0082
    --------------------------------------------
      LOOP:  cpu time   73.1438: real time   73.3174

 eigenvalue-minimisations  :  8720
 total energy-change (2. order) : 0.1845724E+01  (-0.2086608E+01)
 number of electron     623.9999820 magnetization      29.5851418
 augmentation part      205.7393377 magnetization      24.6709383

 Broyden mixing:
  rms(total) = 0.22077E+01    rms(broyden)= 0.22072E+01
  rms(prec ) = 0.25501E+01
  weight for this iteration     100.00

 eigenvalues of (default mixing * dielectric matrix)
  average eigenvalue GAMMA=   0.4131
  0.8475  0.8475  0.7920  0.7920  0.3651  0.3651  0.2307  0.2307  0.1652  0.1180
  0.1105  0.0923

 Free energy of the ion-electron system (eV)
  ---------------------------------------------------
  alpha Z        PSCENC =      1918.83428665
  Ewald energy   TEWEN  =    -35949.51243087
  -Hartree energ DENC   =    -19146.62334020
  -exchange      EXHF   =         0.00000000
  -V(xc)+E(xc)   XCENC  =      2520.54572863
  PAW double counting   =     59009.40436367   -61130.80140042
  entropy T*S    EENTRO =        -0.03683326
  eigenvalues    EBANDS =     -2105.40861580
  atomic energy  EATOM  =     54345.74550241
  Solvation  Ediel_sol  =         0.00000000
  ---------------------------------------------------
  free energy    TOTEN  =      -537.85273919 eV

  energy without entropy =     -537.81590593  energy(sigma->0) =     -537.84046144


--------------------------------------------------------------------------------------------------------




--------------------------------------- Iteration      1(  18)  ---------------------------------------


    POTLOK:  cpu time    0.2537: real time    0.2543
    SETDIJ:  cpu time    0.0332: real time    0.0333
     EDDAV:  cpu time   73.0975: real time   73.2711
    CHARGE:  cpu time    1.9325: real time    1.9370
    MIXING:  cpu time    0.0092: real time    0.0092
    --------------------------------------------
      LOOP:  cpu time   75.3260: real time   75.5049

 eigenvalue-minimisations  :  9120
 total energy-change (2. order) :-0.1834959E+01  (-0.6245432E+00)
 number of electron     623.9999821 magnetization      26.5194084
 augmentation part      205.4588206 magnetization      22.8621841

 Broyden mixing:
  rms(total) = 0.21634E+01    rms(broyden)= 0.21630E+01
  rms(prec ) = 0.24037E+01
  weight for this iteration     100.00

 eigenvalues of (default mixing * dielectric matrix)
  average eigenvalue GAMMA=   0.4346
  0.9883  0.9883  1.0181  0.6248  0.4116  0.4116  0.2788  0.2788  0.1842  0.1418
  0.1266  0.1044  0.0926

 Free energy of the ion-electron system (eV)
  ---------------------------------------------------
  alpha Z        PSCENC =      1918.83428665
  Ewald energy   TEWEN  =    -35949.51243087
  -Hartree energ DENC   =    -19153.36686738
  -exchange      EXHF   =         0.00000000
  -V(xc)+E(xc)   XCENC  =      2519.45015848
  PAW double counting   =     59356.65931108   -61481.93440443
  entropy T*S    EENTRO =         0.01972295
  eigenvalues    EBANDS =     -2095.58297744
  atomic energy  EATOM  =     54345.74550241
  Solvation  Ediel_sol  =         0.00000000
  ---------------------------------------------------
  free energy    TOTEN  =      -539.68769855 eV

  energy without entropy =     -539.70742149  energy(sigma->0) =     -539.69427286


--------------------------------------------------------------------------------------------------------




--------------------------------------- Iteration      1(  19)  ---------------------------------------


    POTLOK:  cpu time    0.2994: real time    0.3002
    SETDIJ:  cpu time    0.0341: real time    0.0342
     EDDAV:  cpu time   73.7404: real time   73.9156
    CHARGE:  cpu time    1.9363: real time    1.9409
    MIXING:  cpu time    0.0095: real time    0.0095
    --------------------------------------------
      LOOP:  cpu time   76.0199: real time   76.2004

 eigenvalue-minimisations  :  8864
 total energy-change (2. order) :-0.2728365E+01  (-0.1008919E+01)
 number of electron     623.9999819 magnetization      23.2971584
 augmentation part      205.5716748 magnetization      19.2605108

 Broyden mixing:
  rms(total) = 0.19403E+01    rms(broyden)= 0.19399E+01
  rms(prec ) = 0.21567E+01
  weight for this iteration     100.00

 eigenvalues of (default mixing * dielectric matrix)
  average eigenvalue GAMMA=   0.4430
  1.2335  1.0294  1.0294  0.5049  0.4602  0.4602  0.3344  0.3344  0.1798  0.1707
  0.1446  0.1216  0.0926  0.1065

 Free energy of the ion-electron system (eV)
  ---------------------------------------------------
  alpha Z        PSCENC =      1918.83428665
  Ewald energy   TEWEN  =    -35949.51243087
  -Hartree energ DENC   =    -19152.48177562
  -exchange      EXHF   =         0.00000000
  -V(xc)+E(xc)   XCENC  =      2518.21793370
  PAW double counting   =     59625.70928796   -61753.46059394
  entropy T*S    EENTRO =         0.07321364
  eigenvalues    EBANDS =     -2095.54148743
  atomic energy  EATOM  =     54345.74550241
  Solvation  Ediel_sol  =         0.00000000
  ---------------------------------------------------
  free energy    TOTEN  =      -542.41606351 eV

  energy without entropy =     -542.48927715  energy(sigma->0) =     -542.44046806


--------------------------------------------------------------------------------------------------------




--------------------------------------- Iteration      1(  20)  ---------------------------------------


    POTLOK:  cpu time    0.3054: real time    0.3061
    SETDIJ:  cpu time    0.0344: real time    0.0345
     EDDAV:  cpu time   73.3230: real time   73.4971
    CHARGE:  cpu time    1.9163: real time    1.9208
    MIXING:  cpu time    0.0087: real time    0.0087
    --------------------------------------------
      LOOP:  cpu time   75.5878: real time   75.7672

 eigenvalue-minimisations  :  8800
 total energy-change (2. order) :-0.1741170E+01  (-0.4609642E+00)
 number of electron     623.9999820 magnetization      21.0540523
 augmentation part      205.9787232 magnetization      17.5847246

 Broyden mixing:
  rms(total) = 0.15569E+01    rms(broyden)= 0.15565E+01
  rms(prec ) = 0.17360E+01
  weight for this iteration     100.00

 eigenvalues of (default mixing * dielectric matrix)
  average eigenvalue GAMMA=   0.4476
  1.3393  1.0685  1.0685  0.4999  0.4999  0.5223  0.3294  0.3294  0.2347  0.1870
  0.1870  0.1255  0.1255  0.0926  0.1048

 Free energy of the ion-electron system (eV)
  ---------------------------------------------------
  alpha Z        PSCENC =      1918.83428665
  Ewald energy   TEWEN  =    -35949.51243087
  -Hartree energ DENC   =    -19149.59001052
  -exchange      EXHF   =         0.00000000
  -V(xc)+E(xc)   XCENC  =      2517.16600841
  PAW double counting   =     59892.64839243   -62021.99193838
  entropy T*S    EENTRO =         0.01080606
  eigenvalues    EBANDS =     -2097.46784986
  atomic energy  EATOM  =     54345.74550241
  Solvation  Ediel_sol  =         0.00000000
  ---------------------------------------------------
  free energy    TOTEN  =      -544.15723366 eV

  energy without entropy =     -544.16803972  energy(sigma->0) =     -544.16083568


--------------------------------------------------------------------------------------------------------




--------------------------------------- Iteration      1(  21)  ---------------------------------------


    POTLOK:  cpu time    0.2910: real time    0.2917
    SETDIJ:  cpu time    0.0344: real time    0.0345
     EDDAV:  cpu time   72.6846: real time   72.8573
    CHARGE:  cpu time    1.9243: real time    1.9289
    MIXING:  cpu time    0.0106: real time    0.0106
    --------------------------------------------
      LOOP:  cpu time   74.9449: real time   75.1229

 eigenvalue-minimisations  :  8688
 total energy-change (2. order) :-0.2198374E+01  (-0.8621757E+00)
 number of electron     623.9999820 magnetization      18.7612330
 augmentation part      206.0658459 magnetization      15.0605398

 Broyden mixing:
  rms(total) = 0.12715E+01    rms(broyden)= 0.12711E+01
  rms(prec ) = 0.14673E+01
  weight for this iteration     100.00

 eigenvalues of (default mixing * dielectric matrix)
  average eigenvalue GAMMA=   0.4584
  1.3900  1.1425  1.1425  0.5658  0.5658  0.5364  0.3594  0.3594  0.2750  0.2275
  0.1731  0.1522  0.0926  0.1287  0.1055  0.1174

 Free energy of the ion-electron system (eV)
  ---------------------------------------------------
  alpha Z        PSCENC =      1918.83428665
  Ewald energy   TEWEN  =    -35949.51243087
  -Hartree energ DENC   =    -19144.31910511
  -exchange      EXHF   =         0.00000000
  -V(xc)+E(xc)   XCENC  =      2516.08737542
  PAW double counting   =     60053.53871313   -62183.68482639
  entropy T*S    EENTRO =         0.09609057
  eigenvalues    EBANDS =     -2103.14121345
  atomic energy  EATOM  =     54345.74550241
  Solvation  Ediel_sol  =         0.00000000
  ---------------------------------------------------
  free energy    TOTEN  =      -546.35560764 eV

  energy without entropy =     -546.45169820  energy(sigma->0) =     -546.38763783


--------------------------------------------------------------------------------------------------------




--------------------------------------- Iteration      1(  22)  ---------------------------------------


    POTLOK:  cpu time    0.3056: real time    0.3063
    SETDIJ:  cpu time    0.0346: real time    0.0346
     EDDAV:  cpu time   74.2208: real time   74.4040
    CHARGE:  cpu time    1.9243: real time    1.9289
    MIXING:  cpu time    0.0098: real time    0.0099
    --------------------------------------------
      LOOP:  cpu time   76.4951: real time   76.6837

 eigenvalue-minimisations  :  8944
 total energy-change (2. order) :-0.2540777E+01  (-0.4539543E+00)
 number of electron     623.9999820 magnetization      16.1249469
 augmentation part      206.0095256 magnetization      13.0969436

 Broyden mixing:
  rms(total) = 0.13975E+01    rms(broyden)= 0.13972E+01
  rms(prec ) = 0.15914E+01
  weight for this iteration     100.00

 eigenvalues of (default mixing * dielectric matrix)
  average eigenvalue GAMMA=   0.4721
  1.4585  1.2126  1.2126  0.6474  0.6474  0.5529  0.3896  0.3896  0.3316  0.2524
  0.1929  0.1508  0.1508  0.0926  0.1244  0.1052  0.1151

 Free energy of the ion-electron system (eV)
  ---------------------------------------------------
  alpha Z        PSCENC =      1918.83428665
  Ewald energy   TEWEN  =    -35949.51243087
  -Hartree energ DENC   =    -19142.67795094
  -exchange      EXHF   =         0.00000000
  -V(xc)+E(xc)   XCENC  =      2515.01656053
  PAW double counting   =     60178.98135547   -62310.73132215
  entropy T*S    EENTRO =         0.07008036
  eigenvalues    EBANDS =     -2104.62246579
  atomic energy  EATOM  =     54345.74550241
  Solvation  Ediel_sol  =         0.00000000
  ---------------------------------------------------
  free energy    TOTEN  =      -548.89638432 eV

  energy without entropy =     -548.96646468  energy(sigma->0) =     -548.91974444


--------------------------------------------------------------------------------------------------------




--------------------------------------- Iteration      1(  23)  ---------------------------------------


    POTLOK:  cpu time    0.2825: real time    0.2832
    SETDIJ:  cpu time    0.0335: real time    0.0336
     EDDAV:  cpu time   69.9179: real time   70.0864
    CHARGE:  cpu time    1.9206: real time    1.9251
    MIXING:  cpu time    0.0115: real time    0.0115
    --------------------------------------------
      LOOP:  cpu time   72.1660: real time   72.3398

 eigenvalue-minimisations  :  8320
 total energy-change (2. order) :-0.2513090E+01  (-0.8260447E+00)
 number of electron     623.9999819 magnetization      14.1915579
 augmentation part      205.9197808 magnetization      11.0440302

 Broyden mixing:
  rms(total) = 0.13242E+01    rms(broyden)= 0.13239E+01
  rms(prec ) = 0.15133E+01
  weight for this iteration     100.00

 eigenvalues of (default mixing * dielectric matrix)
  average eigenvalue GAMMA=   0.4802
  1.5356  1.2285  1.2285  0.7907  0.7907  0.4571  0.4571  0.3828  0.3828  0.2904
  0.2028  0.1683  0.1683  0.1319  0.1242  0.0926  0.1072  0.1037

 Free energy of the ion-electron system (eV)
  ---------------------------------------------------
  alpha Z        PSCENC =      1918.83428665
  Ewald energy   TEWEN  =    -35949.51243087
  -Hartree energ DENC   =    -19136.42813452
  -exchange      EXHF   =         0.00000000
  -V(xc)+E(xc)   XCENC  =      2513.83317625
  PAW double counting   =     60311.82622858   -62445.31333633
  entropy T*S    EENTRO =         0.04441862
  eigenvalues    EBANDS =     -2110.43918522
  atomic energy  EATOM  =     54345.74550241
  Solvation  Ediel_sol  =         0.00000000
  ---------------------------------------------------
  free energy    TOTEN  =      -551.40947442 eV

  energy without entropy =     -551.45389304  energy(sigma->0) =     -551.42428063


--------------------------------------------------------------------------------------------------------




--------------------------------------- Iteration      1(  24)  ---------------------------------------


    POTLOK:  cpu time    0.3093: real time    0.3100
    SETDIJ:  cpu time    0.0321: real time    0.0322
     EDDAV:  cpu time   71.6397: real time   71.8101
    CHARGE:  cpu time    1.9323: real time    1.9369
    MIXING:  cpu time    0.0110: real time    0.0110
    --------------------------------------------
      LOOP:  cpu time   73.9243: real time   74.1002

 eigenvalue-minimisations  :  8560
 total energy-change (2. order) :-0.1053389E+01  (-0.3078063E+00)
 number of electron     623.9999820 magnetization      11.7060893
 augmentation part      205.9462649 magnetization       8.8285606

 Broyden mixing:
  rms(total) = 0.94892E+00    rms(broyden)= 0.94877E+00
  rms(prec ) = 0.11001E+01
  weight for this iteration     100.00

 eigenvalues of (default mixing * dielectric matrix)
  average eigenvalue GAMMA=   0.5008
  1.8434  1.1319  1.1319  1.0978  0.7428  0.5736  0.5736  0.3782  0.3646  0.3646
  0.2346  0.1919  0.1592  0.1592  0.1377  0.1241  0.0926  0.1044  0.1083

 Free energy of the ion-electron system (eV)
  ---------------------------------------------------
  alpha Z        PSCENC =      1918.83428665
  Ewald energy   TEWEN  =    -35949.51243087
  -Hartree energ DENC   =    -19129.07438594
  -exchange      EXHF   =         0.00000000
  -V(xc)+E(xc)   XCENC  =      2512.98198414
  PAW double counting   =     60383.95039758   -62518.31952731
  entropy T*S    EENTRO =         0.09070117
  eigenvalues    EBANDS =     -2117.15939098
  atomic energy  EATOM  =     54345.74550241
[...]
   0.472E+02 -.341E+03 0.402E+02   -.519E+02 0.362E+03 -.422E+02   0.436E+01 -.205E+02 0.146E+01   -.552E-03 0.428E-01 0.303E-02
   0.282E+02 0.365E+03 -.363E+01   -.310E+02 -.387E+03 0.428E+01   0.255E+01 0.220E+02 -.733E+00   -.352E-02 -.573E-01 0.172E-02
   -.232E+01 -.369E+03 -.390E+02   0.218E+01 0.390E+03 0.437E+02   0.126E+00 -.207E+02 -.504E+01   0.604E-02 -.912E-01 -.873E-02
   0.477E+01 0.361E+03 0.442E+02   -.428E+01 -.382E+03 -.458E+02   -.833E+00 0.203E+02 0.191E+01   0.776E-02 0.301E-01 0.127E-01
   0.665E+01 -.340E+03 -.659E+02   -.778E+01 0.361E+03 0.728E+02   0.144E+01 -.216E+02 -.659E+01   -.202E-01 0.265E-01 0.180E-01
   -.162E+01 0.340E+03 0.569E+02   0.155E+01 -.360E+03 -.632E+02   0.249E-01 0.207E+02 0.634E+01   -.501E-02 0.655E-01 0.157E-01
   0.218E+02 -.290E+03 -.318E+02   -.246E+02 0.305E+03 0.343E+02   0.220E+01 -.156E+02 -.203E+01   0.297E-01 0.388E-01 0.170E-01
   -.749E+01 0.376E+03 0.479E+02   0.861E+01 -.397E+03 -.519E+02   -.194E+01 0.209E+02 0.334E+01   -.285E-01 -.836E-01 0.154E-01
   -.313E+02 -.366E+03 0.158E+02   0.336E+02 0.387E+03 -.168E+02   -.225E+01 -.216E+02 0.950E+00   -.513E-01 -.694E-01 0.459E-01
   0.312E+01 0.302E+03 -.343E+02   -.270E+01 -.321E+03 0.381E+02   0.332E+00 0.200E+02 -.332E+01   0.290E-01 0.480E-01 0.597E-02
   -.187E+02 -.301E+03 0.489E+02   0.199E+02 0.321E+03 -.533E+02   -.437E+00 -.203E+02 0.392E+01   0.193E-01 0.501E-01 0.109E-02
   -.330E+02 0.337E+03 -.229E+02   0.352E+02 -.359E+03 0.241E+02   -.214E+01 0.223E+02 -.123E+01   -.483E-01 0.380E-02 0.302E-01
 -----------------------------------------------------------------------------------------------
   -.115E+02 -.301E+01 -.448E+01   0.206E-12 0.227E-12 -.117E-12   0.115E+02 0.291E+01 0.448E+01   -.207E-01 0.971E-01 -.127E-02
 
 
 POSITION                                       TOTAL-FORCE (eV/Angst)
 -----------------------------------------------------------------------------------
      8.35999      7.17501      0.00074         0.036714     -0.000684     -0.018708
      1.37260     11.93290      0.82088        -0.166239     -0.030713      0.016014
     -2.81038      2.35593      6.49127        -0.027848      0.063494      0.052430
      5.78398      7.13143      4.52346        -0.102006      0.018756      0.250436
      1.59701      7.17059      2.78437        -0.054613      0.099773     -0.156980
      1.45782     11.95061      5.71394         0.299302     -0.001709      0.060272
      1.41352      2.34697      4.04772        -0.026477      0.011676      0.024449
      5.60221     11.94174      3.26038        -0.005328     -0.031161     -0.033981
      5.61505      2.35961      1.59681         0.047944     -0.006190     -0.026456
      0.96454      7.14192      7.30056        -0.025677      0.405742     -0.100326
      4.18033     14.28570      7.30250         0.641430     -0.340288     -0.156298
      1.38320      4.82935      0.89068         0.259056      0.696681     -1.209636
     -2.81570      9.46821      6.42154        -0.289846     -0.793809      1.439164
     -2.78473     -0.03519      4.86016         0.015619     -0.502541      0.425179
     -1.43695      4.75673      5.68165         0.054672     -0.627320     -0.268877
     -1.34667      9.61352      4.01860        -0.085743     -0.497883     -0.392093
     -1.37415     14.31792      2.43600        -0.287111     -0.406019      0.442622
      0.02883      4.76319      3.22833         0.255641     -0.081191     -0.059110
      0.01250      9.48718      1.66458        -0.870544     -0.492565     -0.482762
      1.39885     14.31504      2.43801        -0.012029      0.004270     -0.089888
      2.84779      4.69427      3.28099        -0.297302      0.509848     -0.308806
      2.75327      9.54925      1.63031         0.566577      0.178600      0.441633
     -1.38440     14.27939      7.30559        -0.186965     -0.121853     -0.006847
      4.12974      4.69915      0.81920         0.435413      0.834737     -0.014703
     -0.42341     10.18283      6.30418         4.660871     -2.223333      0.276264
     -0.01351     14.29505      4.87694         0.220008     -0.115664      0.050013
      1.37530      4.75094      5.69230         0.125598     -0.378322      0.683379
      1.42716      9.66680      4.05937        -0.202848     -1.741665      1.408564
      2.81121     14.30026      4.87116        -0.327345     -0.065544      0.018233
      4.20543      4.81405      5.64630        -0.737288      0.592107      0.489155
      4.22321      9.54054      4.08908         0.018281     -0.073776     -0.029421
      4.18146     14.32207      2.43951         0.210823     -0.275920      0.034457
      5.62108      4.63893      3.25532        -0.016507      1.339602     -1.087984
      5.57082      9.55915      1.62296        -0.849870      0.118727     -1.258837
      1.39351     14.28775      7.30637         0.079457     -0.130358      0.161834
      6.92139      4.85965      0.77932         0.948053      0.663372      0.525343
      2.74075      9.44662      6.52990        -0.504072     -0.723689     -0.806102
      0.02850     10.36703      0.04314        -0.294413      0.005466     -0.086995
      4.21057      3.93876      7.26847        -0.273135      0.153334      0.235373
      1.40066      0.98152      0.69406        -0.014860     -0.116917     -0.110340
      1.36859      8.38193      1.04453         0.084618      0.807162     -0.511287
     -2.81922      5.91939      6.26922        -0.119222     -0.622261      0.345745
     -2.75236     13.24110      6.57351        -0.407330      0.770443      0.185923
     -2.75567     10.54374      4.84016        -0.207852      0.191664     -0.887005
     -2.81810      3.75795      4.92658         0.530687     -0.350606      0.370233
     -1.42673      0.89752      5.70692         0.175563      0.008780      0.035900
     -1.41787      8.59337      5.55807         0.078349      0.416326      0.110305
     -1.37227      5.62599      4.03649        -0.431852      0.353048      0.176409
     -1.41690     13.31238      4.08885         0.052549      0.605618     -0.651174
      6.97269     10.50250      2.40300         0.532826      0.199617     -0.242232
      7.00723      3.84952      2.31806         0.199346     -0.315839      0.190212
      0.02684      0.90676      3.28537        -0.006476     -0.026896     -0.095726
      0.08469      8.61621      3.30764        -0.347522      0.467668     -0.164760
      0.17951      5.93647      1.74050        -0.883935     -0.938878     -0.248542
      0.03301     13.38278      1.58871        -0.089765      0.042971      0.011742
      1.37050     10.54346      2.38605         0.360725      0.111258      0.029408
      1.42805      3.78270      2.48306        -0.143307     -0.391053      1.008585
      2.77002      0.90739      3.27683         0.010388     -0.005999     -0.033294
      2.81485      8.67867      3.28530         0.097583     -0.637105      0.073518
      2.79261      5.71480      1.73237         0.291876     -0.440505     -0.281785
      2.75873     13.36636      1.58818         0.197967      0.184266      0.098054
      2.63452     10.50558      0.03541        -4.346703      1.061710      4.939274
     -1.52807      3.81896      7.28633         0.025349     -0.417196     -0.071672
      4.21979      0.93014      0.84216        -0.094370      0.008071     -0.048772
      4.14045      8.68298      0.85446         0.334972     -0.242713      0.510040
     -0.05439      5.60181      6.50759         0.311089      0.521571      0.305423
      0.02572     13.32677      6.47366        -0.033029      0.046884      0.056455
      0.04708     10.62054      4.83573         1.551913      1.003818     -4.104389
      0.06622      3.74314      4.80426        -0.337476      0.120181      0.233118
      1.39142      0.94382      5.59288         0.043855     -0.130166     -0.263732
      1.31980      8.53374      5.74277         1.228504      1.260109     -1.099231
      1.43878      5.67030      4.09176        -0.054175      0.130081     -0.569603
      1.38934     13.29026      4.16111         0.167990      0.264417      0.244466
      2.82985     10.46500      4.98876         0.059541      0.229872     -0.188888
      2.77333      3.80822      4.91812         0.370673     -0.043616      0.031944
      4.23204      0.88980      5.70074        -0.141829      0.120390      0.026982
      4.36681      8.36866      5.57551        -1.123177      0.957888      0.252686
      4.28031      5.68589      3.99739        -0.386222     -0.378380      0.380687
      4.22850     13.35084      4.04789        -0.125487      0.178595     -0.179970
      4.25248     10.56511      2.52670        -0.319033     -0.174185     -0.571609
      4.24605      3.73602      2.41637        -0.306464     -0.167491     -0.079104
      5.60181      0.95760      3.17733        -0.017191     -0.105489     -0.274960
      5.63339      8.64254      3.22704        -0.339318     -0.247481      0.321390
      5.47169      5.77592      1.53100         0.282320     -0.793965      0.301051
      5.59612     13.32412      1.73322        -0.052349      0.241456      0.037718
      1.44385     10.53015      7.27946        -0.582573     -0.097666      0.477996
      5.59639      3.78921      0.05136        -0.851659     -0.008317     -0.631174
      6.95696      0.92610      0.83652         0.015740      0.127288      0.034839
      6.80131      8.41312      0.72064         0.783976      1.115501      0.495136
      2.59800      5.88986      6.59619         0.748920     -0.898375     -0.423876
      2.77064     13.35227      6.47185        -0.006393     -0.029543      0.007879
 -----------------------------------------------------------------------------------
    total drift:                                0.002201      0.005734     -0.000360


--------------------------------------------------------------------------------------------------------



  FREE ENERGIE OF THE ION-ELECTRON SYSTEM (eV)
  ---------------------------------------------------
  free  energy   TOTEN  =      -553.7403278428 eV

  energy  without entropy=     -553.8201511936  energy(sigma->0) =     -553.76693563
 


--------------------------------------------------------------------------------------------------------


    POTLOK:  cpu time    0.3347: real time    0.3355


--------------------------------------------------------------------------------------------------------


     LOOP+:  cpu time 3874.3956: real time 3883.7849
    4ORBIT:  cpu time    0.0000: real time    0.0000

volume of typ            1:     8.9 %

volume of typ            2:    19.6 %

volume of typ            3:    10.0 %
 
total charge     
 
# of ion       s       p       d       tot
------------------------------------------
    1        2.066   0.224   0.087   2.378
    2        2.069   0.227   0.088   2.385
    3        2.065   0.213   0.081   2.359
    4        2.079   0.248   0.097   2.424
    5        2.077   0.246   0.097   2.419
    6        2.074   0.241   0.095   2.409
    7        2.069   0.223   0.085   2.377
    8        2.074   0.237   0.093   2.404
    9        2.067   0.221   0.085   2.373
   10        2.074   0.243   0.094   2.411
   11        0.293   0.400   7.824   8.517
   12        0.288   0.381   7.856   8.524
   13        0.287   0.385   7.870   8.543
   14        0.287   0.385   7.841   8.513
   15        0.292   0.400   7.829   8.521
   16        0.299   0.416   7.847   8.562
   17        0.292   0.397   7.821   8.511
   18        0.294   0.406   7.825   8.525
   19        0.289   0.384   7.838   8.511
   20        0.281   0.371   7.844   8.497
   21        0.296   0.406   7.830   8.532
   22        0.288   0.394   7.837   8.519
   23        0.297   0.408   7.822   8.527
   24        0.293   0.399   7.825   8.517
   25        0.320   0.460   7.988   8.768
   26        0.298   0.411   7.821   8.530
   27        0.292   0.401   7.829   8.523
   28        0.288   0.390   7.839   8.517
   29        0.296   0.406   7.824   8.526
   30        0.288   0.382   7.842   8.512
   31        0.294   0.406   7.821   8.521
   32        0.294   0.400   7.820   8.514
   33        0.291   0.391   7.845   8.526
   34        0.291   0.400   7.810   8.502
   35        0.283   0.374   7.845   8.502
   36        0.287   0.381   7.843   8.511
   37        0.288   0.380   7.823   8.491
   38        1.268   2.773   0.008   4.048
   39        1.269   2.767   0.008   4.044
   40        1.276   2.745   0.007   4.028
   41        1.273   2.742   0.006   4.020
   42        1.273   2.744   0.006   4.023
   43        1.279   2.730   0.006   4.014
   44        1.276   2.752   0.007   4.036
   45        1.275   2.757   0.008   4.039
   46        1.272   2.759   0.008   4.039
   47        1.278   2.742   0.007   4.028
   48        1.268   2.781   0.008   4.057
   49        1.273   2.751   0.007   4.030
   50        1.270   2.767   0.008   4.045
   51        1.269   2.767   0.008   4.044
   52        1.271   2.762   0.008   4.040
   53        1.274   2.756   0.008   4.038
   54        1.271   2.751   0.006   4.028
   55        1.271   2.762   0.008   4.041
   56        1.273   2.757   0.008   4.038
   57        1.275   2.755   0.008   4.038
   58        1.270   2.765   0.008   4.042
   59        1.270   2.780   0.008   4.058
   60        1.275   2.752   0.008   4.035
   61        1.272   2.756   0.007   4.035
   62        1.269   2.851   0.016   4.136
   63        1.267   2.774   0.008   4.050
   64        1.271   2.761   0.007   4.039
   65        1.274   2.749   0.006   4.030
   66        1.270   2.779   0.008   4.056
   67        1.271   2.761   0.007   4.040
   68        1.272   2.818   0.014   4.103
   69        1.278   2.736   0.006   4.021
   70        1.277   2.742   0.007   4.026
   71        1.285   2.690   0.004   3.979
   72        1.276   2.757   0.007   4.040
   73        1.277   2.742   0.006   4.025
   74        1.270   2.761   0.008   4.039
   75        1.272   2.760   0.008   4.040
   76        1.271   2.763   0.008   4.041
   77        1.272   2.749   0.006   4.027
   78        1.274   2.760   0.008   4.041
   79        1.272   2.757   0.007   4.037
   80        1.277   2.734   0.006   4.018
   81        1.270   2.763   0.008   4.041
   82        1.277   2.742   0.007   4.026
   83        1.275   2.761   0.008   4.043
   84        1.281   2.728   0.006   4.015
   85        1.277   2.741   0.007   4.025
   86        1.280   2.709   0.005   3.995
   87        1.277   2.742   0.007   4.026
   88        1.272   2.760   0.007   4.039
   89        1.272   2.743   0.005   4.020
   90        1.272   2.747   0.006   4.025
   91        1.271   2.767   0.008   4.045
--------------------------------------------------
tot          97.36  161.86  212.96  472.17
 
magnetization (x)
 
# of ion       s       p       d       tot
------------------------------------------
    1        0.001   0.001   0.000   0.002
    2        0.002   0.004   0.001   0.006
    3        0.003   0.007   0.001   0.011
    4        0.001   0.003   0.001   0.004
    5        0.003   0.006   0.001   0.009
    6        0.002   0.004   0.001   0.007
    7        0.004   0.009   0.001   0.014
    8        0.004   0.008   0.001   0.013
    9        0.003   0.006   0.001   0.009
   10        0.002   0.004   0.000   0.007
   11       -0.001  -0.000   0.090   0.089
   12        0.003   0.003   0.584   0.591
   13        0.003   0.003   0.522   0.528
   14        0.001  -0.000   0.455   0.456
   15       -0.000   0.001   0.171   0.171
   16       -0.000  -0.000   0.037   0.037
   17       -0.001  -0.000   0.070   0.069
   18       -0.001   0.000   0.079   0.078
   19        0.000   0.001   0.178   0.179
   20        0.002  -0.000   0.573   0.574
   21       -0.001  -0.000   0.080   0.078
   22       -0.000   0.000   0.044   0.043
   23       -0.001   0.000   0.044   0.043
   24       -0.001  -0.000   0.086   0.085
   25        0.000  -0.001  -0.093  -0.094
   26       -0.001  -0.000   0.040   0.039
   27       -0.000  -0.000   0.201   0.201
   28       -0.000  -0.000   0.035   0.035
   29       -0.001  -0.000   0.050   0.049
   30       -0.000   0.002   0.264   0.266
   31       -0.000  -0.000   0.020   0.019
   32       -0.001  -0.000   0.070   0.069
   33        0.000   0.000   0.375   0.375
   34       -0.000   0.000   0.010   0.010
   35        0.002  -0.000   0.541   0.542
   36        0.000   0.003   0.303   0.306
   37       -0.000   0.000   0.012   0.012
   38        0.002   0.003   0.000   0.005
   39        0.003   0.002   0.000   0.006
   40        0.007   0.094   0.000   0.102
   41        0.005   0.070   0.000   0.074
   42        0.006   0.101   0.000   0.107
   43        0.006   0.088   0.000   0.095
   44        0.007   0.105   0.000   0.112
   45        0.009   0.119   0.000   0.128
   46        0.002   0.002   0.000   0.004
   47        0.000   0.004   0.000   0.004
   48        0.002   0.002   0.000   0.005
   49        0.002   0.009   0.000   0.010
   50        0.001   0.001   0.000   0.002
   51        0.002   0.001   0.000   0.003
   52        0.002   0.007   0.000   0.009
   53        0.001   0.001   0.000   0.001
   54        0.003   0.032   0.000   0.035
   55        0.002   0.010   0.000   0.012
   56        0.003   0.041   0.000   0.043
   57        0.008   0.118   0.000   0.126
   58        0.002   0.006   0.000   0.008
   59        0.001  -0.001   0.000  -0.001
   60        0.002   0.019   0.000   0.021
   61        0.002   0.011   0.000   0.013
   62        0.001  -0.002  -0.000  -0.002
   63        0.002   0.004   0.000   0.007
   64        0.002   0.004   0.000   0.006
   65        0.000  -0.007   0.000  -0.007
   66        0.002  -0.001   0.000   0.001
   67        0.002   0.006   0.000   0.007
   68        0.000  -0.005  -0.000  -0.005
   69        0.005   0.025   0.000   0.030
   70        0.007   0.086   0.000   0.094
   71       -0.000  -0.025   0.000  -0.025
   72        0.005   0.033   0.000   0.038
   73        0.007   0.097   0.000   0.104
   74        0.000  -0.002   0.000  -0.002
   75        0.002   0.006   0.000   0.008
   76        0.002   0.001   0.000   0.003
   77        0.001   0.013   0.000   0.014
   78        0.001   0.015   0.000   0.017
   79        0.002   0.008   0.000   0.010
   80        0.001   0.001   0.000   0.002
   81        0.002   0.023   0.000   0.026
   82        0.007   0.081   0.000   0.088
   83        0.000   0.003   0.000   0.004
   84        0.005   0.070   0.000   0.074
   85        0.007   0.089   0.000   0.096
   86        0.000   0.002   0.000   0.003
   87        0.007   0.099   0.000   0.106
   88        0.003   0.019   0.000   0.022
   89        0.002   0.014   0.000   0.015
   90        0.003   0.025   0.000   0.028
   91        0.002   0.007   0.000   0.009
--------------------------------------------------
tot           0.19    1.59    4.85    6.63
 

 total amount of memory used by VASP MPI-rank0   246523. kBytes
=======================================================================

   base      :      30000. kBytes
   nonl-proj :      71270. kBytes
   fftplans  :       9349. kBytes
   grid      :      55332. kBytes
   one-center:       2830. kBytes
   wavefun   :      77742. kBytes
 
  
  
 General timing and accounting informations for this job:
 ========================================================
  
                  Total CPU time used (sec):     3913.658
                            User time (sec):     3907.580
                          System time (sec):        6.078
                         Elapsed time (sec):     3927.722
  
                   Maximum memory used (kb):      318224.
                   Average memory used (kb):           0.
  
                          Minor page faults:        39078
                          Major page faults:           18
                 Voluntary context switches:         1162
