 vasp.5.4.4.18Apr17-6-g9f103f2a35 (build May 12 2020 04:58:55) complex          
  
 MD_VERSION_INFO: Compiled 2020-05-12T11:58:55-UTC in devlin.sd.materialsdesign.
 com:/home/medea2/data/build/wwolf/vasp-gpu5.4.4/13047/x86_64/src/src/build/std 
 from svn 13047
 
 This VASP executable licensed from Materials Design, Inc.
 
 executed on                        Lin64 date 2023.03.23  16:42:57
 running on   16 total cores
 distrk:  each k-point on   16 cores,    1 groups
 distr:  one band on NCORES_PER_BAND=   1 cores,   16 groups


--------------------------------------------------------------------------------------------------------


 INCAR:
 POTCAR:    PAW_PBE Ni 02Aug2007                  
 POTCAR:    PAW_PBE O 08Apr2002                   

 ----------------------------------------------------------------------------- 
|                                                                             |
|           W    W    AA    RRRRR   N    N  II  N    N   GGGG   !!!           |
|           W    W   A  A   R    R  NN   N  II  NN   N  G    G  !!!           |
|           W    W  A    A  R    R  N N  N  II  N N  N  G       !!!           |
|           W WW W  AAAAAA  RRRRR   N  N N  II  N  N N  G  GGG   !            |
|           WW  WW  A    A  R   R   N   NN  II  N   NN  G    G                |
|           W    W  A    A  R    R  N    N  II  N    N   GGGG   !!!           |
|                                                                             |
|      For optimal performance we recommend to set                            |
|        NCORE= 4 - approx SQRT( number of cores)                             |
|      NCORE specifies how many cores store one orbital (NPAR=cpu/NCORE).     |
|      This setting can  greatly improve the performance of VASP for DFT.     |
|      The default,   NCORE=1            might be grossly inefficient         |
|      on modern multi-core architectures or massively parallel machines.     |
|      Do your own testing !!!!                                               |
|      Unfortunately you need to use the default for GW and RPA calculations. |
|      (for HF NCORE is supported but not extensively tested yet)             |
|                                                                             |
 ----------------------------------------------------------------------------- 

 POTCAR:    PAW_PBE Ni 02Aug2007                  
  local pseudopotential read in
  partial core-charges read in
  partial kinetic energy density read in
  atomic valenz-charges read in
  non local Contribution for L=           2  read in
    real space projection operators read in
  non local Contribution for L=           2  read in
    real space projection operators read in
  non local Contribution for L=           0  read in
    real space projection operators read in
  non local Contribution for L=           0  read in
    real space projection operators read in
  non local Contribution for L=           1  read in
    real space projection operators read in
  non local Contribution for L=           1  read in
    real space projection operators read in
    PAW grid and wavefunctions read in
 
   number of l-projection  operators is LMAX  =           6
   number of lm-projection operators is LMMAX =          18
 
 POTCAR:    PAW_PBE O 08Apr2002                   
  local pseudopotential read in
  partial core-charges read in
  partial kinetic energy density read in
  kinetic energy density of atom read in
  atomic valenz-charges read in
  non local Contribution for L=           0  read in
    real space projection operators read in
  non local Contribution for L=           0  read in
    real space projection operators read in
  non local Contribution for L=           1  read in
    real space projection operators read in
  non local Contribution for L=           1  read in
    real space projection operators read in
    PAW grid and wavefunctions read in
 
   number of l-projection  operators is LMAX  =           4
   number of lm-projection operators is LMMAX =           8
 
 Optimization of the real space projectors (new method)

 maximal supplied QI-value         = 16.25
 optimisation between [QCUT,QGAM] = [ 11.38, 22.75] = [ 36.24,144.96] Ry 
 Optimized for a Real-space Cutoff    1.47 Angstroem

   l    n(q)    QCUT    max X(q) W(low)/X(q) W(high)/X(q)  e(spline) 
   2      9    11.376    60.317    0.17E-03    0.16E-04    0.16E-06
   2      9    11.376    55.921    0.17E-03    0.16E-04    0.17E-06
   0     10    11.376    51.690    0.45E-04    0.60E-04    0.21E-06
   0     10    11.376    30.015    0.37E-04    0.55E-04    0.19E-06
   1     10    11.376    18.849    0.83E-04    0.11E-03    0.92E-07
   1     10    11.376    14.624    0.69E-04    0.92E-04    0.82E-07
 Optimization of the real space projectors (new method)

 maximal supplied QI-value         = 24.76
 optimisation between [QCUT,QGAM] = [ 11.39, 22.77] = [ 36.31,145.25] Ry 
 Optimized for a Real-space Cutoff    1.10 Angstroem

   l    n(q)    QCUT    max X(q) W(low)/X(q) W(high)/X(q)  e(spline) 
   0      7    11.387    20.381    0.22E-03    0.48E-03    0.18E-06
   0      7    11.387    15.268    0.22E-03    0.52E-03    0.19E-06
   1      7    11.387     5.964    0.22E-03    0.73E-03    0.24E-06
   1      7    11.387     5.382    0.19E-03    0.60E-03    0.21E-06

 ----------------------------------------------------------------------------- 
|                                                                             |
|  ADVICE TO THIS USER RUNNING 'VASP/VAMP'   (HEAR YOUR MASTER'S VOICE ...):  |
|                                                                             |
|      You enforced a specific xc-type in the INCAR file,                     |
|      a different type was found on the POTCAR file                          |
|          I HOPE YOU KNOW, WHAT YOU ARE  DOING                               |
|                                                                             |
 ----------------------------------------------------------------------------- 

  PAW_PBE Ni 02Aug2007                  :
 energy of atom  1       EATOM=-1077.6739
 kinetic energy error for atom=    0.0030 (will be added to EATOM!!)
  PAW_PBE O 08Apr2002                   :
 energy of atom  2       EATOM= -432.3788
 kinetic energy error for atom=    0.0224 (will be added to EATOM!!)
 
 
 POSCAR: NiO_Fm-3m_scale_1_050_disp_0_20_round_1 
  positions in direct lattice
  No initial velocities read in
 exchange correlation table for  LEXCH =       14
   RHO(1)=    0.500       N(1)  =     2000
   RHO(2)=  100.500       N(2)  =     4000
 


--------------------------------------------------------------------------------------------------------


 ion  position               nearest neighbor table
   1  0.033  0.005  0.997-  34 1.86  35 2.01  36 2.14  43 2.39  40 2.46   3 2.67   4 2.69   7 2.84
                            12 2.87
   2  0.003  0.252  0.294-  39 1.45  33 1.78  44 2.29  36 2.49   8 2.55   5 2.67  24 2.72  13 2.76
                            11 2.89
   3  0.194  0.944  0.253-  36 1.62  38 1.92  41 1.97  34 2.04   1 2.67  12 2.77  26 2.83   5 2.94
                            16 2.98  10 3.01
   4  0.243  0.234  0.018-  35 1.89  33 2.14  34 2.22  51 2.24  42 2.31   1 2.69  17 2.76  25 2.90
                            22 2.95  18 2.98  11 3.06
   5  0.013  0.045  0.524-  40 1.69  38 1.91  39 2.02   6 2.56   2 2.67   7 2.68   8 2.73  24 2.90
                             3 2.94
   6  0.013  0.261  0.727-  37 1.79  48 2.04  40 2.08  35 2.15  39 2.32  15 2.36  13 2.50   5 2.56
                             9 2.93
   7  0.217  0.938  0.733-  45 1.81  40 2.15  37 2.38  38 2.43  14 2.67   5 2.68   1 2.84  12 3.07

   8  0.250  0.244  0.455-  33 1.71  38 2.00  46 2.00  39 2.34  37 2.35  55 2.51   2 2.55  18 2.62
                            15 2.67  11 2.70   5 2.73  13 2.97
   9  0.991  0.493  0.973-  42 1.99  43 2.06  48 2.14  35 2.24  44 2.32  58 2.41  10 2.61  12 2.80
                            14 2.82   6 2.93  28 2.99
  10  0.976  0.674  0.216-  44 1.45  43 1.97  47 2.12  41 2.31  57 2.42   9 2.61  12 2.70  11 2.78
                            28 2.78   3 3.01  27 3.03
  11  0.236  0.490  0.264-  46 1.74  60 1.89  44 1.95  41 2.03  33 2.05  42 2.41  16 2.47   8 2.70
                            26 2.77  10 2.78   2 2.89  29 2.94  12 2.94  13 3.06   4 3.06
  12  0.212  0.726  0.018-  43 1.77  42 1.98  59 2.12  34 2.19  41 2.44  26 2.55  10 2.70   3 2.77
                             9 2.80   1 2.87  11 2.94  14 3.05  17 3.07   7 3.07
  13  0.001  0.471  0.527-  48 1.72  39 1.85  46 1.92  47 2.12  62 2.20  15 2.25   6 2.50  44 2.50
                             2 2.76  14 2.82  16 2.93   8 2.97  11 3.06
  14  0.998  0.720  0.737-  48 1.93  45 2.12  43 2.25  47 2.47  61 2.48   7 2.67  13 2.82   9 2.82
                            15 3.00  12 3.05
  15  0.208  0.449  0.684-  46 1.91  48 1.97  37 2.06  64 2.19  13 2.25   6 2.36  45 2.47   8 2.67
                            16 2.77  22 2.95  14 3.00
  16  0.258  0.685  0.473-  41 1.55  46 1.87  47 1.97  63 1.99  45 2.05  11 2.47  15 2.77  26 2.81
                            13 2.93  29 2.95   3 2.98
  17  0.449  0.991  0.007-  34 1.78  52 2.12  56 2.20  51 2.29  50 2.36   4 2.76  18 2.77  26 2.82
                            20 2.95  22 2.99  19 3.03  12 3.07
  18  0.477  0.179  0.266-  52 1.49  55 1.91  49 1.91  60 2.36  21 2.41  33 2.42  51 2.48  19 2.57
                             8 2.62  24 2.64  17 2.77   4 2.98  29 3.05  20 3.07
  19  0.719  0.009  0.230-  52 1.92  49 2.12  50 2.23  54 2.31  24 2.46  36 2.51  18 2.57  20 2.70
                            21 2.76  17 3.03
  20  0.705  0.217  0.996-  51 1.79  49 1.96  50 2.06  58 2.51  19 2.70  25 2.75  17 2.95  22 2.98
                            18 3.07
  21  0.501  0.981  0.461-  54 1.80  52 1.86  55 2.15  18 2.41  38 2.42  63 2.43  24 2.74  19 2.76
                            32 2.76  23 2.78
  22  0.458  0.226  0.753-  51 2.08  56 2.09  37 2.12  64 2.15  53 2.40  55 2.52  31 2.91   4 2.95
                            15 2.95  20 2.98  17 2.99  23 3.00  25 3.04
  23  0.702  0.982  0.712-  56 1.72  54 1.88  53 1.95  61 2.16  50 2.26  40 2.45  21 2.78  30 2.92
                            32 2.95  22 3.00  24 3.03
  24  0.728  0.202  0.439-  55 1.67  54 1.73  53 1.97  49 2.00  39 2.25  19 2.46  18 2.64   2 2.72
                            21 2.74   5 2.90  27 2.97  29 2.98  23 3.03
  25  0.495  0.456  0.018-  51 1.79  60 1.93  58 1.96  59 1.96  42 2.42  27 2.65  20 2.75  31 2.89
                             4 2.90  26 2.93  28 3.02  22 3.04
  26  0.440  0.732  0.207-  59 1.74  41 2.03  57 2.24  63 2.40  60 2.46  52 2.46  12 2.55  11 2.77
                            16 2.81  17 2.82   3 2.83  25 2.93  27 2.96  29 3.00  28 3.00
  27  0.678  0.492  0.262-  62 1.81  57 1.82  29 1.94  60 2.02  49 2.11  58 2.11  25 2.65  32 2.80
                            28 2.93  26 2.96  24 2.97  10 3.03
  28  0.728  0.717  0.014-  57 1.65  58 1.82  50 2.31  59 2.40  43 2.42  10 2.78  27 2.93   9 2.99
                            26 3.00  25 3.02  30 3.04
  29  0.532  0.486  0.433-  60 1.86  63 1.93  27 1.94  62 1.96  55 2.27  64 2.45  32 2.63  11 2.94
                            16 2.95  24 2.98  26 3.00  31 3.01  18 3.05
  30  0.518  0.699  0.731-  61 1.71  64 2.04  63 2.20  45 2.42  31 2.43  59 2.50  56 2.51  32 2.73
                            23 2.92  28 3.04
  31  0.687  0.474  0.745-  64 1.98  61 2.27  58 2.41  30 2.43  53 2.45  25 2.89  22 2.91  29 3.01

  32  0.704  0.734  0.477-  63 1.88  61 1.98  62 2.10  54 2.39  57 2.41  29 2.63  30 2.73  21 2.76
                            27 2.80  23 2.95
  33  0.207  0.254  0.263-   8 1.71   2 1.78  11 2.05   4 2.14  18 2.42
  34  0.244  0.978  0.024-  17 1.78   1 1.86   3 2.04  12 2.19   4 2.22
  35  0.028  0.237  0.974-   4 1.89   1 2.01   6 2.15   9 2.24
  36  0.008  0.968  0.241-   3 1.62   1 2.14   2 2.49  19 2.51
  37  0.215  0.214  0.724-   6 1.79  15 2.06  22 2.12   8 2.35   7 2.38
  38  0.223  0.014  0.462-   5 1.91   3 1.92   8 2.00  21 2.42   7 2.43
  39  0.979  0.268  0.460-   2 1.45  13 1.85   5 2.02  24 2.25   6 2.32   8 2.34
  40  0.983  0.022  0.717-   5 1.69   6 2.08   7 2.15  23 2.45   1 2.46
  41  0.224  0.722  0.301-  16 1.55   3 1.97  11 2.03  26 2.03  10 2.31  12 2.44
  42  0.220  0.499  0.985-  12 1.98   9 1.99   4 2.31  11 2.41  25 2.42
  43  0.008  0.730  0.997-  12 1.77  10 1.97   9 2.06  14 2.25   1 2.39  28 2.42
  44  0.012  0.512  0.241-  10 1.45  11 1.95   2 2.29   9 2.32  13 2.50
  45  0.241  0.732  0.705-   7 1.81  16 2.05  14 2.12  30 2.42  15 2.47
  46  0.214  0.473  0.464-  11 1.74  16 1.87  15 1.91  13 1.92   8 2.00
  47  0.031  0.703  0.453-  16 1.97  13 2.12  10 2.12  14 2.47
  48  0.989  0.497  0.725-  13 1.72  14 1.93  15 1.97   6 2.04   9 2.14
  49  0.681  0.251  0.219-  18 1.91  20 1.96  24 2.00  27 2.11  19 2.12
  50  0.721  0.981  0.973-  20 2.06  19 2.23  23 2.26  28 2.31  17 2.36
  51  0.500  0.251  0.989-  25 1.79  20 1.79  22 2.08   4 2.24  17 2.29  18 2.48
  52  0.498  0.008  0.248-  18 1.49  21 1.86  19 1.92  17 2.12  26 2.46
  53  0.722  0.203  0.668-  23 1.95  24 1.97  22 2.40  31 2.45
  54  0.705  0.011  0.497-  24 1.73  21 1.80  23 1.88  19 2.31  32 2.39
  55  0.539  0.226  0.473-  24 1.67  18 1.91  21 2.15  29 2.27   8 2.51  22 2.52
  56  0.509  0.989  0.759-  23 1.72  22 2.09  17 2.20  30 2.51
  57  0.697  0.693  0.201-  28 1.65  27 1.82  26 2.24  32 2.41  10 2.42
  58  0.716  0.507  0.021-  28 1.82  25 1.96  27 2.11   9 2.41  31 2.41  20 2.51
  59  0.453  0.679  0.013-  26 1.74  25 1.96  12 2.12  28 2.40  30 2.50
  60  0.449  0.449  0.237-  29 1.86  11 1.89  25 1.93  27 2.02  18 2.36  26 2.46
  61  0.712  0.733  0.707-  30 1.71  32 1.98  23 2.16  31 2.27  14 2.48
  62  0.757  0.497  0.457-  27 1.81  29 1.96  32 2.10  13 2.20
  63  0.488  0.700  0.478-  32 1.88  29 1.93  16 1.99  30 2.20  26 2.40  21 2.43
  64  0.460  0.471  0.708-  31 1.98  30 2.04  22 2.15  15 2.19  29 2.45
 
  LATTYP: Found a simple cubic cell.
 ALAT       =     8.6308845000
  
  Lattice vectors:
  
 A1 = (   8.6308845000,   0.0000000000,   0.0000000000)
 A2 = (   0.0000000000,   8.6308845000,   0.0000000000)
 A3 = (   0.0000000000,   0.0000000000,   8.6308845000)


Analysis of symmetry for initial positions (statically):
=====================================================================
 Subroutine PRICEL returns:
 Original cell was already a primitive cell.
 

 Routine SETGRP: Setting up the symmetry group for a 
 simple cubic supercell.


 Subroutine GETGRP returns: Found  1 space group operations
 (whereof  1 operations were pure point group operations)
 out of a pool of 48 trial point group operations.


The static configuration has the point symmetry C_1 .


Analysis of symmetry for dynamics (positions and initial velocities):
=====================================================================
 Subroutine PRICEL returns:
 Original cell was already a primitive cell.
 

 Routine SETGRP: Setting up the symmetry group for a 
 simple cubic supercell.


 Subroutine GETGRP returns: Found  1 space group operations
 (whereof  1 operations were pure point group operations)
 out of a pool of 48 trial point group operations.


The dynamic configuration has the point symmetry C_1 .


Analysis of structural, dynamic, and magnetic symmetry:
=====================================================================
 Subroutine PRICEL returns:
 Original cell was already a primitive cell.
 

 Routine SETGRP: Setting up the symmetry group for a 
 simple cubic supercell.


 Subroutine GETGRP returns: Found  1 space group operations
 (whereof  1 operations were pure point group operations)
 out of a pool of 48 trial point group operations.


The magnetic configuration has the point symmetry C_1 .


 Subroutine INISYM returns: Found  1 space group operations
 (whereof  1 operations are pure point group operations),
 and found     1 'primitive' translations

 
 
 KPOINTS: Automatic mesh                          

Automatic generation of k-mesh.
Space group operators:
 irot       det(A)        alpha          n_x          n_y          n_z        tau_x        tau_y        tau_z
    1     1.000000     0.000000     1.000000     0.000000     0.000000     0.000000     0.000000     0.000000
 
 Subroutine IBZKPT returns following result:
 ===========================================
 
 Found     14 irreducible k-points:
 
 Following reciprocal coordinates:
            Coordinates               Weight
  0.000000  0.000000  0.000000      1.000000
  0.333333  0.000000  0.000000      2.000000
  0.000000  0.333333  0.000000      2.000000
  0.333333  0.333333  0.000000      2.000000
 -0.333333  0.333333  0.000000      2.000000
  0.000000  0.000000  0.333333      2.000000
  0.333333  0.000000  0.333333      2.000000
 -0.333333  0.000000  0.333333      2.000000
  0.000000  0.333333  0.333333      2.000000
  0.333333  0.333333  0.333333      2.000000
 -0.333333  0.333333  0.333333      2.000000
  0.000000 -0.333333  0.333333      2.000000
  0.333333 -0.333333  0.333333      2.000000
 -0.333333 -0.333333  0.333333      2.000000
 
 Following cartesian coordinates:
            Coordinates               Weight
  0.000000  0.000000  0.000000      1.000000
  0.038621  0.000000  0.000000      2.000000
  0.000000  0.038621  0.000000      2.000000
  0.038621  0.038621  0.000000      2.000000
 -0.038621  0.038621  0.000000      2.000000
  0.000000  0.000000  0.038621      2.000000
  0.038621  0.000000  0.038621      2.000000
 -0.038621  0.000000  0.038621      2.000000
  0.000000  0.038621  0.038621      2.000000
  0.038621  0.038621  0.038621      2.000000
 -0.038621  0.038621  0.038621      2.000000
  0.000000 -0.038621  0.038621      2.000000
  0.038621 -0.038621  0.038621      2.000000
 -0.038621 -0.038621  0.038621      2.000000
 


--------------------------------------------------------------------------------------------------------




 Dimension of arrays:
   k-points           NKPTS =     14   k-points in BZ     NKDIM =     14   number of bands    NBANDS=    352
   number of dos      NEDOS =    301   number of ions     NIONS =     64
   non local maximal  LDIM  =      6   non local SUM 2l+1 LMDIM =     18
   total plane-waves  NPLWV = 262144
   max r-space proj   IRMAX =   5524   max aug-charges    IRDMAX=  13415
   dimension x,y,z NGX =    64 NGY =   64 NGZ =   64
   dimension x,y,z NGXF=   128 NGYF=  128 NGZF=  128
   support grid    NGXF=   128 NGYF=  128 NGZF=  128
   ions per type =              32  32
   NGX,Y,Z   is equivalent  to a cutoff of  12.33, 12.33, 12.33 a.u.
   NGXF,Y,Z  is equivalent  to a cutoff of  24.66, 24.66, 24.66 a.u.

 SYSTEM =  unknown system                          
 POSCAR =  NiO_Fm-3m_scale_1_050_disp_0_20_round_1 

 Startparameter for this run:
   NWRITE =      1    write-flag & timer
   PREC   = accura    normal or accurate (medium, high low for compatibility)
   ISTART =      0    job   : 0-new  1-cont  2-samecut
   ICHARG =      2    charge: 1-file 2-atom 10-const
   ISPIN  =      2    spin polarized calculation?
   LNONCOLLINEAR =      F non collinear calculations
   LSORBIT =      F    spin-orbit coupling
   INIWAV =      1    electr: 0-lowe 1-rand  2-diag
   LASPH  =      F    aspherical Exc in radial PAW
   METAGGA=      F    non-selfconsistent MetaGGA calc.

 Electronic Relaxation 1
   ENCUT  =  500.0 eV  36.75 Ry    6.06 a.u.  15.74 15.74 15.74*2*pi/ulx,y,z
   ENINI  =  500.0     initial cutoff
   ENAUG  =  605.4 eV  augmentation charge cutoff
   NELM   =     80;   NELMIN=  2; NELMDL= -5     # of ELM steps 
   EDIFF  = 0.1E-04   stopping-criterion for ELM
   LREAL  =      T    real-space projection
   NLSPLINE    = F    spline interpolate recip. space projectors
   LCOMPAT=      F    compatible to vasp.4.4
   GGA_COMPAT  = T    GGA compatible to vasp.4.4-vasp.4.6
   LMAXPAW     = -100 max onsite density
   LMAXMIX     =    2 max onsite mixed and CHGCAR
   VOSKOWN=      1    Vosko Wilk Nusair interpolation
   ROPT   =   -0.00025  -0.00025
 Ionic relaxation
   EDIFFG = 0.1E-03   stopping-criterion for IOM
   NSW    =      0    number of steps for IOM
   NBLOCK =      1;   KBLOCK =      1    inner block; outer block 
   IBRION =     -1    ionic relax: 0-MD 1-quasi-New 2-CG
   NFREE  =      0    steps in history (QN), initial steepest desc. (CG)
   ISIF   =      2    stress and relaxation
   IWAVPR =     10    prediction:  0-non 1-charg 2-wave 3-comb
   ISYM   =      2    0-nonsym 1-usesym 2-fastsym
   LCORR  =      T    Harris-Foulkes like correction to forces

   POTIM  = 0.5000    time-step for ionic-motion
   TEIN   =    0.0    initial temperature
   TEBEG  =    0.0;   TEEND  =   0.0 temperature during run
   SMASS  =  -3.00    Nose mass-parameter (am)
   estimated Nose-frequenzy (Omega)   =  0.10E-29 period in steps =****** mass=  -0.170E-26a.u.
   SCALEE = 1.0000    scale energy and forces
   NPACO  =    256;   APACO  = 16.0  distance and # of slots for P.C.
   PSTRESS=    0.0 pullay stress

  Mass of Ions in am
   POMASS =  58.69 16.00
  Ionic Valenz
   ZVAL   =  10.00  6.00
  Atomic Wigner-Seitz radii
   RWIGS  =   1.15  0.73
  virtual crystal weights 
   VCA    =   1.00  1.00
   NELECT =     512.0000    total number of electrons
   NUPDOWN=      -1.0000    fix difference up-down

 DOS related values:
   EMIN   =  10.00;   EMAX   =-10.00  energy-range for DOS
   EFERMI =   0.00
   ISMEAR =     0;   SIGMA  =   0.05  broadening in eV -4-tet -1-fermi 0-gaus

 Electronic relaxation 2 (details)
   IALGO  =     38    algorithm
   LDIAG  =      T    sub-space diagonalisation (order eigenvalues)
   LSUBROT=      F    optimize rotation matrix (better conditioning)
   TURBO    =      0    0=normal 1=particle mesh
   IRESTART =      0    0=no restart 2=restart with 2 vectors
   NREBOOT  =      0    no. of reboots
   NMIN     =      0    reboot dimension
   EREF     =   0.00    reference energy to select bands
   IMIX   =      4    mixing-type and parameters
     AMIX     =   0.40;   BMIX     =  1.00
     AMIX_MAG =   1.60;   BMIX_MAG =  1.00
     AMIN     =   0.10
     WC   =   100.;   INIMIX=   1;  MIXPRE=   1;  MAXMIX= -45

 Intra band minimization:
   WEIMIN = 0.0000     energy-eigenvalue tresh-hold
   EBREAK =  0.71E-08  absolut break condition
   DEPER  =   0.30     relativ break condition  

   TIME   =   0.40     timestep for ELM

  volume/ion in A,a.u.               =      10.05        67.79
  Fermi-wavevector in a.u.,A,eV,Ry     =   1.517433  2.867533 31.328813  2.302603
  Thomas-Fermi vector in A             =   2.626689
 
 Write flags
   LWAVE        =      F    write WAVECAR
   LDOWNSAMPLE  =      F    k-point downsampling of WAVECAR
   LCHARG       =      T    write CHGCAR
   LVTOT        =      F    write LOCPOT, total local potential
   LVHAR        =      F    write LOCPOT, Hartree potential only
   LELF         =      F    write electronic localiz. function (ELF)
   LORBIT       =      0    0 simple, 1 ext, 2 COOP (PROOUT), +10 PAW based schemes


 Dipole corrections
   LMONO  =      F    monopole corrections only (constant potential shift)
   LDIPOL =      F    correct potential (dipole corrections)
   IDIPOL =      0    1-x, 2-y, 3-z, 4-all directions 
   EPSILON=  1.0000000 bulk dielectric constant

 Exchange correlation treatment:
   GGA     =    PS    GGA type
   LEXCH   =    14    internal setting for exchange type
   VOSKOWN=      1    Vosko Wilk Nusair interpolation
   LHFCALC =     F    Hartree Fock is set to
   LHFONE  =     F    Hartree Fock one center treatment
   AEXX    =    0.0000 exact exchange contribution

 Linear response parameters
   LEPSILON=     F    determine dielectric tensor
   LRPA    =     F    only Hartree local field effects (RPA)
   LNABLA  =     F    use nabla operator in PAW spheres
   LVEL    =     F    velocity operator in full k-point grid
   LINTERFAST=   F  fast interpolation
   KINTER  =     0    interpolate to denser k-point grid
   CSHIFT  =0.1000    complex shift for real part using Kramers Kronig
   OMEGAMAX=  -1.0    maximum frequency
   DEG_THRESHOLD= 0.2000000E-02 threshold for treating states as degnerate
   RTIME   =   -0.100 relaxation time in fs
  (WPLASMAI=    0.000 imaginary part of plasma frequency in eV, 0.658/RTIME)
   DFIELD  = 0.0000000 0.0000000 0.0000000 field for delta impulse in time
 
 Orbital magnetization related:
   ORBITALMAG=     F  switch on orbital magnetization
   LCHIMAG   =     F  perturbation theory with respect to B field
   DQ        =  0.001000  dq finite difference perturbation B field
   LLRAUG    =     F  two centre corrections for induced B field



--------------------------------------------------------------------------------------------------------


 Static calculation
 charge density and potential will be updated during run
 spin polarized calculation
 Variant of blocked Davidson
 Davidson routine will perform the subspace rotation
 perform sub-space diagonalisation
    after iterative eigenvector-optimisation
 modified Broyden-mixing scheme, WC =      100.0
 initial mixing is a Kerker type mixing with AMIX =  0.4000 and BMIX =      1.0000
 Hartree-type preconditioning will be used
 using additional bands           96
 real space projection scheme for non local part
 use partial core corrections
 calculate Harris-corrections to forces 
   (improved forces if not selfconsistent)
 use gradient corrections 
 use of overlap-Matrix (Vanderbilt PP)
 Gauss-broadening in eV      SIGMA  =   0.05


--------------------------------------------------------------------------------------------------------


  energy-cutoff  :      500.00
  volume of cell :      642.93
      direct lattice vectors                 reciprocal lattice vectors
     8.630884500  0.000000000  0.000000000     0.115862980  0.000000000  0.000000000
     0.000000000  8.630884500  0.000000000     0.000000000  0.115862980  0.000000000
     0.000000000  0.000000000  8.630884500     0.000000000  0.000000000  0.115862980

  length of vectors
     8.630884500  8.630884500  8.630884500     0.115862980  0.115862980  0.115862980


 
 k-points in units of 2pi/SCALE and weight: Automatic mesh                          
   0.00000000  0.00000000  0.00000000       0.037
   0.03862099  0.00000000  0.00000000       0.074
   0.00000000  0.03862099  0.00000000       0.074
   0.03862099  0.03862099  0.00000000       0.074
  -0.03862099  0.03862099  0.00000000       0.074
   0.00000000  0.00000000  0.03862099       0.074
   0.03862099  0.00000000  0.03862099       0.074
  -0.03862099  0.00000000  0.03862099       0.074
   0.00000000  0.03862099  0.03862099       0.074
   0.03862099  0.03862099  0.03862099       0.074
  -0.03862099  0.03862099  0.03862099       0.074
   0.00000000 -0.03862099  0.03862099       0.074
   0.03862099 -0.03862099  0.03862099       0.074
  -0.03862099 -0.03862099  0.03862099       0.074
 
 k-points in reciprocal lattice and weights: Automatic mesh                          
   0.00000000  0.00000000  0.00000000       0.037
   0.33333333  0.00000000  0.00000000       0.074
   0.00000000  0.33333333  0.00000000       0.074
   0.33333333  0.33333333  0.00000000       0.074
  -0.33333333  0.33333333  0.00000000       0.074
   0.00000000  0.00000000  0.33333333       0.074
   0.33333333  0.00000000  0.33333333       0.074
  -0.33333333  0.00000000  0.33333333       0.074
   0.00000000  0.33333333  0.33333333       0.074
   0.33333333  0.33333333  0.33333333       0.074
  -0.33333333  0.33333333  0.33333333       0.074
   0.00000000 -0.33333333  0.33333333       0.074
   0.33333333 -0.33333333  0.33333333       0.074
  -0.33333333 -0.33333333  0.33333333       0.074
 
 position of ions in fractional coordinates (direct lattice) 
   0.03255378  0.00512395  0.99663239
   0.00285484  0.25213846  0.29423711
   0.19368244  0.94386376  0.25307155
   0.24276453  0.23446379  0.01789030
   0.01297691  0.04537256  0.52400774
   0.01346319  0.26129116  0.72674730
   0.21668183  0.93832543  0.73251745
   0.24963179  0.24410905  0.45549114
   0.99075995  0.49335728  0.97310743
   0.97573731  0.67364366  0.21556222
   0.23616052  0.49034265  0.26365652
   0.21233625  0.72632169  0.01835141
   0.00072902  0.47056517  0.52735086
   0.99755841  0.72030116  0.73748896
   0.20823030  0.44889252  0.68418325
   0.25766681  0.68499687  0.47288637
   0.44947976  0.99074838  0.00694866
   0.47715662  0.17895961  0.26598349
   0.71947057  0.00922701  0.22985148
   0.70454345  0.21717036  0.99589433
   0.50124331  0.98055880  0.46119629
   0.45848669  0.22625964  0.75322793
   0.70201568  0.98227201  0.71248557
   0.72794791  0.20158513  0.43949378
   0.49546595  0.45592077  0.01842002
   0.43985582  0.73242330  0.20665486
   0.67843927  0.49187152  0.26239620
   0.72840037  0.71676380  0.01371445
   0.53211257  0.48604074  0.43303633
   0.51837713  0.69931828  0.73133332
   0.68712380  0.47421832  0.74514394
   0.70367644  0.73404691  0.47728660
   0.20663589  0.25435585  0.26250350
   0.24434968  0.97750279  0.02428214
   0.02825159  0.23689768  0.97431847
   0.00767711  0.96844440  0.24073181
   0.21548382  0.21405972  0.72371193
   0.22260018  0.01396937  0.46194491
   0.97941402  0.26801676  0.46002144
   0.98288604  0.02202298  0.71657690
   0.22441681  0.72217549  0.30059117
   0.22045236  0.49917391  0.98517419
   0.00829202  0.72981605  0.99733311
   0.01232254  0.51154516  0.24080119
   0.24077784  0.73238945  0.70452413
   0.21446094  0.47344570  0.46390173
   0.03053864  0.70294893  0.45344967
   0.98860771  0.49686389  0.72491825
   0.68095688  0.25144854  0.21860231
   0.72113074  0.98065120  0.97322588
   0.50014446  0.25087223  0.98873335
   0.49788383  0.00837519  0.24762366
   0.72207946  0.20332083  0.66807623
   0.70455412  0.01080653  0.49676902
   0.53909581  0.22599383  0.47305781
   0.50887537  0.98918349  0.75909373
   0.69681422  0.69266224  0.20099446
   0.71629422  0.50663182  0.02100547
   0.45279239  0.67920588  0.01251275
   0.44925392  0.44938867  0.23719798
   0.71219549  0.73271260  0.70704860
   0.75728069  0.49739699  0.45676696
   0.48808841  0.70033401  0.47806577
   0.46032944  0.47112190  0.70759829
 
 position of ions in cartesian coordinates  (Angst):
   0.28096792  0.04422422  8.60181905
   0.02463979  2.17617793  2.53952651
   1.67165077  8.14637910  2.18423132
   2.09527262  2.02362989  0.15440911
   0.11200221  0.39160532  4.52265028
   0.11619924  2.25517382  6.27247201
   1.87015585  8.09857841  6.32227351
   2.15454315  2.10687702  3.93129142
   8.55113470  4.25810970  8.39877783
   8.42147602  5.81414062  1.86049262
   2.03827417  4.23209078  2.27558897
   1.83264965  6.26879862  0.15838890
   0.00629209  4.06139363  4.55150436
   8.60981142  6.21683612  6.36518203
   1.79721167  3.87433949  5.90510661
   2.22389248  5.91212887  4.08142764
   3.87940789  8.55103484  0.05997308
   4.11828368  1.54457972  2.29567278
   6.20966739  0.07963726  1.98382158
   6.08083314  1.87437229  8.59544894
   4.32617312  8.46308975  3.98053191
   3.95714567  1.95282082  6.50102327
   6.05901625  8.47787627  6.14938066
   6.28283433  1.73985797  3.79322005
   4.27630939  3.93499951  0.15898107
   3.79634478  6.32146091  1.78361423
   5.85553098  4.24528628  2.26471130
   6.28673946  6.18630557  0.11836783
   4.59260213  4.19496149  3.73748655
   4.47405314  6.03573530  6.31205342
   5.93048616  4.09292355  6.43125128
   6.07335008  6.33547410  4.11940552
   1.78345050  2.19531596  2.26563739
   2.10895387  8.43671368  0.20957635
   0.24383621  2.04463651  8.40923018
   0.06626025  8.35853176  2.07772845
   1.85981596  1.84752472  6.24627408
   1.92123644  0.12056802  3.98699316
   8.45320928  2.31322170  3.97039192
   8.48317589  0.19007780  6.18469246
   1.93691557  6.23301324  2.59436767
   1.90269886  4.30831236  8.50292465
   0.07156747  6.29895803  8.60786688
   0.10635442  4.41508719  2.07832726
   2.07812573  6.32116875  6.08066639
   1.85098760  4.08625515  4.00388225
   0.26357547  6.06707102  3.91367173
   8.53255896  4.28837485  6.25668569
   5.87726018  2.17022331  1.88673129
   6.22399613  8.46388724  8.39980016
   4.31668907  2.16524924  8.53364335
   4.29717783  0.07228530  2.13721121
   6.23218442  1.75483860  5.76608878
   6.08092523  0.09326991  4.28755603
   4.65287367  1.95052664  4.08290732
   4.39204454  8.53752845  6.55165031
   6.01412305  5.97828779  1.73475997
   6.18225268  4.37268072  0.18129579
   3.90799882  5.86214750  0.10799610
   3.87745869  3.87862171  2.04722837
   6.14687702  6.32395782  6.10245480
   6.53600217  4.29297597  3.94230288
   4.21263469  6.04450195  4.12613044
   3.97305023  4.06619870  6.10719911
 


--------------------------------------------------------------------------------------------------------


 k-point  1 :   0.0000 0.0000 0.0000  plane waves:   16279
 k-point  2 :   0.3333 0.0000 0.0000  plane waves:   16320
 k-point  3 :   0.0000 0.3333 0.0000  plane waves:   16320
 k-point  4 :   0.3333 0.3333 0.0000  plane waves:   16368
 k-point  5 :  -0.3333 0.3333 0.0000  plane waves:   16368
 k-point  6 :   0.0000 0.0000 0.3333  plane waves:   16320
 k-point  7 :   0.3333 0.0000 0.3333  plane waves:   16368
 k-point  8 :  -0.3333 0.0000 0.3333  plane waves:   16368
 k-point  9 :   0.0000 0.3333 0.3333  plane waves:   16368
 k-point 10 :   0.3333 0.3333 0.3333  plane waves:   16278
 k-point 11 :  -0.3333 0.3333 0.3333  plane waves:   16278
 k-point 12 :   0.0000-0.3333 0.3333  plane waves:   16368
 k-point 13 :   0.3333-0.3333 0.3333  plane waves:   16278
 k-point 14 :  -0.3333-0.3333 0.3333  plane waves:   16278

 maximum and minimum number of plane-waves per node :     16368    16278

 maximum number of plane-waves:     16368
 maximum index in each direction: 
   IXMAX=   16   IYMAX=   16   IZMAX=   15
   IXMIN=  -16   IYMIN=  -16   IZMIN=  -16

 The following grids will avoid any aliasing or wrap around errors in the Hartre
 e energy
  - symmetry arguments have not been applied
  - exchange correlation energies might require even more grid points
  - we recommend to set PREC=Normal or Accurate and rely on VASP defaults
 WARNING: aliasing errors must be expected set NGX to    70 to avoid them
 WARNING: aliasing errors must be expected set NGY to    70 to avoid them
 NGZ is ok and might be reduce to    64

 serial   3D FFT for wavefunctions
 parallel 3D FFT for charge:
    minimum data exchange during FFTs selected (reduces bandwidth)


 total amount of memory used by VASP MPI-rank0   276600. kBytes
=======================================================================

   base      :      30000. kBytes
   nonlr-proj:      37830. kBytes
   fftplans  :       5538. kBytes
   grid      :      31719. kBytes
   one-center:       1990. kBytes
   wavefun   :     169523. kBytes
 
     INWAV:  cpu time    0.0000: real time    0.0000
 Broyden mixing: mesh for mixing (old mesh)
   NGX = 31   NGY = 31   NGZ = 31
  (NGX  =128   NGY  =128   NGZ  =128)
  gives a total of  29791 points

 initial charge density was supplied:
 charge density of overlapping atoms calculated
 number of electron     512.0000000 magnetization      80.0000000
 keeping initial charge density in first step


--------------------------------------------------------------------------------------------------------


 Maximum index for non-local projection operator         5320
 Maximum index for augmentation-charges          926 (set IRDMAX)


--------------------------------------------------------------------------------------------------------


 First call to EWALD:  gamma=   0.205
 Maximum number of real-space cells 3x 3x 3
 Maximum number of reciprocal cells 3x 3x 3

    FEWALD:  cpu time    0.0028: real time    0.0028


--------------------------------------- Iteration      1(   1)  ---------------------------------------


    POTLOK:  cpu time    0.1559: real time    0.1643
    SETDIJ:  cpu time    0.0256: real time    0.0299
     EDDAV:  cpu time   59.9957: real time   60.1381
    --------------------------------------------
      LOOP:  cpu time   60.1794: real time   60.3354

 eigenvalue-minimisations  : 19712
 total energy-change (2. order) : 0.6171243E+04  (-0.2104590E+05)
 number of electron     512.0000000 magnetization      80.0000000
 augmentation part      512.0000000 magnetization      80.0000000

 Free energy of the ion-electron system (eV)
  ---------------------------------------------------
  alpha Z        PSCENC =      1889.79557107
  Ewald energy   TEWEN  =    -37542.44524065
  -Hartree energ DENC   =    -13589.25487831
  -exchange      EXHF   =         0.00000000
  -V(xc)+E(xc)   XCENC  =      1949.06764381
  PAW double counting   =     41846.49563633   -44035.77946198
  entropy T*S    EENTRO =        -0.01139941
  eigenvalues    EBANDS =      7406.29312084
  atomic energy  EATOM  =     48247.08154143
  Solvation  Ediel_sol  =         0.00000000
  ---------------------------------------------------
  free energy    TOTEN  =      6171.24253314 eV

  energy without entropy =     6171.25393255  energy(sigma->0) =     6171.24823284


--------------------------------------------------------------------------------------------------------




--------------------------------------- Iteration      1(   2)  ---------------------------------------


     EDDAV:  cpu time   62.0001: real time   62.1483
    --------------------------------------------
      LOOP:  cpu time   62.0006: real time   62.1480

 eigenvalue-minimisations  : 19712
 total energy-change (2. order) :-0.5219860E+04  (-0.4728874E+04)
 number of electron     512.0000000 magnetization      80.0000000
 augmentation part      512.0000000 magnetization      80.0000000

 Free energy of the ion-electron system (eV)
  ---------------------------------------------------
  alpha Z        PSCENC =      1889.79557107
  Ewald energy   TEWEN  =    -37542.44524065
  -Hartree energ DENC   =    -13589.25487831
  -exchange      EXHF   =         0.00000000
  -V(xc)+E(xc)   XCENC  =      1949.06764381
  PAW double counting   =     41846.49563633   -44035.77946198
  entropy T*S    EENTRO =        -0.02634600
  eigenvalues    EBANDS =      2186.44783967
  atomic energy  EATOM  =     48247.08154143
  Solvation  Ediel_sol  =         0.00000000
  ---------------------------------------------------
  free energy    TOTEN  =       951.38230538 eV

  energy without entropy =      951.40865138  energy(sigma->0) =      951.39547838


--------------------------------------------------------------------------------------------------------




--------------------------------------- Iteration      1(   3)  ---------------------------------------


     EDDAV:  cpu time   62.2350: real time   62.3827
    --------------------------------------------
      LOOP:  cpu time   62.2351: real time   62.3828

 eigenvalue-minimisations  : 20144
 total energy-change (2. order) :-0.1247395E+04  (-0.1107200E+04)
 number of electron     512.0000000 magnetization      80.0000000
 augmentation part      512.0000000 magnetization      80.0000000

 Free energy of the ion-electron system (eV)
  ---------------------------------------------------
  alpha Z        PSCENC =      1889.79557107
  Ewald energy   TEWEN  =    -37542.44524065
  -Hartree energ DENC   =    -13589.25487831
  -exchange      EXHF   =         0.00000000
  -V(xc)+E(xc)   XCENC  =      1949.06764381
  PAW double counting   =     41846.49563633   -44035.77946198
  entropy T*S    EENTRO =        -0.10629793
  eigenvalues    EBANDS =       939.13296510
  atomic energy  EATOM  =     48247.08154143
  Solvation  Ediel_sol  =         0.00000000
  ---------------------------------------------------
  free energy    TOTEN  =      -296.01252112 eV

  energy without entropy =     -295.90622319  energy(sigma->0) =     -295.95937216


--------------------------------------------------------------------------------------------------------




--------------------------------------- Iteration      1(   4)  ---------------------------------------


     EDDAV:  cpu time   67.7388: real time   67.8997
    --------------------------------------------
      LOOP:  cpu time   67.7387: real time   67.8996

 eigenvalue-minimisations  : 22448
 total energy-change (2. order) :-0.1573235E+03  (-0.1483389E+03)
 number of electron     512.0000000 magnetization      80.0000000
 augmentation part      512.0000000 magnetization      80.0000000

 Free energy of the ion-electron system (eV)
  ---------------------------------------------------
  alpha Z        PSCENC =      1889.79557107
  Ewald energy   TEWEN  =    -37542.44524065
  -Hartree energ DENC   =    -13589.25487831
  -exchange      EXHF   =         0.00000000
  -V(xc)+E(xc)   XCENC  =      1949.06764381
  PAW double counting   =     41846.49563633   -44035.77946198
  entropy T*S    EENTRO =        -0.11661441
  eigenvalues    EBANDS =       781.81973749
  atomic energy  EATOM  =     48247.08154143
  Solvation  Ediel_sol  =         0.00000000
  ---------------------------------------------------
  free energy    TOTEN  =      -453.33606521 eV

  energy without entropy =     -453.21945080  energy(sigma->0) =     -453.27775801


--------------------------------------------------------------------------------------------------------




--------------------------------------- Iteration      1(   5)  ---------------------------------------


     EDDAV:  cpu time   67.6260: real time   67.7866
    CHARGE:  cpu time    1.9766: real time    1.9847
    MIXING:  cpu time    0.0038: real time    0.2672
    --------------------------------------------
      LOOP:  cpu time   69.6037: real time   70.0358

 eigenvalue-minimisations  : 22064
 total energy-change (2. order) :-0.4624435E+01  (-0.4574377E+01)
 number of electron     512.0000062 magnetization      72.5370237
 augmentation part      201.1882495 magnetization      57.3890311

 Broyden mixing:
  rms(total) = 0.11183E+02    rms(broyden)= 0.11180E+02
  rms(prec ) = 0.13628E+02
  weight for this iteration     100.00

 Free energy of the ion-electron system (eV)
  ---------------------------------------------------
  alpha Z        PSCENC =      1889.79557107
  Ewald energy   TEWEN  =    -37542.44524065
  -Hartree energ DENC   =    -13589.25487831
  -exchange      EXHF   =         0.00000000
  -V(xc)+E(xc)   XCENC  =      1949.06764381
  PAW double counting   =     41846.49563633   -44035.77946198
  entropy T*S    EENTRO =        -0.11946707
  eigenvalues    EBANDS =       777.19815513
  atomic energy  EATOM  =     48247.08154143
  Solvation  Ediel_sol  =         0.00000000
  ---------------------------------------------------
  free energy    TOTEN  =      -457.96050024 eV

  energy without entropy =     -457.84103317  energy(sigma->0) =     -457.90076670


--------------------------------------------------------------------------------------------------------




--------------------------------------- Iteration      1(   6)  ---------------------------------------


    POTLOK:  cpu time    0.1343: real time    0.1346
    SETDIJ:  cpu time    0.0238: real time    0.0239
     EDDAV:  cpu time   81.2668: real time   81.4600
    CHARGE:  cpu time    2.0864: real time    2.0914
    MIXING:  cpu time    0.0042: real time    0.2540
    --------------------------------------------
      LOOP:  cpu time   83.5157: real time   83.9639

 eigenvalue-minimisations  : 28656
 total energy-change (2. order) :-0.2714049E+02  (-0.6259251E+02)
 number of electron     512.0000043 magnetization      61.6265311
 augmentation part      237.5170595 magnetization      56.2609884

 Broyden mixing:
  rms(total) = 0.16353E+02    rms(broyden)= 0.16352E+02
  rms(prec ) = 0.19798E+02
  weight for this iteration     100.00

 eigenvalues of (default mixing * dielectric matrix)
  average eigenvalue GAMMA=   0.2602
  0.2602

 Free energy of the ion-electron system (eV)
  ---------------------------------------------------
  alpha Z        PSCENC =      1889.79557107
  Ewald energy   TEWEN  =    -37542.44524065
  -Hartree energ DENC   =    -13081.53781967
  -exchange      EXHF   =         0.00000000
  -V(xc)+E(xc)   XCENC  =      1939.65652147
  PAW double counting   =     45405.41123610   -47393.75646965
  entropy T*S    EENTRO =        -0.05297197
  eigenvalues    EBANDS =        50.74664371
  atomic energy  EATOM  =     48247.08154143
  Solvation  Ediel_sol  =         0.00000000
  ---------------------------------------------------
  free energy    TOTEN  =      -485.10098816 eV

  energy without entropy =     -485.04801618  energy(sigma->0) =     -485.07450217


--------------------------------------------------------------------------------------------------------




--------------------------------------- Iteration      1(   7)  ---------------------------------------


    POTLOK:  cpu time    0.1415: real time    0.1419
    SETDIJ:  cpu time    0.0242: real time    0.0242
     EDDAV:  cpu time   69.4106: real time   69.5754
    CHARGE:  cpu time    2.1154: real time    2.1205
    MIXING:  cpu time    0.0039: real time    0.0078
    --------------------------------------------
      LOOP:  cpu time   71.6956: real time   71.8698

 eigenvalue-minimisations  : 23104
 total energy-change (2. order) : 0.9632141E+02  (-0.3372971E+02)
 number of electron     512.0000048 magnetization      55.1235687
 augmentation part      223.2122782 magnetization      43.7878565

 Broyden mixing:
  rms(total) = 0.90108E+01    rms(broyden)= 0.90089E+01
  rms(prec ) = 0.11647E+02
  weight for this iteration     100.00

 eigenvalues of (default mixing * dielectric matrix)
  average eigenvalue GAMMA=   0.4164
  0.4164  0.4164

 Free energy of the ion-electron system (eV)
  ---------------------------------------------------
  alpha Z        PSCENC =      1889.79557107
  Ewald energy   TEWEN  =    -37542.44524065
  -Hartree energ DENC   =    -13239.70336284
  -exchange      EXHF   =         0.00000000
  -V(xc)+E(xc)   XCENC  =      1931.19963271
  PAW double counting   =     47006.26877101   -49139.21824459
  entropy T*S    EENTRO =        -0.07816826
  eigenvalues    EBANDS =       458.31992367
  atomic energy  EATOM  =     48247.08154143
  Solvation  Ediel_sol  =         0.00000000
  ---------------------------------------------------
  free energy    TOTEN  =      -388.77957645 eV

  energy without entropy =     -388.70140820  energy(sigma->0) =     -388.74049233


--------------------------------------------------------------------------------------------------------




--------------------------------------- Iteration      1(   8)  ---------------------------------------


    POTLOK:  cpu time    0.1401: real time    0.1404
    SETDIJ:  cpu time    0.0243: real time    0.0243
     EDDAV:  cpu time   73.5294: real time   73.7039
    CHARGE:  cpu time    2.5818: real time    2.5879
    MIXING:  cpu time    0.0036: real time    0.0036
    --------------------------------------------
      LOOP:  cpu time   76.2790: real time   76.4601

 eigenvalue-minimisations  : 24784
 total energy-change (2. order) :-0.8493011E+01  (-0.1247100E+02)
 number of electron     512.0000045 magnetization      46.9735683
 augmentation part      217.8762801 magnetization      38.0346264

 Broyden mixing:
  rms(total) = 0.99403E+01    rms(broyden)= 0.99385E+01
  rms(prec ) = 0.15063E+02
  weight for this iteration     100.00

 eigenvalues of (default mixing * dielectric matrix)
  average eigenvalue GAMMA=   0.4978
  0.8700  0.4633  0.1603

 Free energy of the ion-electron system (eV)
  ---------------------------------------------------
  alpha Z        PSCENC =      1889.79557107
  Ewald energy   TEWEN  =    -37542.44524065
  -Hartree energ DENC   =    -13325.30092654
  -exchange      EXHF   =         0.00000000
  -V(xc)+E(xc)   XCENC  =      1929.38252515
  PAW double counting   =     48284.27566969   -50486.61171451
  entropy T*S    EENTRO =        -0.08025403
  eigenvalues    EBANDS =       606.63024137
  atomic energy  EATOM  =     48247.08154143
  Solvation  Ediel_sol  =         0.00000000
  ---------------------------------------------------
  free energy    TOTEN  =      -397.27258700 eV

  energy without entropy =     -397.19233298  energy(sigma->0) =     -397.23245999


--------------------------------------------------------------------------------------------------------




--------------------------------------- Iteration      1(   9)  ---------------------------------------


    POTLOK:  cpu time    0.1377: real time    0.1380
    SETDIJ:  cpu time    0.0243: real time    0.0243
     EDDAV:  cpu time   75.8298: real time   76.0099
    CHARGE:  cpu time    2.2679: real time    2.2733
    MIXING:  cpu time    0.0051: real time    0.0051
    --------------------------------------------
      LOOP:  cpu time   78.2648: real time   78.4506

 eigenvalue-minimisations  : 25696
 total energy-change (2. order) :-0.7811789E+01  (-0.1208232E+02)
 number of electron     512.0000057 magnetization      41.7944034
 augmentation part      216.6581520 magnetization      33.0266224

 Broyden mixing:
  rms(total) = 0.10157E+02    rms(broyden)= 0.10156E+02
  rms(prec ) = 0.14772E+02
  weight for this iteration     100.00

 eigenvalues of (default mixing * dielectric matrix)
  average eigenvalue GAMMA=   0.4906
  1.1568  0.4311  0.2482  0.1265

 Free energy of the ion-electron system (eV)
  ---------------------------------------------------
  alpha Z        PSCENC =      1889.79557107
  Ewald energy   TEWEN  =    -37542.44524065
  -Hartree energ DENC   =    -13299.75124645
  -exchange      EXHF   =         0.00000000
  -V(xc)+E(xc)   XCENC  =      1927.48667729
  PAW double counting   =     49760.33193898   -52001.96568266
  entropy T*S    EENTRO =        -0.09899581
  eigenvalues    EBANDS =       614.48106085
  atomic energy  EATOM  =     48247.08154143
  Solvation  Ediel_sol  =         0.00000000
  ---------------------------------------------------
  free energy    TOTEN  =      -405.08437594 eV

  energy without entropy =     -404.98538013  energy(sigma->0) =     -405.03487804


--------------------------------------------------------------------------------------------------------




--------------------------------------- Iteration      1(  10)  ---------------------------------------


    POTLOK:  cpu time    0.1892: real time    0.1897
    SETDIJ:  cpu time    0.0417: real time    0.0418
     EDDAV:  cpu time   73.2419: real time   73.4159
    CHARGE:  cpu time    2.5052: real time    2.5112
    MIXING:  cpu time    0.0051: real time    0.0067
    --------------------------------------------
      LOOP:  cpu time   75.9832: real time   76.1653

 eigenvalue-minimisations  : 24688
 total energy-change (2. order) :-0.8430236E+01  (-0.8364666E+01)
 number of electron     512.0000053 magnetization      34.6948099
 augmentation part      215.6047929 magnetization      27.0109075

 Broyden mixing:
  rms(total) = 0.11614E+02    rms(broyden)= 0.11612E+02
  rms(prec ) = 0.18030E+02
  weight for this iteration     100.00

 eigenvalues of (default mixing * dielectric matrix)
  average eigenvalue GAMMA=   0.4870
  1.4221  0.4287  0.3534  0.1154  0.1154

 Free energy of the ion-electron system (eV)
  ---------------------------------------------------
  alpha Z        PSCENC =      1889.79557107
  Ewald energy   TEWEN  =    -37542.44524065
  -Hartree energ DENC   =    -13294.34112542
  -exchange      EXHF   =         0.00000000
  -V(xc)+E(xc)   XCENC  =      1926.24097892
  PAW double counting   =     50642.25689908   -52904.66059062
  entropy T*S    EENTRO =        -0.08318045
  eigenvalues    EBANDS =       622.64053433
  atomic energy  EATOM  =     48247.08154143
  Solvation  Ediel_sol  =         0.00000000
  ---------------------------------------------------
  free energy    TOTEN  =      -413.51461231 eV

  energy without entropy =     -413.43143186  energy(sigma->0) =     -413.47302209


--------------------------------------------------------------------------------------------------------




--------------------------------------- Iteration      1(  11)  ---------------------------------------


    POTLOK:  cpu time    0.1784: real time    0.1788
    SETDIJ:  cpu time    0.0296: real time    0.0296
     EDDAV:  cpu time   74.7094: real time   74.8868
    CHARGE:  cpu time    2.5091: real time    2.5151
    MIXING:  cpu time    0.0049: real time    0.0049
    --------------------------------------------
      LOOP:  cpu time   77.4314: real time   77.6153

 eigenvalue-minimisations  : 25536
 total energy-change (2. order) :-0.2062326E+01  (-0.1092588E+02)
 number of electron     512.0000059 magnetization      30.7094845
 augmentation part      216.6942048 magnetization      23.3545113

 Broyden mixing:
  rms(total) = 0.10333E+02    rms(broyden)= 0.10332E+02
  rms(prec ) = 0.15996E+02
  weight for this iteration     100.00

 eigenvalues of (default mixing * dielectric matrix)
  average eigenvalue GAMMA=   0.4606
  1.5728  0.4058  0.4058  0.1497  0.1497  0.0796

 Free energy of the ion-electron system (eV)
  ---------------------------------------------------
  alpha Z        PSCENC =      1889.79557107
  Ewald energy   TEWEN  =    -37542.44524065
  -Hartree energ DENC   =    -13269.47663118
  -exchange      EXHF   =         0.00000000
  -V(xc)+E(xc)   XCENC  =      1924.76416283
  PAW double counting   =     51758.49920491   -54038.80074708
  entropy T*S    EENTRO =        -0.08296077
  eigenvalues    EBANDS =       615.08816086
  atomic energy  EATOM  =     48247.08154143
  Solvation  Ediel_sol  =         0.00000000
  ---------------------------------------------------
  free energy    TOTEN  =      -415.57693859 eV

  energy without entropy =     -415.49397781  energy(sigma->0) =     -415.53545820


--------------------------------------------------------------------------------------------------------




--------------------------------------- Iteration      1(  12)  ---------------------------------------


    POTLOK:  cpu time    0.1999: real time    0.2003
    SETDIJ:  cpu time    0.0357: real time    0.0358
     EDDAV:  cpu time   69.7894: real time   69.9552
    CHARGE:  cpu time    2.4565: real time    2.4623
    MIXING:  cpu time    0.0048: real time    0.0049
    --------------------------------------------
      LOOP:  cpu time   72.4862: real time   72.6585

 eigenvalue-minimisations  : 23632
 total energy-change (2. order) : 0.2325688E+02  (-0.8160831E+01)
 number of electron     512.0000052 magnetization      28.7016023
 augmentation part      218.3509446 magnetization      22.1680734

 Broyden mixing:
  rms(total) = 0.82559E+01    rms(broyden)= 0.82545E+01
  rms(prec ) = 0.12739E+02
  weight for this iteration     100.00

 eigenvalues of (default mixing * dielectric matrix)
  average eigenvalue GAMMA=   0.4382
  1.6658  0.4279  0.4279  0.2276  0.1189  0.1189  0.0806

 Free energy of the ion-electron system (eV)
  ---------------------------------------------------
  alpha Z        PSCENC =      1889.79557107
  Ewald energy   TEWEN  =    -37542.44524065
  -Hartree energ DENC   =    -13261.12669814
  -exchange      EXHF   =         0.00000000
  -V(xc)+E(xc)   XCENC  =      1924.16015649
  PAW double counting   =     52363.30146961   -54655.33788051
  entropy T*S    EENTRO =        -0.07702932
  eigenvalues    EBANDS =       642.32804686
  atomic energy  EATOM  =     48247.08154143
  Solvation  Ediel_sol  =         0.00000000
  ---------------------------------------------------
  free energy    TOTEN  =      -392.32006315 eV

  energy without entropy =     -392.24303383  energy(sigma->0) =     -392.28154849


--------------------------------------------------------------------------------------------------------




--------------------------------------- Iteration      1(  13)  ---------------------------------------


    POTLOK:  cpu time    0.1698: real time    0.1702
    SETDIJ:  cpu time    0.0313: real time    0.0314
     EDDAV:  cpu time   72.5845: real time   72.7570
    CHARGE:  cpu time    2.3714: real time    2.3770
    MIXING:  cpu time    0.0043: real time    0.0043
    --------------------------------------------
      LOOP:  cpu time   75.1613: real time   75.3399

 eigenvalue-minimisations  : 24800
 total energy-change (2. order) : 0.1818254E+02  (-0.6314164E+01)
 number of electron     512.0000049 magnetization      26.5876534
 augmentation part      219.2173605 magnetization      20.6222773

 Broyden mixing:
  rms(total) = 0.56529E+01    rms(broyden)= 0.56515E+01
  rms(prec ) = 0.87262E+01
  weight for this iteration     100.00

 eigenvalues of (default mixing * dielectric matrix)
  average eigenvalue GAMMA=   0.4479
  1.8101  0.6026  0.3683  0.3683  0.1335  0.1335  0.0876  0.0793

 Free energy of the ion-electron system (eV)
  ---------------------------------------------------
  alpha Z        PSCENC =      1889.79557107
  Ewald energy   TEWEN  =    -37542.44524065
  -Hartree energ DENC   =    -13256.10940759
  -exchange      EXHF   =         0.00000000
  -V(xc)+E(xc)   XCENC  =      1923.96147204
  PAW double counting   =     52627.43763688   -54923.40763793
  entropy T*S    EENTRO =        -0.08886930
  eigenvalues    EBANDS =       659.63741359
  atomic energy  EATOM  =     48247.08154143
  Solvation  Ediel_sol  =         0.00000000
  ---------------------------------------------------
  free energy    TOTEN  =      -374.13752046 eV

  energy without entropy =     -374.04865116  energy(sigma->0) =     -374.09308581


--------------------------------------------------------------------------------------------------------




--------------------------------------- Iteration      1(  14)  ---------------------------------------


    POTLOK:  cpu time    0.1395: real time    0.1399
    SETDIJ:  cpu time    0.0244: real time    0.0245
     EDDAV:  cpu time   71.9027: real time   72.0736
    CHARGE:  cpu time    2.0656: real time    2.0705
    MIXING:  cpu time    0.0046: real time    0.0046
    --------------------------------------------
      LOOP:  cpu time   74.1369: real time   74.3131

 eigenvalue-minimisations  : 24416
 total energy-change (2. order) :-0.4307151E+01  (-0.7666768E+01)
 number of electron     512.0000049 magnetization      24.5190919
 augmentation part      218.8149546 magnetization      19.5918500

 Broyden mixing:
  rms(total) = 0.73639E+01    rms(broyden)= 0.73626E+01
  rms(prec ) = 0.11844E+02
  weight for this iteration     100.00

 eigenvalues of (default mixing * dielectric matrix)
  average eigenvalue GAMMA=   0.4379
  1.9005  0.6919  0.3956  0.3956  0.1516  0.1516  0.0831  0.0855  0.0855

 Free energy of the ion-electron system (eV)
  ---------------------------------------------------
  alpha Z        PSCENC =      1889.79557107
  Ewald energy   TEWEN  =    -37542.44524065
  -Hartree energ DENC   =    -13257.24937146
  -exchange      EXHF   =         0.00000000
  -V(xc)+E(xc)   XCENC  =      1923.31032634
  PAW double counting   =     52804.78900235   -55103.34748394
  entropy T*S    EENTRO =        -0.08077326
  eigenvalues    EBANDS =       659.70175669
  atomic energy  EATOM  =     48247.08154143
  Solvation  Ediel_sol  =         0.00000000
  ---------------------------------------------------
  free energy    TOTEN  =      -378.44467143 eV

  energy without entropy =     -378.36389817  energy(sigma->0) =     -378.40428480


--------------------------------------------------------------------------------------------------------




--------------------------------------- Iteration      1(  15)  ---------------------------------------


    POTLOK:  cpu time    0.1370: real time    0.1374
    SETDIJ:  cpu time    0.0241: real time    0.0242
     EDDAV:  cpu time   72.8780: real time   73.0511
    CHARGE:  cpu time    1.9604: real time    1.9650
    MIXING:  cpu time    0.0045: real time    0.0045
    --------------------------------------------
      LOOP:  cpu time   75.0041: real time   75.1821

 eigenvalue-minimisations  : 24976
 total energy-change (2. order) :-0.7737894E+00  (-0.7326053E+01)
 number of electron     512.0000048 magnetization      23.5770587
 augmentation part      218.6445521 magnetization      18.6791237

 Broyden mixing:
  rms(total) = 0.71566E+01    rms(broyden)= 0.71559E+01
  rms(prec ) = 0.11314E+02
  weight for this iteration     100.00

 eigenvalues of (default mixing * dielectric matrix)
  average eigenvalue GAMMA=   0.4116
  1.9089  0.7300  0.3941  0.3941  0.2102  0.1377  0.0964  0.0964  0.0740  0.0740

 Free energy of the ion-electron system (eV)
  ---------------------------------------------------
  alpha Z        PSCENC =      1889.79557107
  Ewald energy   TEWEN  =    -37542.44524065
  -Hartree energ DENC   =    -13255.41314596
  -exchange      EXHF   =         0.00000000
  -V(xc)+E(xc)   XCENC  =      1922.49771006
  PAW double counting   =     52874.84103629   -55172.62171244
  entropy T*S    EENTRO =        -0.08246602
  eigenvalues    EBANDS =       657.12824541
  atomic energy  EATOM  =     48247.08154143
  Solvation  Ediel_sol  =         0.00000000
  ---------------------------------------------------
  free energy    TOTEN  =      -379.21846081 eV

  energy without entropy =     -379.13599479  energy(sigma->0) =     -379.17722780


--------------------------------------------------------------------------------------------------------




--------------------------------------- Iteration      1(  16)  ---------------------------------------


    POTLOK:  cpu time    0.1355: real time    0.1358
    SETDIJ:  cpu time    0.0239: real time    0.0240
     EDDAV:  cpu time   74.0956: real time   74.2716
    CHARGE:  cpu time    2.1060: real time    2.1110
    MIXING:  cpu time    0.0062: real time    0.0332
    --------------------------------------------
      LOOP:  cpu time   76.3673: real time   76.5756

 eigenvalue-minimisations  : 25504
 total energy-change (2. order) : 0.9889572E+01  (-0.4112327E+01)
 number of electron     512.0000049 magnetization      23.0935366
 augmentation part      219.3941578 magnetization      17.8547339

 Broyden mixing:
  rms(total) = 0.39766E+01    rms(broyden)= 0.39754E+01
  rms(prec ) = 0.61202E+01
  weight for this iteration     100.00

 eigenvalues of (default mixing * dielectric matrix)
  average eigenvalue GAMMA=   0.3895
  1.8676  0.7466  0.4035  0.4035  0.2986  0.1159  0.1111  0.1111  0.0795  0.0795
  0.0680

 Free energy of the ion-electron system (eV)
  ---------------------------------------------------
  alpha Z        PSCENC =      1889.79557107
  Ewald energy   TEWEN  =    -37542.44524065
  -Hartree energ DENC   =    -13250.40053720
  -exchange      EXHF   =         0.00000000
  -V(xc)+E(xc)   XCENC  =      1922.13929522
  PAW double counting   =     52896.13807538   -55192.34509806
  entropy T*S    EENTRO =        -0.08958578
  eigenvalues    EBANDS =       660.79708986
  atomic energy  EATOM  =     48247.08154143
  Solvation  Ediel_sol  =         0.00000000
  ---------------------------------------------------
  free energy    TOTEN  =      -369.32888872 eV

  energy without entropy =     -369.23930295  energy(sigma->0) =     -369.28409583


--------------------------------------------------------------------------------------------------------




--------------------------------------- Iteration      1(  17)  ---------------------------------------


    POTLOK:  cpu time    0.1439: real time    0.1442
    SETDIJ:  cpu time    0.0243: real time    0.0244
     EDDAV:  cpu time   71.7882: real time   71.9590
    CHARGE:  cpu time    2.5485: real time    2.5545
    MIXING:  cpu time    0.0050: real time    0.0051
    --------------------------------------------
      LOOP:  cpu time   74.5098: real time   74.6871

 eigenvalue-minimisations  : 24896
 total energy-change (2. order) : 0.3508929E+01  (-0.1943285E+01)
 number of electron     512.0000049 magnetization      22.7412475
 augmentation part      219.4127949 magnetization      17.2213219

 Broyden mixing:
  rms(total) = 0.23603E+01    rms(broyden)= 0.23587E+01
  rms(prec ) = 0.34055E+01
  weight for this iteration     100.00

 eigenvalues of (default mixing * dielectric matrix)
  average eigenvalue GAMMA=   0.3810
  1.8027  0.7863  0.4378  0.4378  0.4065  0.1471  0.1267  0.1063  0.0901  0.0901
  0.0701  0.0701

 Free energy of the ion-electron system (eV)
  ---------------------------------------------------
  alpha Z        PSCENC =      1889.79557107
  Ewald energy   TEWEN  =    -37542.44524065
  -Hartree energ DENC   =    -13250.77509462
  -exchange      EXHF   =         0.00000000
  -V(xc)+E(xc)   XCENC  =      1921.96581916
  PAW double counting   =     52881.45368770   -55176.52625400
  entropy T*S    EENTRO =        -0.09551680
  eigenvalues    EBANDS =       663.72552670
  atomic energy  EATOM  =     48247.08154143
  Solvation  Ediel_sol  =         0.00000000
  ---------------------------------------------------
  free energy    TOTEN  =      -365.81996001 eV

  energy without entropy =     -365.72444321  energy(sigma->0) =     -365.77220161


--------------------------------------------------------------------------------------------------------




--------------------------------------- Iteration      1(  18)  ---------------------------------------


    POTLOK:  cpu time    0.1603: real time    0.1607
    SETDIJ:  cpu time    0.0338: real time    0.0339
     EDDAV:  cpu time   70.5345: real time   70.7020
    CHARGE:  cpu time    2.0658: real time    2.0708
    MIXING:  cpu time    0.0055: real time    0.0055
    --------------------------------------------
      LOOP:  cpu time   72.8000: real time   72.9729

 eigenvalue-minimisations  : 26112
 total energy-change (2. order) : 0.1232497E+01  (-0.5767723E+00)
 number of electron     512.0000050 magnetization      22.4368537
 augmentation part      219.2559082 magnetization      17.0862395

 Broyden mixing:
  rms(total) = 0.18911E+01    rms(broyden)= 0.18901E+01
  rms(prec ) = 0.27044E+01
  weight for this iteration     100.00

 eigenvalues of (default mixing * dielectric matrix)
  average eigenvalue GAMMA=   0.3680
  1.7378  0.7977  0.4844  0.4844  0.4145  0.1830  0.1541  0.1027  0.1027  0.0926
  0.0926  0.0691  0.0691

 Free energy of the ion-electron system (eV)
  ---------------------------------------------------
  alpha Z        PSCENC =      1889.79557107
  Ewald energy   TEWEN  =    -37542.44524065
  -Hartree energ DENC   =    -13254.20159823
  -exchange      EXHF   =         0.00000000
  -V(xc)+E(xc)   XCENC  =      1921.94480407
  PAW double counting   =     52870.99255671   -55164.31398681
  entropy T*S    EENTRO =        -0.09609228
  eigenvalues    EBANDS =       666.65498196
  atomic energy  EATOM  =     48247.08154143
  Solvation  Ediel_sol  =         0.00000000
  ---------------------------------------------------
  free energy    TOTEN  =      -364.58746274 eV

  energy without entropy =     -364.49137047  energy(sigma->0) =     -364.53941660


--------------------------------------------------------------------------------------------------------




--------------------------------------- Iteration      1(  19)  ---------------------------------------


    POTLOK:  cpu time    0.1397: real time    0.1401
    SETDIJ:  cpu time    0.0241: real time    0.0241
     EDDAV:  cpu time   70.8006: real time   70.9688
    CHARGE:  cpu time    1.9748: real time    1.9795
    MIXING:  cpu time    0.0054: real time    0.0054
    --------------------------------------------
      LOOP:  cpu time   72.9446: real time   73.1179

 eigenvalue-minimisations  : 25824
 total energy-change (2. order) : 0.5539830E+00  (-0.5130053E+00)
 number of electron     512.0000049 magnetization      22.2586022
 augmentation part      218.9972757 magnetization      16.8063439

 Broyden mixing:
  rms(total) = 0.14040E+01    rms(broyden)= 0.14032E+01
  rms(prec ) = 0.18908E+01
  weight for this iteration     100.00

 eigenvalues of (default mixing * dielectric matrix)
  average eigenvalue GAMMA=   0.3628
  1.7154  0.7524  0.5419  0.5419  0.3675  0.3675  0.1561  0.1183  0.1183  0.0898
  0.0898  0.0837  0.0687  0.0687

 Free energy of the ion-electron system (eV)
  ---------------------------------------------------
  alpha Z        PSCENC =      1889.79557107
  Ewald energy   TEWEN  =    -37542.44524065
  -Hartree energ DENC   =    -13256.65294554
  -exchange      EXHF   =         0.00000000
  -V(xc)+E(xc)   XCENC  =      1921.92919664
  PAW double counting   =     52850.75205972   -55141.45152952
  entropy T*S    EENTRO =        -0.09406075
  eigenvalues    EBANDS =       667.05192785
  atomic energy  EATOM  =     48247.08154143
  Solvation  Ediel_sol  =         0.00000000
  ---------------------------------------------------
  free energy    TOTEN  =      -364.03347975 eV

  energy without entropy =     -363.93941899  energy(sigma->0) =     -363.98644937


--------------------------------------------------------------------------------------------------------




--------------------------------------- Iteration      1(  20)  ---------------------------------------


    POTLOK:  cpu time    0.1363: real time    0.1366
    SETDIJ:  cpu time    0.0240: real time    0.0240
     EDDAV:  cpu time   69.1762: real time   69.3405
    CHARGE:  cpu time    2.1269: real time    2.1320
    MIXING:  cpu time    0.0058: real time    0.0058
    --------------------------------------------
      LOOP:  cpu time   71.4691: real time   71.6389

 eigenvalue-minimisations  : 25296
 total energy-change (2. order) : 0.1871490E-01  (-0.2210883E+00)
 number of electron     512.0000049 magnetization      22.0135437
 augmentation part      218.9391911 magnetization      16.5685800

 Broyden mixing:
  rms(total) = 0.12651E+01    rms(broyden)= 0.12648E+01
  rms(prec ) = 0.16893E+01
  weight for this iteration     100.00

 eigenvalues of (default mixing * dielectric matrix)
  average eigenvalue GAMMA=   0.3550
  1.7012  0.7226  0.6015  0.6015  0.3907  0.3907  0.1695  0.1246  0.1246  0.0874
  0.0874  0.0993  0.0859  0.0687  0.0687

 Free energy of the ion-electron system (eV)
  ---------------------------------------------------
  alpha Z        PSCENC =      1889.79557107
  Ewald energy   TEWEN  =    -37542.44524065
  -Hartree energ DENC   =    -13257.73925052
  -exchange      EXHF   =         0.00000000
  -V(xc)+E(xc)   XCENC  =      1921.94909374
  PAW double counting   =     52853.92080318   -55142.57609232
  entropy T*S    EENTRO =        -0.09658302
  eigenvalues    EBANDS =       666.09539223
  atomic energy  EATOM  =     48247.08154143
  Solvation  Ediel_sol  =         0.00000000
  ---------------------------------------------------
  free energy    TOTEN  =      -364.01476485 eV

  energy without entropy =     -363.91818183  energy(sigma->0) =     -363.96647334


--------------------------------------------------------------------------------------------------------




--------------------------------------- Iteration      1(  21)  ---------------------------------------


    POTLOK:  cpu time    0.1403: real time    0.1406
    SETDIJ:  cpu time    0.0240: real time    0.0241
     EDDAV:  cpu time   68.9378: real time   69.1016
    CHARGE:  cpu time    2.1008: real time    2.1058
    MIXING:  cpu time    0.0059: real time    0.0059
    --------------------------------------------
      LOOP:  cpu time   71.2088: real time   71.3781

 eigenvalue-minimisations  : 25296
 total energy-change (2. order) : 0.1992943E-01  (-0.1783887E+00)
 number of electron     512.0000049 magnetization      21.7574666
 augmentation part      218.7622080 magnetization      16.2037079

 Broyden mixing:
  rms(total) = 0.11167E+01    rms(broyden)= 0.11163E+01
  rms(prec ) = 0.14686E+01
  weight for this iteration     100.00

 eigenvalues of (default mixing * dielectric matrix)
  average eigenvalue GAMMA=   0.3816
  1.7010  0.7962  0.7962  0.6518  0.4222  0.4222  0.4299  0.1480  0.1238  0.1238
  0.0899  0.0899  0.0946  0.0684  0.0684  0.0793

 Free energy of the ion-electron system (eV)
  ---------------------------------------------------
  alpha Z        PSCENC =      1889.79557107
  Ewald energy   TEWEN  =    -37542.44524065
  -Hartree energ DENC   =    -13260.35846480
  -exchange      EXHF   =         0.00000000
  -V(xc)+E(xc)   XCENC  =      1922.01682492
  PAW double counting   =     52864.45522974   -55150.21271901
  entropy T*S    EENTRO =        -0.09370054
  eigenvalues    EBANDS =       665.76612241
  atomic energy  EATOM  =     48247.08154143
  Solvation  Ediel_sol  =         0.00000000
  ---------------------------------------------------
  free energy    TOTEN  =      -363.99483542 eV

  energy without entropy =     -363.90113488  energy(sigma->0) =     -363.94798515


--------------------------------------------------------------------------------------------------------




--------------------------------------- Iteration      1(  22)  ---------------------------------------


    POTLOK:  cpu time    0.1391: real time    0.1395
    SETDIJ:  cpu time    0.0241: real time    0.0242
     EDDAV:  cpu time   71.7661: real time   71.9367
    CHARGE:  cpu time    2.4156: real time    2.4214
    MIXING:  cpu time    0.0088: real time    0.0088
    --------------------------------------------
      LOOP:  cpu time   74.3538: real time   74.5305

 eigenvalue-minimisations  : 25312
 total energy-change (2. order) :-0.4254772E+00  (-0.1795023E+00)
 number of electron     512.0000051 magnetization      21.2419452
 augmentation part      218.7266540 magnetization      15.4993405

 Broyden mixing:
  rms(total) = 0.14179E+01    rms(broyden)= 0.14175E+01
  rms(prec ) = 0.20439E+01
  weight for this iteration     100.00

 eigenvalues of (default mixing * dielectric matrix)
  average eigenvalue GAMMA=   0.4042
  1.7112  1.0687  1.0687  0.5565  0.5565  0.4543  0.4543  0.1438  0.1438  0.1148
  0.1148  0.0895  0.0895  0.0685  0.0685  0.0836  0.0836

 Free energy of the ion-electron system (eV)
  ---------------------------------------------------
  alpha Z        PSCENC =      1889.79557107
  Ewald energy   TEWEN  =    -37542.44524065
  -Hartree energ DENC   =    -13262.22740415
  -exchange      EXHF   =         0.00000000
  -V(xc)+E(xc)   XCENC  =      1922.13743567
  PAW double counting   =     52887.46420773   -55169.70070857
  entropy T*S    EENTRO =        -0.09484153
  eigenvalues    EBANDS =       663.56912635
  atomic energy  EATOM  =     48247.08154143
  Solvation  Ediel_sol  =         0.00000000
  ---------------------------------------------------
  free energy    TOTEN  =      -364.42031266 eV

  energy without entropy =     -364.32547113  energy(sigma->0) =     -364.37289189


--------------------------------------------------------------------------------------------------------




--------------------------------------- Iteration      1(  23)  ---------------------------------------


    POTLOK:  cpu time    0.1867: real time    0.1871
    SETDIJ:  cpu time    0.0274: real time    0.0274
     EDDAV:  cpu time   69.6777: real time   69.8432
    CHARGE:  cpu time    2.1046: real time    2.1096
    MIXING:  cpu time    0.0066: real time    0.0066
    --------------------------------------------
      LOOP:  cpu time   72.0030: real time   72.1740

 eigenvalue-minimisations  : 25584
 total energy-change (2. order) :-0.5023984E-01  (-0.2703117E+00)
 number of electron     512.0000049 magnetization      20.9916332
 augmentation part      218.6956816 magnetization      15.3906754

 Broyden mixing:
  rms(total) = 0.12764E+01    rms(broyden)= 0.12759E+01
  rms(prec ) = 0.18955E+01
  weight for this iteration     100.00

 eigenvalues of (default mixing * dielectric matrix)
  average eigenvalue GAMMA=   0.4081
  1.7444  1.1617  1.1617  0.6261  0.5120  0.4648  0.4648  0.2202  0.1602  0.1210
  0.1210  0.1085  0.0893  0.0893  0.0684  0.0684  0.0848  0.0790

 Free energy of the ion-electron system (eV)
  ---------------------------------------------------
  alpha Z        PSCENC =      1889.79557107
  Ewald energy   TEWEN  =    -37542.44524065
  -Hartree energ DENC   =    -13264.84588538
  -exchange      EXHF   =         0.00000000
  -V(xc)+E(xc)   XCENC  =      1922.52401951
  PAW double counting   =     52967.38378073   -55243.41478997
  entropy T*S    EENTRO =        -0.08995803
  eigenvalues    EBANDS =       659.54040879
  atomic energy  EATOM  =     48247.08154143
  Solvation  Ediel_sol  =         0.00000000
  ---------------------------------------------------
  free energy    TOTEN  =      -364.47055250 eV

  energy without entropy =     -364.38059446  energy(sigma->0) =     -364.42557348


--------------------------------------------------------------------------------------------------------




--------------------------------------- Iteration      1(  24)  ---------------------------------------


    POTLOK:  cpu time    0.1393: real time    0.1396
    SETDIJ:  cpu time    0.0242: real time    0.0243
     EDDAV:  cpu time   69.1308: real time   69.2950
    CHARGE:  cpu time    1.9930: real time    1.9978
    MIXING:  cpu time    0.0064: real time    0.0064
    --------------------------------------------
      LOOP:  cpu time   71.2938: real time   71.4632

 eigenvalue-minimisations  : 25312
 total energy-change (2. order) : 0.1655534E+00  (-0.1845870E+00)
 number of electron     512.0000049 magnetization      20.5843374
 augmentation part      218.7283827 magnetization      15.0722321

 Broyden mixing:
  rms(total) = 0.10046E+01    rms(broyden)= 0.10042E+01
  rms(prec ) = 0.14921E+01
  weight for this iteration     100.00

 eigenvalues of (default mixing * dielectric matrix)
  average eigenvalue GAMMA=   0.4459
  1.7963  1.4212  1.4212  0.8614  0.5258  0.5258  0.4157  0.4157  0.1564  0.1219
  0.1219  0.1176  0.0895  0.0895  0.0952  0.0685  0.0685  0.0798  0.0798

 Free energy of the ion-electron system (eV)
  ---------------------------------------------------
  alpha Z        PSCENC =      1889.79557107
  Ewald energy   TEWEN  =    -37542.44524065
  -Hartree energ DENC   =    -13266.40562928
  -exchange      EXHF   =         0.00000000
  -V(xc)+E(xc)   XCENC  =      1922.70158092
  PAW double counting   =     53011.62659545   -55286.25156002
  entropy T*S    EENTRO =        -0.09278955
  eigenvalues    EBANDS =       659.68493150
  atomic energy  EATOM  =     48247.08154143
  Solvation  Ediel_sol  =         0.00000000
  ---------------------------------------------------
  free energy    TOTEN  =      -364.30499913 eV

  energy without entropy =     -364.21220958  energy(sigma->0) =     -364.25860436


--------------------------------------------------------------------------------------------------------




--------------------------------------- Iteration      1(  25)  ---------------------------------------


    POTLOK:  cpu time    0.1411: real time    0.1414
    SETDIJ:  cpu time    0.0244: real time    0.0244
     EDDAV:  cpu time   72.7673: real time   72.9401
    CHARGE:  cpu time    2.0915: real time    2.0965
    MIXING:  cpu time    0.0066: real time    0.0066
    --------------------------------------------
      LOOP:  cpu time   75.0309: real time   75.2091

 eigenvalue-minimisations  : 25760
 total energy-change (2. order) :-0.1619493E+00  (-0.1376607E+00)
 number of electron     512.0000049 magnetization      20.3870974
 augmentation part      218.6902993 magnetization      14.9553941

 Broyden mixing:
  rms(total) = 0.10726E+01    rms(broyden)= 0.10723E+01
  rms(prec ) = 0.15907E+01
  weight for this iteration     100.00

 eigenvalues of (default mixing * dielectric matrix)
  average eigenvalue GAMMA=   0.4402
  1.8119  1.4940  1.4940  0.8841  0.5373  0.5373  0.4143  0.4143  0.1603  0.1269
  0.1269  0.0895  0.0895  0.1196  0.1114  0.0992  0.0685  0.0685  0.0783  0.0783

 Free energy of the ion-electron system (eV)
  ---------------------------------------------------
  alpha Z        PSCENC =      1889.79557107
  Ewald energy   TEWEN  =    -37542.44524065
  -Hartree energ DENC   =    -13268.34599299
[...]
   -.132E+03 0.126E+03 0.208E+03   0.132E+03 -.127E+03 -.211E+03   0.187E+01 0.857E+00 0.231E+01   -.781E-01 0.141E-01 0.282E-01
   0.183E+03 -.120E+03 0.134E+03   -.185E+03 0.136E+03 -.133E+03   -.150E+01 -.268E+01 -.315E+00   -.482E-01 -.410E-01 -.149E+00
   -.372E+03 0.263E+03 0.153E+03   0.373E+03 -.264E+03 -.156E+03   0.485E+00 0.432E-01 0.253E+01   -.213E-01 0.484E-01 -.826E-01
   -.389E+03 0.254E+02 0.241E+03   0.387E+03 -.282E+02 -.239E+03   0.376E+01 0.209E+01 -.194E+01   -.478E-01 -.294E-01 0.199E-01
   0.196E+03 0.226E+03 -.256E+03   -.195E+03 -.227E+03 0.258E+03   -.268E+01 -.253E+00 -.695E+00   -.523E-01 0.567E-01 -.877E-01
   -.177E+02 0.314E+02 0.881E+01   0.181E+02 -.322E+02 -.801E+01   0.289E-01 0.863E+00 -.124E+01   -.752E-01 0.422E-01 0.103E+00
   -.252E+03 0.125E+03 -.227E+03   0.251E+03 -.122E+03 0.229E+03   0.385E+01 -.279E+01 -.939E+00   0.554E-01 0.507E-02 0.753E-01
   -.308E+03 -.844E+02 -.520E+02   0.310E+03 0.865E+02 0.554E+02   0.251E+01 0.119E+01 -.277E+01   0.508E-01 -.498E-01 -.232E-01
   0.450E+02 -.427E+02 0.302E+03   -.456E+02 0.454E+02 -.302E+03   -.512E+00 -.480E+00 -.127E+01   -.122E+00 -.207E-01 -.104E+00
   -.135E+03 -.206E+03 -.229E+01   0.136E+03 0.206E+03 -.845E+00   -.584E-01 0.982E+00 0.501E+01   -.150E+00 0.347E-01 -.152E+00
   -.307E+03 0.330E+02 0.161E+03   0.315E+03 -.324E+02 -.168E+03   -.394E+01 -.200E+01 0.116E+01   0.824E-01 -.490E-01 -.187E+00
   -.124E+03 -.288E+03 0.320E+03   0.123E+03 0.288E+03 -.320E+03   0.138E+01 0.263E+01 -.397E+01   -.132E-02 0.417E-01 -.718E-01
   0.601E+02 0.499E+02 -.342E+03   -.653E+02 -.494E+02 0.348E+03   0.208E+01 -.141E+01 -.119E+01   -.171E+00 -.308E-01 0.970E-01
   0.156E+03 -.135E+03 -.194E+03   -.157E+03 0.133E+03 0.194E+03   -.244E+01 0.151E+01 0.626E+00   -.862E-01 -.389E-01 0.117E+00
   -.195E+03 0.780E+02 -.898E+02   0.191E+03 -.797E+02 0.895E+02   0.386E+01 0.953E+00 0.146E+00   -.422E-02 0.112E-01 0.828E-01
   -.317E+03 -.196E+03 0.938E+00   0.316E+03 0.194E+03 0.159E+01   0.185E+01 0.228E+01 -.264E+01   0.113E+00 0.614E-01 0.742E-01
   -.166E+02 0.106E+03 0.212E+03   0.237E+02 -.110E+03 -.227E+03   -.611E+01 0.455E+01 0.115E+02   0.421E-01 0.446E-01 -.351E-01
   0.144E+02 0.779E+01 0.126E+03   -.140E+02 -.830E+01 -.128E+03   -.811E+00 0.316E-02 0.294E+01   -.437E-01 -.241E-01 -.779E-01
   0.203E+03 0.441E+01 -.114E+02   -.213E+03 -.896E+00 0.126E+02   0.871E+01 -.327E+01 -.128E+01   0.265E-01 -.854E-01 -.196E-01
   0.298E+03 0.150E+02 0.377E+01   -.319E+03 -.146E+02 -.754E-02   0.153E+02 0.564E+00 -.471E+01   -.314E-01 -.644E-02 -.771E-01
   -.116E+03 0.128E+03 -.981E+02   0.122E+03 -.139E+03 0.101E+03   -.331E+01 0.109E+02 -.328E+01   -.428E-01 0.730E-02 0.269E-01
   -.667E+02 0.125E+03 -.125E+03   0.751E+02 -.131E+03 0.131E+03   -.699E+01 0.666E+01 -.575E+01   -.637E-01 0.404E-02 0.586E-01
   0.160E+03 0.579E+02 -.165E+03   -.167E+03 -.561E+02 0.195E+03   0.343E+01 -.150E+01 -.156E+02   0.486E-01 0.513E-01 0.798E-01
   0.133E+03 0.135E+03 -.192E+03   -.141E+03 -.138E+03 0.209E+03   0.759E+01 0.244E+01 -.146E+02   0.987E-01 -.987E-03 0.319E-01
   0.569E+02 -.153E+03 0.114E+03   -.709E+02 0.158E+03 -.133E+03   0.155E+02 -.297E+01 0.103E+02   -.478E-01 -.779E-01 -.463E-01
   -.490E+02 0.522E+02 0.136E+03   0.564E+02 -.562E+02 -.141E+03   -.782E+01 0.378E+01 0.529E+01   0.628E-01 0.472E-01 0.777E-02
   0.180E+03 -.144E+03 0.137E+03   -.192E+03 0.153E+03 -.143E+03   0.105E+02 -.821E+01 0.485E+01   0.112E+00 0.690E-01 -.200E-03
   0.154E+03 0.204E+03 0.640E+02   -.155E+03 -.237E+03 -.562E+02   0.444E+01 0.183E+02 -.666E+01   0.108E+00 0.390E-01 0.368E-01
   -.638E+02 -.194E+01 -.109E+03   0.700E+02 -.875E+01 0.114E+03   -.616E+01 0.100E+02 -.569E+01   -.299E-01 0.971E-02 0.548E-01
   -.785E+02 0.162E+02 -.110E+03   0.813E+02 -.191E+02 0.113E+03   -.202E+01 -.308E-01 -.145E+01   -.122E+00 0.212E-01 0.685E-02
   0.229E+03 -.226E+03 -.105E+03   -.235E+03 0.233E+03 0.106E+03   0.479E+01 -.821E+01 0.123E+01   0.335E-01 -.548E-01 0.183E-01
   0.194E+03 -.598E+02 -.188E+03   -.203E+03 0.622E+02 0.201E+03   0.913E+01 -.210E+01 -.915E+01   0.655E-01 -.472E-02 -.956E-01
   -.222E+03 -.287E+02 0.128E+03   0.226E+03 0.374E+02 -.132E+03   -.152E+01 -.831E+01 0.394E+01   -.803E-01 -.143E+00 -.535E-01
   -.132E+03 0.729E+02 0.610E+02   0.134E+03 -.775E+02 -.658E+02   -.248E+01 0.431E+01 0.532E+01   0.966E-02 0.214E-01 0.539E-01
   0.410E+02 0.727E+02 0.110E+03   -.479E+02 -.799E+02 -.106E+03   0.488E+01 0.634E+01 -.456E+01   -.456E-01 0.321E-01 0.447E-01
   0.268E+02 0.277E+03 0.117E+03   -.310E+02 -.307E+03 -.125E+03   0.551E+01 0.177E+02 0.663E+01   -.216E-01 0.149E+00 -.122E+00
   -.782E+02 -.976E+02 -.206E+03   0.785E+02 0.103E+03 0.210E+03   0.292E+00 -.374E+01 -.180E+01   0.481E-01 0.674E-01 0.301E-01
   -.204E+03 0.213E+03 -.292E+02   0.216E+03 -.223E+03 0.305E+02   -.109E+02 0.534E+01 -.188E+01   0.903E-01 0.184E-01 -.639E-01
   0.134E+03 -.711E+02 -.232E+03   -.148E+03 0.781E+02 0.248E+03   0.911E+01 -.537E+01 -.150E+02   -.422E-01 -.446E-01 -.571E-01
   0.129E+03 0.784E+02 -.438E+02   -.142E+03 -.828E+02 0.457E+02   0.910E+01 0.496E+01 -.130E+01   -.126E+00 -.204E-01 0.101E+00
   -.940E+02 -.218E+03 -.802E+02   0.930E+02 0.226E+03 0.945E+02   0.987E-01 -.645E+01 -.954E+01   0.249E-01 0.131E+00 -.403E-01
   -.163E+03 0.103E+03 0.156E+03   0.170E+03 -.111E+03 -.156E+03   -.632E+01 0.726E+01 -.153E+01   -.613E-01 -.522E-01 -.117E+00
   -.353E+02 -.968E+02 0.257E+03   0.386E+02 0.984E+02 -.274E+03   -.396E+01 -.168E+01 0.143E+02   -.897E-01 -.310E-01 -.529E-01
   0.316E+02 0.444E+02 0.812E+02   -.328E+02 -.493E+02 -.836E+02   0.719E+00 0.422E+01 0.283E+01   -.190E+00 -.708E-01 -.200E+00
   -.211E+03 -.501E+02 -.109E+03   0.228E+03 0.519E+02 0.113E+03   -.140E+02 -.107E+01 -.388E+01   -.531E-02 -.618E-01 0.336E-01
   -.153E+03 -.139E+02 -.166E+03   0.165E+03 0.101E+02 0.176E+03   -.119E+02 0.436E+01 -.897E+01   0.216E+00 0.520E-02 0.145E+00
   0.145E+02 -.140E+03 -.877E+02   -.193E+02 0.145E+03 0.900E+02   0.385E+01 -.458E+01 -.271E+01   -.788E-01 0.708E-01 0.733E-01
   0.325E+02 0.118E+02 -.650E+02   -.402E+02 -.121E+02 0.629E+02   0.822E+01 0.373E-01 0.197E+01   -.524E-01 0.301E-01 0.119E+00
 -----------------------------------------------------------------------------------------------
   -.419E+02 -.711E+02 0.631E+02   0.102E-11 0.263E-12 0.284E-13   0.423E+02 0.708E+02 -.626E+02   -.430E+00 0.252E+00 -.477E+00
 
 
 POSITION                                       TOTAL-FORCE (eV/Angst)
 -----------------------------------------------------------------------------------
      0.28097      0.04422      8.60182        -1.465095      0.221676     -0.043803
      0.02464      2.17618      2.53953         0.373155     -1.790462    -14.953678
      1.67165      8.14638      2.18423         4.633672     -0.649202      0.289056
      2.09527      2.02363      0.15441         0.355307      0.309511     -0.118174
      0.11200      0.39161      4.52265         0.328743     -0.616738     -2.565321
      0.11620      2.25517      6.27247        -2.836128     -1.436660      1.601192
      1.87016      8.09858      6.32227        -0.309706      1.053251     -0.309318
      2.15454      2.10688      3.93129         0.900705     -1.222239      3.621670
      8.55113      4.25811      8.39878        -0.091995     -0.874952      0.588806
      8.42148      5.81414      1.86049        -3.392451     14.695375     -0.854172
      2.03827      4.23209      2.27559        -0.593866     -0.320044     -4.701535
      1.83265      6.26880      0.15839         3.102521     -0.746030     -1.260589
      0.00629      4.06139      4.55150        -2.402794      1.737322     -3.874964
      8.60981      6.21684      6.36518         0.433933      0.350971     -0.277651
      1.79721      3.87434      5.90511         2.682600      0.627939      1.987728
      2.22389      5.91213      4.08143         0.365860      1.596598      9.241585
      3.87941      8.55103      0.05997         2.344152     -0.136502     -0.727961
      4.11828      1.54458      2.29567        -3.305937     12.778270      0.287609
      6.20967      0.07964      1.98382         1.235150     -0.767339     -0.886673
      6.08083      1.87437      8.59545         1.657884     -0.720598     -0.213388
      4.32617      8.46309      3.98053        -2.141610     -1.051931      1.341437
      3.95715      1.95282      6.50102         0.410652      0.136104     -0.338361
      6.05902      8.47788      6.14938         3.689282      0.183742      1.096645
      6.28283      1.73986      3.79322         4.395916      3.229692      0.640553
      4.27631      3.93500      0.15898        -1.205381      2.181600     -0.846333
      3.79634      6.32146      1.78361         0.381750      0.809068      1.723558
      5.85553      4.24529      2.26471         3.953150     -1.453112     -5.390803
      6.28674      6.18631      0.11837         0.503726      2.197045     -4.037694
      4.59260      4.19496      3.73749        -3.304522     -0.976828      5.703172
      4.47405      6.03574      6.31205        -4.091624     -0.471162      0.453642
      5.93049      4.09292      6.43125        -0.178569     -0.792906     -0.120485
      6.07335      6.33547      4.11941         1.318264      0.172071     -0.038091
      1.78345      2.19532      2.26564         1.047367      0.366069     -3.729587
      2.10895      8.43671      0.20958        -0.436525     -0.526674      0.074604
      0.24384      2.04464      8.40923        -0.767731      0.161916     -0.136430
      0.06626      8.35853      2.07773        -5.820995      0.906241     -1.014799
      1.85982      1.84752      6.24627         2.894792     -0.070356     -0.465826
      1.92124      0.12057      3.98699         1.287122      0.686177     -0.016954
      8.45321      2.31322      3.97039        -3.549257      0.311645     14.077580
      8.48318      0.19008      6.18469        -0.436887     -0.803897      2.784680
      1.93692      6.23301      2.59437         1.489060      1.938907     -9.116539
      1.90270      4.30831      8.50292        -0.280665     -0.171845      0.635909
      0.07157      6.29896      8.60787        -1.488238      0.358175     -0.689311
      0.10635      4.41509      2.07833         3.269863    -14.410754      1.180988
      2.07813      6.32117      6.08067         0.026724     -0.653975     -0.241316
      1.85099      4.08626      4.00388         0.630785     -2.883170      2.202970
      0.26358      6.06707      3.91367        -1.349942     -0.491301      1.614579
      8.53256      4.28837      6.25669        -0.729887      0.299638      3.556564
      5.87726      2.17022      1.88673         1.851253      0.278620      0.138683
      6.22400      8.46389      8.39980        -0.171501     -0.276564      0.574570
      4.31669      2.16525      8.53364        -2.085571     -0.853705     -1.318348
      4.29718      0.07229      2.13721         1.340598    -12.186159     -2.102876
      6.23218      1.75484      5.76609         0.665275      1.668676      1.785736
      6.08093      0.09327      4.28756         1.300785     -4.635922     -0.728409
      4.65287      1.95053      4.08291        -4.771229      1.538904      0.541267
      4.39204      8.53753      6.55165        -4.005541      0.472712      0.687846
      6.01412      5.97829      1.73476        -0.894942      1.887963      4.723053
      6.18225      4.37268      0.18130         0.918216     -1.583098     -1.443700
      3.90800      5.86215      0.10800        -0.669381     -0.117252     -1.846560
      3.87746      3.87862      2.04723        -0.651516     -0.791532      0.216311
      6.14688      6.32396      6.10245         3.252518      0.746773      0.138361
      6.53600      4.29298      3.94230         0.890753      0.522429      1.253234
      4.21263      6.04450      4.12613        -1.036001      0.342343     -0.328826
      3.97305      4.06620      6.10720         0.533954     -0.284512     -0.025112
 -----------------------------------------------------------------------------------
    total drift:                                0.000435     -0.007174      0.002687


--------------------------------------------------------------------------------------------------------



  FREE ENERGIE OF THE ION-ELECTRON SYSTEM (eV)
  ---------------------------------------------------
  free  energy   TOTEN  =      -364.4287341458 eV

  energy  without entropy=     -364.3505136904  energy(sigma->0) =     -364.38962392
 


--------------------------------------------------------------------------------------------------------


    POTLOK:  cpu time    0.1649: real time    0.1653


--------------------------------------------------------------------------------------------------------


     LOOP+:  cpu time 6127.2055: real time 6142.6405
    4ORBIT:  cpu time    0.0000: real time    0.0000

volume of typ            1:    31.7 %

volume of typ            2:     8.1 %
 
total charge     
 
# of ion       s       p       d       tot
------------------------------------------
    1        0.186   0.176   7.981   8.343
    2        0.335   0.374   8.125   8.834
    3        0.273   0.314   7.975   8.562
    4        0.185   0.168   7.971   8.324
    5        0.251   0.261   7.987   8.498
    6        0.215   0.231   7.976   8.422
    7        0.201   0.170   7.962   8.333
    8        0.239   0.250   8.031   8.521
    9        0.182   0.168   7.962   8.312
   10        0.305   0.357   8.082   8.744
   11        0.245   0.302   7.978   8.525
   12        0.229   0.230   7.984   8.443
   13        0.257   0.325   7.987   8.569
   14        0.167   0.145   7.976   8.287
   15        0.203   0.221   8.000   8.424
   16        0.293   0.389   8.012   8.693
   17        0.199   0.189   7.989   8.377
   18        0.315   0.393   8.079   8.787
   19        0.179   0.159   8.027   8.365
   20        0.207   0.202   7.969   8.377
   21        0.213   0.219   8.034   8.466
   22        0.179   0.163   7.920   8.261
   23        0.245   0.272   7.925   8.441
   24        0.284   0.355   7.989   8.628
   25        0.233   0.270   7.947   8.449
   26        0.233   0.217   8.007   8.457
   27        0.276   0.320   8.017   8.613
   28        0.247   0.245   8.022   8.514
   29        0.249   0.274   8.021   8.545
   30        0.223   0.219   7.961   8.403
   31        0.168   0.131   7.996   8.295
   32        0.191   0.183   7.977   8.352
   33        1.272   2.792   0.013   4.076
   34        1.259   2.773   0.011   4.043
   35        1.269   2.718   0.005   3.992
   36        1.278   2.743   0.010   4.031
   37        1.269   2.735   0.007   4.011
   38        1.273   2.733   0.007   4.012
   39        1.279   2.853   0.027   4.159
   40        1.276   2.735   0.009   4.019
   41        1.291   2.803   0.019   4.114
   42        1.280   2.692   0.004   3.976
   43        1.268   2.753   0.009   4.031
   44        1.291   2.818   0.022   4.131
   45        1.268   2.731   0.006   4.005
   46        1.268   2.823   0.015   4.106
   47        1.291   2.677   0.004   3.972
   48        1.257   2.794   0.013   4.064
   49        1.276   2.750   0.008   4.034
   50        1.275   2.677   0.003   3.955
   51        1.265   2.781   0.011   4.056
   52        1.275   2.841   0.025   4.141
   53        1.292   2.678   0.004   3.974
   54        1.277   2.785   0.014   4.075
   55        1.289   2.753   0.012   4.054
   56        1.275   2.734   0.007   4.016
   57        1.279   2.769   0.012   4.061
   58        1.281   2.725   0.007   4.013
   59        1.276   2.737   0.008   4.022
   60        1.268   2.783   0.010   4.061
   61        1.263   2.758   0.009   4.031
   62        1.274   2.736   0.008   4.018
   63        1.266   2.756   0.008   4.029
   64        1.270   2.708   0.005   3.983
--------------------------------------------------
tot          48.19   96.04  256.20  400.43
 
magnetization (x)
 
# of ion       s       p       d       tot
------------------------------------------
    1        0.004   0.001   0.243   0.248
    2        0.002   0.002   0.144   0.149
    3        0.003   0.020   0.997   1.020
    4        0.010   0.005   1.049   1.065
    5        0.009   0.018   0.995   1.022
    6       -0.003  -0.007  -0.933  -0.943
    7        0.013   0.008   1.143   1.164
    8        0.003  -0.001  -0.066  -0.064
    9        0.002   0.002   1.062   1.065
   10        0.005   0.000   0.323   0.327
   11        0.001  -0.001  -0.504  -0.504
   12        0.004   0.002   0.407   0.413
   13        0.003   0.006   0.652   0.662
   14       -0.001   0.002   1.186   1.186
   15        0.003   0.005   1.059   1.067
   16        0.004   0.008   0.364   0.376
   17        0.005   0.001   0.872   0.879
   18        0.004   0.006   0.357   0.367
   19        0.004   0.005   0.889   0.899
   20        0.003   0.013   1.106   1.121
   21        0.005   0.005   0.536   0.546
   22       -0.001   0.000   1.218   1.217
   23       -0.002  -0.006  -0.666  -0.674
   24       -0.000  -0.007  -0.348  -0.355
   25        0.001  -0.003  -0.551  -0.553
   26        0.005   0.006   0.823   0.835
   27       -0.001   0.003   0.306   0.308
   28        0.001  -0.002  -0.231  -0.232
   29        0.000   0.008   0.974   0.983
   30       -0.009  -0.009  -0.969  -0.986
   31        0.004   0.004   1.024   1.031
   32        0.001   0.006   1.086   1.093
   33       -0.001   0.005  -0.000   0.004
   34        0.013   0.139   0.000   0.152
   35        0.001  -0.018   0.000  -0.016
   36        0.011   0.227   0.001   0.238
   37        0.004   0.097  -0.000   0.101
   38        0.008   0.170   0.000   0.178
   39        0.005   0.049   0.000   0.054
   40        0.004   0.153   0.000   0.157
   41        0.003   0.119  -0.000   0.122
   42        0.004   0.066   0.000   0.071
   43        0.007   0.091   0.000   0.098
   44        0.003   0.116   0.000   0.119
   45        0.008   0.196   0.000   0.203
   46        0.006   0.085  -0.000   0.091
   47        0.003   0.123   0.000   0.126
   48        0.010   0.152   0.000   0.163
   49        0.008   0.104   0.000   0.112
   50        0.004   0.101   0.000   0.106
   51        0.012   0.178   0.000   0.190
   52        0.007   0.106  -0.000   0.113
   53       -0.004  -0.009  -0.000  -0.013
   54       -0.002   0.001  -0.000  -0.001
   55        0.004   0.098   0.000   0.102
   56       -0.000   0.062  -0.000   0.062
   57        0.001   0.031  -0.000   0.032
   58       -0.004   0.014  -0.000   0.010
   59        0.002   0.056   0.000   0.059
   60       -0.002  -0.003   0.000  -0.005
   61        0.002   0.019  -0.000   0.021
   62        0.007   0.166  -0.000   0.173
   63        0.010   0.094   0.000   0.104
   64        0.005   0.088   0.000   0.092
--------------------------------------------------
tot           0.22    2.98   14.55   17.75
 

 total amount of memory used by VASP MPI-rank0   276600. kBytes
=======================================================================

   base      :      30000. kBytes
   nonlr-proj:      37830. kBytes
   fftplans  :       5538. kBytes
   grid      :      31719. kBytes
   one-center:       1990. kBytes
   wavefun   :     169523. kBytes
 
  
  
 General timing and accounting informations for this job:
 ========================================================
  
                  Total CPU time used (sec):     6172.329
                            User time (sec):     6160.126
                          System time (sec):       12.203
                         Elapsed time (sec):     6191.575
  
                   Maximum memory used (kb):      350868.
                   Average memory used (kb):           0.
  
                          Minor page faults:        42212
                          Major page faults:           42
                 Voluntary context switches:         1207
