 vasp.5.4.4.18Apr17-6-g9f103f2a35 (build May 12 2020 04:58:55) complex          
  
 MD_VERSION_INFO: Compiled 2020-05-12T11:58:55-UTC in devlin.sd.materialsdesign.
 com:/home/medea2/data/build/wwolf/vasp-gpu5.4.4/13047/x86_64/src/src/build/std 
 from svn 13047
 
 This VASP executable licensed from Materials Design, Inc.
 
 executed on                        Lin64 date 2023.03.23  16:45:23
 running on   16 total cores
 distrk:  each k-point on   16 cores,    1 groups
 distr:  one band on NCORES_PER_BAND=   1 cores,   16 groups


--------------------------------------------------------------------------------------------------------


 INCAR:
 POTCAR:    PAW_PBE Ni 02Aug2007                  
 POTCAR:    PAW_PBE O 08Apr2002                   

 ----------------------------------------------------------------------------- 
|                                                                             |
|           W    W    AA    RRRRR   N    N  II  N    N   GGGG   !!!           |
|           W    W   A  A   R    R  NN   N  II  NN   N  G    G  !!!           |
|           W    W  A    A  R    R  N N  N  II  N N  N  G       !!!           |
|           W WW W  AAAAAA  RRRRR   N  N N  II  N  N N  G  GGG   !            |
|           WW  WW  A    A  R   R   N   NN  II  N   NN  G    G                |
|           W    W  A    A  R    R  N    N  II  N    N   GGGG   !!!           |
|                                                                             |
|      For optimal performance we recommend to set                            |
|        NCORE= 4 - approx SQRT( number of cores)                             |
|      NCORE specifies how many cores store one orbital (NPAR=cpu/NCORE).     |
|      This setting can  greatly improve the performance of VASP for DFT.     |
|      The default,   NCORE=1            might be grossly inefficient         |
|      on modern multi-core architectures or massively parallel machines.     |
|      Do your own testing !!!!                                               |
|      Unfortunately you need to use the default for GW and RPA calculations. |
|      (for HF NCORE is supported but not extensively tested yet)             |
|                                                                             |
 ----------------------------------------------------------------------------- 

 POTCAR:    PAW_PBE Ni 02Aug2007                  
  local pseudopotential read in
  partial core-charges read in
  partial kinetic energy density read in
  atomic valenz-charges read in
  non local Contribution for L=           2  read in
    real space projection operators read in
  non local Contribution for L=           2  read in
    real space projection operators read in
  non local Contribution for L=           0  read in
    real space projection operators read in
  non local Contribution for L=           0  read in
    real space projection operators read in
  non local Contribution for L=           1  read in
    real space projection operators read in
  non local Contribution for L=           1  read in
    real space projection operators read in
    PAW grid and wavefunctions read in
 
   number of l-projection  operators is LMAX  =           6
   number of lm-projection operators is LMMAX =          18
 
 POTCAR:    PAW_PBE O 08Apr2002                   
  local pseudopotential read in
  partial core-charges read in
  partial kinetic energy density read in
  kinetic energy density of atom read in
  atomic valenz-charges read in
  non local Contribution for L=           0  read in
    real space projection operators read in
  non local Contribution for L=           0  read in
    real space projection operators read in
  non local Contribution for L=           1  read in
    real space projection operators read in
  non local Contribution for L=           1  read in
    real space projection operators read in
    PAW grid and wavefunctions read in
 
   number of l-projection  operators is LMAX  =           4
   number of lm-projection operators is LMMAX =           8
 
 Optimization of the real space projectors (new method)

 maximal supplied QI-value         = 16.25
 optimisation between [QCUT,QGAM] = [ 11.38, 22.75] = [ 36.24,144.96] Ry 
 Optimized for a Real-space Cutoff    1.47 Angstroem

   l    n(q)    QCUT    max X(q) W(low)/X(q) W(high)/X(q)  e(spline) 
   2      9    11.376    60.317    0.17E-03    0.16E-04    0.16E-06
   2      9    11.376    55.921    0.17E-03    0.16E-04    0.17E-06
   0     10    11.376    51.690    0.45E-04    0.60E-04    0.21E-06
   0     10    11.376    30.015    0.37E-04    0.55E-04    0.19E-06
   1     10    11.376    18.849    0.83E-04    0.11E-03    0.92E-07
   1     10    11.376    14.624    0.69E-04    0.92E-04    0.82E-07
 Optimization of the real space projectors (new method)

 maximal supplied QI-value         = 24.76
 optimisation between [QCUT,QGAM] = [ 11.39, 22.77] = [ 36.31,145.25] Ry 
 Optimized for a Real-space Cutoff    1.10 Angstroem

   l    n(q)    QCUT    max X(q) W(low)/X(q) W(high)/X(q)  e(spline) 
   0      7    11.387    20.381    0.22E-03    0.48E-03    0.18E-06
   0      7    11.387    15.268    0.22E-03    0.52E-03    0.19E-06
   1      7    11.387     5.964    0.22E-03    0.73E-03    0.24E-06
   1      7    11.387     5.382    0.19E-03    0.60E-03    0.21E-06

 ----------------------------------------------------------------------------- 
|                                                                             |
|  ADVICE TO THIS USER RUNNING 'VASP/VAMP'   (HEAR YOUR MASTER'S VOICE ...):  |
|                                                                             |
|      You enforced a specific xc-type in the INCAR file,                     |
|      a different type was found on the POTCAR file                          |
|          I HOPE YOU KNOW, WHAT YOU ARE  DOING                               |
|                                                                             |
 ----------------------------------------------------------------------------- 

  PAW_PBE Ni 02Aug2007                  :
 energy of atom  1       EATOM=-1077.6739
 kinetic energy error for atom=    0.0030 (will be added to EATOM!!)
  PAW_PBE O 08Apr2002                   :
 energy of atom  2       EATOM= -432.3788
 kinetic energy error for atom=    0.0224 (will be added to EATOM!!)
 
 
 POSCAR: NiO_Fm-3m_scale_1_025_disp_0_20_round_2 
  positions in direct lattice
  No initial velocities read in
 exchange correlation table for  LEXCH =       14
   RHO(1)=    0.500       N(1)  =     2000
   RHO(2)=  100.500       N(2)  =     4000
 


--------------------------------------------------------------------------------------------------------


 ion  position               nearest neighbor table
   1  0.990  0.992  0.002-  35 1.99  40 2.02  36 2.04  50 2.09  34 2.09  43 2.44   3 2.78   2 2.81
                            10 3.00   4 3.04   7 3.05
   2  0.981  0.239  0.226-  36 1.68  49 1.88  33 2.06  44 2.08  35 2.09  39 2.15   3 2.63   9 2.72
                             1 2.81  24 2.86  27 2.89  13 2.90   5 2.91   4 2.92   8 3.08
   3  0.225  0.044  0.227-  33 1.55  36 1.59  52 1.86  34 2.04  38 2.21   4 2.61   2 2.63   8 2.69
                             1 2.78   5 2.84  18 2.98  17 3.00  21 3.07
   4  0.242  0.251  0.997-  51 1.95  42 1.98  35 2.17  33 2.34  34 2.47  37 2.47   9 2.57   3 2.61
                            18 2.71  15 2.72   7 2.82  25 2.87   2 2.92  22 3.01   1 3.04   6 3.06
   5  0.997  0.995  0.470-  38 1.87  36 2.06  54 2.19  47 2.27  39 2.42  40 2.47  16 2.69   3 2.84
                            24 2.86   8 2.89   2 2.91  19 2.92
   6  0.001  0.258  0.725-  48 1.76  37 2.08  39 2.11  35 2.15  13 2.33  40 2.34  53 2.40  15 2.88
                             8 2.89   7 2.98  24 3.01   9 3.01   4 3.06  31 3.08
   7  0.256  0.016  0.758-  37 1.74  56 2.10  34 2.12  40 2.28  38 2.32  45 2.35  17 2.40  22 2.79
                             4 2.82  21 2.87   8 2.96   6 2.98   1 3.05
   8  0.242  0.234  0.483-  33 1.78  55 1.79  37 1.89  38 1.98  46 2.09  39 2.21   3 2.69  21 2.70
                            13 2.84   5 2.89   6 2.89  22 2.90  15 2.94   7 2.96  29 3.07   2 3.08
   9  0.033  0.473  0.009-  43 1.97  44 1.98  35 2.12  42 2.24  48 2.46  10 2.49  11 2.57   4 2.57
                             2 2.72  12 2.82  20 2.98  28 3.00   6 3.01  15 3.01
  10  0.014  0.698  0.200-  43 1.75  44 1.88  11 2.12  41 2.34  47 2.38   9 2.49  28 2.68  12 2.69
                            27 2.98   1 3.00  16 3.07
  11  0.207  0.545  0.249-  41 1.55  44 1.59  10 2.12  60 2.20  42 2.33  26 2.39   9 2.57  12 2.71
                            16 2.80
  12  0.250  0.727  0.988-  59 1.77  34 1.96  42 2.13  45 2.14  43 2.19  41 2.24  17 2.45  10 2.69
                            11 2.71  26 2.75   9 2.82  25 2.98  15 3.05  30 3.06
  13  0.970  0.430  0.512-  39 1.29  62 1.76  48 1.79   6 2.33  44 2.34  47 2.51  24 2.54   8 2.84
                            31 2.87   2 2.90  14 3.00  27 3.02
  14  0.964  0.718  0.721-  47 2.04  48 2.14  61 2.14  40 2.27  43 2.32  45 2.41  16 2.63  31 2.71
                            28 2.96  13 3.00  32 3.06
  15  0.279  0.455  0.750-  46 1.70  64 1.90  37 2.07  42 2.10  22 2.37  48 2.39  45 2.40  29 2.71
                             4 2.72  25 2.81   6 2.88  30 2.88   8 2.94   9 3.01  12 3.05
  16  0.195  0.748  0.513-  47 1.79  45 1.92  38 2.15  41 2.37  46 2.42  63 2.46  14 2.63   5 2.69
                            11 2.80  30 3.01  10 3.07
  17  0.441  0.944  0.962-  34 1.76  56 1.98  59 2.15  52 2.39   7 2.40  12 2.45  30 2.84   3 3.00

  18  0.489  0.277  0.200-  51 1.58  60 1.96  49 2.32  25 2.37  33 2.39  55 2.48   4 2.71  20 2.71
                            27 2.72   3 2.98
  19  0.724  0.959  0.258-  54 1.87  50 2.03  57 2.10  49 2.35  52 2.43  32 2.57  24 2.91   5 2.92
                            21 2.95  28 3.04
  20  0.719  0.313  0.978-  58 1.35  51 2.15  49 2.28  25 2.31  35 2.36  31 2.54  27 2.64  18 2.71
                            22 2.94   9 2.98
  21  0.471  0.010  0.494-  55 1.97  56 2.10  38 2.13  52 2.15  54 2.25  63 2.35   8 2.70  23 2.84
                             7 2.87  22 2.90  19 2.95  24 2.98  32 3.02  30 3.05   3 3.07
  22  0.479  0.260  0.730-  64 1.84  37 2.03  55 2.04  53 2.06  56 2.25  15 2.37  51 2.40  29 2.72
                             7 2.79  23 2.84  21 2.90   8 2.90  25 2.91  31 2.91  20 2.94   4 3.01
  23  0.716  0.020  0.726-  56 1.81  53 1.92  61 1.96  54 2.12  40 2.33  50 2.51  24 2.77  22 2.84
                            21 2.84
  24  0.750  0.228  0.474-  53 1.80  54 1.99  49 2.02  39 2.02  62 2.08  55 2.50  13 2.54  23 2.77
                             5 2.86   2 2.86  27 2.88  19 2.91  21 2.98   6 3.01
  25  0.499  0.475  0.000-  42 1.69  51 1.84  59 1.87  58 1.97  60 2.06  20 2.31  18 2.37  64 2.39
                            15 2.81  26 2.86  27 2.87   4 2.87  22 2.91  31 2.92  28 2.92  12 2.98
  26  0.444  0.700  0.249-  41 1.33  60 1.66  57 2.03  59 2.09  52 2.38  11 2.39  63 2.43  12 2.75
                            29 2.83  25 2.86  32 2.88
  27  0.738  0.480  0.243-  58 1.71  57 2.02  49 2.07  62 2.29  60 2.31  44 2.46  20 2.64  18 2.72
                            28 2.73  25 2.87  24 2.88   2 2.89  32 2.90  10 2.98  13 3.02  29 3.08
  28  0.760  0.702  0.007-  43 1.95  58 2.07  57 2.17  50 2.28  10 2.68  27 2.73  31 2.82  25 2.92
                            14 2.96   9 3.00  19 3.04
  29  0.491  0.498  0.513-  64 1.73  46 1.95  63 2.00  55 2.18  60 2.30  62 2.32  30 2.54  15 2.71
                            22 2.72  32 2.74  31 2.77  26 2.83   8 3.07  27 3.08
  30  0.489  0.722  0.714-  63 1.53  61 2.01  45 2.04  64 2.07  56 2.31  59 2.45  29 2.54  31 2.76
                            32 2.76  17 2.84  15 2.88  16 3.01  21 3.05  12 3.06
  31  0.728  0.500  0.742-  64 1.94  62 1.96  53 2.21  48 2.29  61 2.43  20 2.54  14 2.71  30 2.76
                            29 2.77  28 2.82  13 2.87  22 2.91  25 2.92  32 3.07   6 3.08
  32  0.705  0.739  0.467-  57 1.83  63 1.92  61 2.13  54 2.15  62 2.35  47 2.38  19 2.57  29 2.74
                            30 2.76  26 2.88  27 2.90  21 3.02  14 3.06  31 3.07
  33  0.221  0.222  0.272-   3 1.55   8 1.78   2 2.06   4 2.34  18 2.39
  34  0.236  0.958  0.001-  17 1.76  12 1.96   3 2.04   1 2.09   7 2.12   4 2.47
  35  0.986  0.227  0.978-   1 1.99   2 2.09   9 2.12   6 2.15   4 2.17  20 2.36
  36  0.036  0.047  0.234-   3 1.59   2 1.68   1 2.04   5 2.06
  37  0.243  0.216  0.706-   7 1.74   8 1.89  22 2.03  15 2.07   6 2.08   4 2.47
  38  0.218  0.000  0.486-   5 1.87   8 1.98  21 2.13  16 2.15   3 2.21   7 2.32
  39  0.984  0.282  0.477-  13 1.29  24 2.02   6 2.11   2 2.15   8 2.21   5 2.42
  40  0.988  0.984  0.762-   1 2.02  14 2.27   7 2.28  23 2.33   6 2.34   5 2.47
  41  0.287  0.710  0.250-  26 1.33  11 1.55  12 2.24  10 2.34  16 2.37
  42  0.298  0.479  0.997-  25 1.69   4 1.98  15 2.10  12 2.13   9 2.24  11 2.33
  43  0.991  0.703  0.994-  10 1.75  28 1.95   9 1.97  12 2.19  14 2.32   1 2.44
  44  0.030  0.480  0.245-  11 1.59  10 1.88   9 1.98   2 2.08  13 2.34  27 2.46
  45  0.248  0.738  0.734-  16 1.92  30 2.04  12 2.14   7 2.35  15 2.40  14 2.41
  46  0.265  0.472  0.549-  15 1.70  29 1.95   8 2.09  16 2.42
  47  0.986  0.726  0.480-  16 1.79  14 2.04   5 2.27  32 2.38  10 2.38  13 2.51
  48  0.996  0.467  0.720-   6 1.76  13 1.79  14 2.14  31 2.29  15 2.39   9 2.46
  49  0.759  0.235  0.235-   2 1.88  24 2.02  27 2.07  20 2.28  18 2.32  19 2.35
  50  0.744  0.971  0.018-  19 2.03   1 2.09  28 2.28  23 2.51
  51  0.473  0.258  0.015-  18 1.58  25 1.84   4 1.95  20 2.15  22 2.40
  52  0.437  0.982  0.243-   3 1.86  21 2.15  26 2.38  17 2.39  19 2.43
  53  0.719  0.244  0.684-  24 1.80  23 1.92  22 2.06  31 2.21   6 2.40
  54  0.737  0.992  0.477-  19 1.87  24 1.99  23 2.12  32 2.15   5 2.19  21 2.25
  55  0.453  0.243  0.490-   8 1.79  21 1.97  22 2.04  29 2.18  18 2.48  24 2.50
  56  0.504  0.994  0.741-  23 1.81  17 1.98   7 2.10  21 2.10  22 2.25  30 2.31
  57  0.685  0.713  0.253-  32 1.83  27 2.02  26 2.03  19 2.10  28 2.17
  58  0.729  0.461  0.041-  20 1.35  27 1.71  25 1.97  28 2.07
  59  0.457  0.693  0.002-  12 1.77  25 1.87  26 2.09  17 2.15  30 2.45
  60  0.464  0.505  0.241-  26 1.66  18 1.96  25 2.06  11 2.20  29 2.30  27 2.31
  61  0.719  0.787  0.716-  23 1.96  30 2.01  32 2.13  14 2.14  31 2.43
  62  0.765  0.470  0.513-  13 1.76  31 1.96  24 2.08  27 2.29  29 2.32  32 2.35
  63  0.486  0.735  0.533-  30 1.53  32 1.92  29 2.00  21 2.35  26 2.43  16 2.46
  64  0.501  0.476  0.716-  29 1.73  22 1.84  15 1.90  31 1.94  30 2.07  25 2.39
 
  LATTYP: Found a simple cubic cell.
 ALAT       =     8.4253872500
  
  Lattice vectors:
  
 A1 = (   8.4253872500,   0.0000000000,   0.0000000000)
 A2 = (   0.0000000000,   8.4253872500,   0.0000000000)
 A3 = (   0.0000000000,   0.0000000000,   8.4253872500)


Analysis of symmetry for initial positions (statically):
=====================================================================
 Subroutine PRICEL returns:
 Original cell was already a primitive cell.
 

 Routine SETGRP: Setting up the symmetry group for a 
 simple cubic supercell.


 Subroutine GETGRP returns: Found  1 space group operations
 (whereof  1 operations were pure point group operations)
 out of a pool of 48 trial point group operations.


The static configuration has the point symmetry C_1 .


Analysis of symmetry for dynamics (positions and initial velocities):
=====================================================================
 Subroutine PRICEL returns:
 Original cell was already a primitive cell.
 

 Routine SETGRP: Setting up the symmetry group for a 
 simple cubic supercell.


 Subroutine GETGRP returns: Found  1 space group operations
 (whereof  1 operations were pure point group operations)
 out of a pool of 48 trial point group operations.


The dynamic configuration has the point symmetry C_1 .


Analysis of structural, dynamic, and magnetic symmetry:
=====================================================================
 Subroutine PRICEL returns:
 Original cell was already a primitive cell.
 

 Routine SETGRP: Setting up the symmetry group for a 
 simple cubic supercell.


 Subroutine GETGRP returns: Found  1 space group operations
 (whereof  1 operations were pure point group operations)
 out of a pool of 48 trial point group operations.


The magnetic configuration has the point symmetry C_1 .


 Subroutine INISYM returns: Found  1 space group operations
 (whereof  1 operations are pure point group operations),
 and found     1 'primitive' translations

 
 
 KPOINTS: Automatic mesh                          

Automatic generation of k-mesh.
Space group operators:
 irot       det(A)        alpha          n_x          n_y          n_z        tau_x        tau_y        tau_z
    1     1.000000     0.000000     1.000000     0.000000     0.000000     0.000000     0.000000     0.000000
 
 Subroutine IBZKPT returns following result:
 ===========================================
 
 Found     14 irreducible k-points:
 
 Following reciprocal coordinates:
            Coordinates               Weight
  0.000000  0.000000  0.000000      1.000000
  0.333333  0.000000  0.000000      2.000000
  0.000000  0.333333  0.000000      2.000000
  0.333333  0.333333  0.000000      2.000000
 -0.333333  0.333333  0.000000      2.000000
  0.000000  0.000000  0.333333      2.000000
  0.333333  0.000000  0.333333      2.000000
 -0.333333  0.000000  0.333333      2.000000
  0.000000  0.333333  0.333333      2.000000
  0.333333  0.333333  0.333333      2.000000
 -0.333333  0.333333  0.333333      2.000000
  0.000000 -0.333333  0.333333      2.000000
  0.333333 -0.333333  0.333333      2.000000
 -0.333333 -0.333333  0.333333      2.000000
 
 Following cartesian coordinates:
            Coordinates               Weight
  0.000000  0.000000  0.000000      1.000000
  0.039563  0.000000  0.000000      2.000000
  0.000000  0.039563  0.000000      2.000000
  0.039563  0.039563  0.000000      2.000000
 -0.039563  0.039563  0.000000      2.000000
  0.000000  0.000000  0.039563      2.000000
  0.039563  0.000000  0.039563      2.000000
 -0.039563  0.000000  0.039563      2.000000
  0.000000  0.039563  0.039563      2.000000
  0.039563  0.039563  0.039563      2.000000
 -0.039563  0.039563  0.039563      2.000000
  0.000000 -0.039563  0.039563      2.000000
  0.039563 -0.039563  0.039563      2.000000
 -0.039563 -0.039563  0.039563      2.000000
 


--------------------------------------------------------------------------------------------------------




 Dimension of arrays:
   k-points           NKPTS =     14   k-points in BZ     NKDIM =     14   number of bands    NBANDS=    352
   number of dos      NEDOS =    301   number of ions     NIONS =     64
   non local maximal  LDIM  =      6   non local SUM 2l+1 LMDIM =     18
   total plane-waves  NPLWV = 262144
   max r-space proj   IRMAX =   5934   max aug-charges    IRDMAX=  14405
   dimension x,y,z NGX =    64 NGY =   64 NGZ =   64
   dimension x,y,z NGXF=   128 NGYF=  128 NGZF=  128
   support grid    NGXF=   128 NGYF=  128 NGZF=  128
   ions per type =              32  32
   NGX,Y,Z   is equivalent  to a cutoff of  12.63, 12.63, 12.63 a.u.
   NGXF,Y,Z  is equivalent  to a cutoff of  25.26, 25.26, 25.26 a.u.

 SYSTEM =  unknown system                          
 POSCAR =  NiO_Fm-3m_scale_1_025_disp_0_20_round_2 

 Startparameter for this run:
   NWRITE =      1    write-flag & timer
   PREC   = accura    normal or accurate (medium, high low for compatibility)
   ISTART =      0    job   : 0-new  1-cont  2-samecut
   ICHARG =      2    charge: 1-file 2-atom 10-const
   ISPIN  =      2    spin polarized calculation?
   LNONCOLLINEAR =      F non collinear calculations
   LSORBIT =      F    spin-orbit coupling
   INIWAV =      1    electr: 0-lowe 1-rand  2-diag
   LASPH  =      F    aspherical Exc in radial PAW
   METAGGA=      F    non-selfconsistent MetaGGA calc.

 Electronic Relaxation 1
   ENCUT  =  500.0 eV  36.75 Ry    6.06 a.u.  15.36 15.36 15.36*2*pi/ulx,y,z
   ENINI  =  500.0     initial cutoff
   ENAUG  =  605.4 eV  augmentation charge cutoff
   NELM   =     80;   NELMIN=  2; NELMDL= -5     # of ELM steps 
   EDIFF  = 0.1E-04   stopping-criterion for ELM
   LREAL  =      T    real-space projection
   NLSPLINE    = F    spline interpolate recip. space projectors
   LCOMPAT=      F    compatible to vasp.4.4
   GGA_COMPAT  = T    GGA compatible to vasp.4.4-vasp.4.6
   LMAXPAW     = -100 max onsite density
   LMAXMIX     =    2 max onsite mixed and CHGCAR
   VOSKOWN=      1    Vosko Wilk Nusair interpolation
   ROPT   =   -0.00025  -0.00025
 Ionic relaxation
   EDIFFG = 0.1E-03   stopping-criterion for IOM
   NSW    =      0    number of steps for IOM
   NBLOCK =      1;   KBLOCK =      1    inner block; outer block 
   IBRION =     -1    ionic relax: 0-MD 1-quasi-New 2-CG
   NFREE  =      0    steps in history (QN), initial steepest desc. (CG)
   ISIF   =      2    stress and relaxation
   IWAVPR =     10    prediction:  0-non 1-charg 2-wave 3-comb
   ISYM   =      2    0-nonsym 1-usesym 2-fastsym
   LCORR  =      T    Harris-Foulkes like correction to forces

   POTIM  = 0.5000    time-step for ionic-motion
   TEIN   =    0.0    initial temperature
   TEBEG  =    0.0;   TEEND  =   0.0 temperature during run
   SMASS  =  -3.00    Nose mass-parameter (am)
   estimated Nose-frequenzy (Omega)   =  0.10E-29 period in steps =****** mass=  -0.162E-26a.u.
   SCALEE = 1.0000    scale energy and forces
   NPACO  =    256;   APACO  = 16.0  distance and # of slots for P.C.
   PSTRESS=    0.0 pullay stress

  Mass of Ions in am
   POMASS =  58.69 16.00
  Ionic Valenz
   ZVAL   =  10.00  6.00
  Atomic Wigner-Seitz radii
   RWIGS  =   1.15  0.73
  virtual crystal weights 
   VCA    =   1.00  1.00
   NELECT =     512.0000    total number of electrons
   NUPDOWN=      -1.0000    fix difference up-down

 DOS related values:
   EMIN   =  10.00;   EMAX   =-10.00  energy-range for DOS
   EFERMI =   0.00
   ISMEAR =     0;   SIGMA  =   0.05  broadening in eV -4-tet -1-fermi 0-gaus

 Electronic relaxation 2 (details)
   IALGO  =     38    algorithm
   LDIAG  =      T    sub-space diagonalisation (order eigenvalues)
   LSUBROT=      F    optimize rotation matrix (better conditioning)
   TURBO    =      0    0=normal 1=particle mesh
   IRESTART =      0    0=no restart 2=restart with 2 vectors
   NREBOOT  =      0    no. of reboots
   NMIN     =      0    reboot dimension
   EREF     =   0.00    reference energy to select bands
   IMIX   =      4    mixing-type and parameters
     AMIX     =   0.40;   BMIX     =  1.00
     AMIX_MAG =   1.60;   BMIX_MAG =  1.00
     AMIN     =   0.10
     WC   =   100.;   INIMIX=   1;  MIXPRE=   1;  MAXMIX= -45

 Intra band minimization:
   WEIMIN = 0.0000     energy-eigenvalue tresh-hold
   EBREAK =  0.71E-08  absolut break condition
   DEPER  =   0.30     relativ break condition  

   TIME   =   0.40     timestep for ELM

  volume/ion in A,a.u.               =       9.35        63.06
  Fermi-wavevector in a.u.,A,eV,Ry     =   1.554444  2.937472 32.875685  2.416295
  Thomas-Fermi vector in A             =   2.658529
 
 Write flags
   LWAVE        =      F    write WAVECAR
   LDOWNSAMPLE  =      F    k-point downsampling of WAVECAR
   LCHARG       =      T    write CHGCAR
   LVTOT        =      F    write LOCPOT, total local potential
   LVHAR        =      F    write LOCPOT, Hartree potential only
   LELF         =      F    write electronic localiz. function (ELF)
   LORBIT       =      0    0 simple, 1 ext, 2 COOP (PROOUT), +10 PAW based schemes


 Dipole corrections
   LMONO  =      F    monopole corrections only (constant potential shift)
   LDIPOL =      F    correct potential (dipole corrections)
   IDIPOL =      0    1-x, 2-y, 3-z, 4-all directions 
   EPSILON=  1.0000000 bulk dielectric constant

 Exchange correlation treatment:
   GGA     =    PS    GGA type
   LEXCH   =    14    internal setting for exchange type
   VOSKOWN=      1    Vosko Wilk Nusair interpolation
   LHFCALC =     F    Hartree Fock is set to
   LHFONE  =     F    Hartree Fock one center treatment
   AEXX    =    0.0000 exact exchange contribution

 Linear response parameters
   LEPSILON=     F    determine dielectric tensor
   LRPA    =     F    only Hartree local field effects (RPA)
   LNABLA  =     F    use nabla operator in PAW spheres
   LVEL    =     F    velocity operator in full k-point grid
   LINTERFAST=   F  fast interpolation
   KINTER  =     0    interpolate to denser k-point grid
   CSHIFT  =0.1000    complex shift for real part using Kramers Kronig
   OMEGAMAX=  -1.0    maximum frequency
   DEG_THRESHOLD= 0.2000000E-02 threshold for treating states as degnerate
   RTIME   =   -0.100 relaxation time in fs
  (WPLASMAI=    0.000 imaginary part of plasma frequency in eV, 0.658/RTIME)
   DFIELD  = 0.0000000 0.0000000 0.0000000 field for delta impulse in time
 
 Orbital magnetization related:
   ORBITALMAG=     F  switch on orbital magnetization
   LCHIMAG   =     F  perturbation theory with respect to B field
   DQ        =  0.001000  dq finite difference perturbation B field
   LLRAUG    =     F  two centre corrections for induced B field



--------------------------------------------------------------------------------------------------------


 Static calculation
 charge density and potential will be updated during run
 spin polarized calculation
 Variant of blocked Davidson
 Davidson routine will perform the subspace rotation
 perform sub-space diagonalisation
    after iterative eigenvector-optimisation
 modified Broyden-mixing scheme, WC =      100.0
 initial mixing is a Kerker type mixing with AMIX =  0.4000 and BMIX =      1.0000
 Hartree-type preconditioning will be used
 using additional bands           96
 real space projection scheme for non local part
 use partial core corrections
 calculate Harris-corrections to forces 
   (improved forces if not selfconsistent)
 use gradient corrections 
 use of overlap-Matrix (Vanderbilt PP)
 Gauss-broadening in eV      SIGMA  =   0.05


--------------------------------------------------------------------------------------------------------


  energy-cutoff  :      500.00
  volume of cell :      598.09
      direct lattice vectors                 reciprocal lattice vectors
     8.425387250  0.000000000  0.000000000     0.118688907  0.000000000  0.000000000
     0.000000000  8.425387250  0.000000000     0.000000000  0.118688907  0.000000000
     0.000000000  0.000000000  8.425387250     0.000000000  0.000000000  0.118688907

  length of vectors
     8.425387250  8.425387250  8.425387250     0.118688907  0.118688907  0.118688907


 
 k-points in units of 2pi/SCALE and weight: Automatic mesh                          
   0.00000000  0.00000000  0.00000000       0.037
   0.03956297  0.00000000  0.00000000       0.074
   0.00000000  0.03956297  0.00000000       0.074
   0.03956297  0.03956297  0.00000000       0.074
  -0.03956297  0.03956297  0.00000000       0.074
   0.00000000  0.00000000  0.03956297       0.074
   0.03956297  0.00000000  0.03956297       0.074
  -0.03956297  0.00000000  0.03956297       0.074
   0.00000000  0.03956297  0.03956297       0.074
   0.03956297  0.03956297  0.03956297       0.074
  -0.03956297  0.03956297  0.03956297       0.074
   0.00000000 -0.03956297  0.03956297       0.074
   0.03956297 -0.03956297  0.03956297       0.074
  -0.03956297 -0.03956297  0.03956297       0.074
 
 k-points in reciprocal lattice and weights: Automatic mesh                          
   0.00000000  0.00000000  0.00000000       0.037
   0.33333333  0.00000000  0.00000000       0.074
   0.00000000  0.33333333  0.00000000       0.074
   0.33333333  0.33333333  0.00000000       0.074
  -0.33333333  0.33333333  0.00000000       0.074
   0.00000000  0.00000000  0.33333333       0.074
   0.33333333  0.00000000  0.33333333       0.074
  -0.33333333  0.00000000  0.33333333       0.074
   0.00000000  0.33333333  0.33333333       0.074
   0.33333333  0.33333333  0.33333333       0.074
  -0.33333333  0.33333333  0.33333333       0.074
   0.00000000 -0.33333333  0.33333333       0.074
   0.33333333 -0.33333333  0.33333333       0.074
  -0.33333333 -0.33333333  0.33333333       0.074
 
 position of ions in fractional coordinates (direct lattice) 
   0.99015458  0.99208657  0.00192494
   0.98122278  0.23871337  0.22578584
   0.22545533  0.04389962  0.22715305
   0.24185999  0.25073734  0.99688118
   0.99680604  0.99502540  0.46960156
   0.00094881  0.25842469  0.72544469
   0.25618151  0.01630089  0.75782970
   0.24171592  0.23401164  0.48258689
   0.03324295  0.47301793  0.00917664
   0.01350760  0.69784149  0.20044129
   0.20699877  0.54508514  0.24936922
   0.25000814  0.72653999  0.98772701
   0.96960868  0.43034952  0.51160374
   0.96369938  0.71828180  0.72133817
   0.27864318  0.45527212  0.74988769
   0.19497574  0.74794614  0.51294824
   0.44091788  0.94446775  0.96188341
   0.48931435  0.27730572  0.20045912
   0.72420780  0.95947782  0.25786632
   0.71939008  0.31276313  0.97839092
   0.47122260  0.01000290  0.49439053
   0.47946282  0.25974356  0.73044002
   0.71606927  0.01965919  0.72595565
   0.74981264  0.22761130  0.47380401
   0.49881254  0.47476006  0.00020182
   0.44445626  0.70027323  0.24881811
   0.73757762  0.47976806  0.24269950
   0.76033765  0.70165320  0.00722545
   0.49149307  0.49775874  0.51251293
   0.48899280  0.72202702  0.71357506
   0.72764955  0.50006030  0.74159641
   0.70459056  0.73862761  0.46746168
   0.22057427  0.22209237  0.27237435
   0.23579897  0.95825456  0.00121342
   0.98642367  0.22727256  0.97780265
   0.03642529  0.04693990  0.23357351
   0.24348096  0.21564612  0.70593788
   0.21838585  0.00034148  0.48568794
   0.98397138  0.28163662  0.47718250
   0.98764168  0.98353484  0.76182412
   0.28694515  0.71046797  0.25017342
   0.29827067  0.47881523  0.99712395
   0.99124403  0.70287204  0.99439217
   0.02994729  0.47999924  0.24458711
   0.24818254  0.73808288  0.73429763
   0.26489885  0.47155866  0.54875405
   0.98602776  0.72617586  0.48021529
   0.99643279  0.46683393  0.71966797
   0.75886091  0.23521582  0.23479583
   0.74384602  0.97111334  0.01798890
   0.47301912  0.25791852  0.01511025
   0.43724953  0.98240899  0.24254226
   0.71912223  0.24372161  0.68426569
   0.73681896  0.99192620  0.47709020
   0.45349864  0.24322640  0.49047121
   0.50385852  0.99416363  0.74114451
   0.68480803  0.71317751  0.25289936
   0.72863673  0.46067974  0.04057025
   0.45742034  0.69339030  0.00163100
   0.46429728  0.50474420  0.24085034
   0.71872991  0.78697362  0.71554721
   0.76506888  0.47046798  0.51347675
   0.48589162  0.73470583  0.53273007
   0.50056547  0.47621923  0.71627321
 
 position of ions in cartesian coordinates  (Angst):
   8.34243577  8.35871354  0.01621836
   8.26718190  2.01125258  1.90233314
   1.89954846  0.36987130  1.91385241
   2.03776408  2.11255919  8.39910998
   8.39847690  8.38347432  3.95657500
   0.00799409  2.17732809  6.11215244
   2.15842843  0.13734131  6.38500869
   2.03655023  1.97163869  4.06598143
   0.28008473  3.98535924  0.07731675
   0.11380676  5.87958479  1.68879549
   1.74404480  4.59255339  2.10103225
   2.10641540  6.12138077  8.32198256
   8.16932861  3.62586136  4.31045963
   8.11954047  6.05180232  6.07755342
   2.34767670  3.83584392  6.31809418
   1.64274611  6.30173587  4.32178756
   3.71490388  7.95750654  8.10424022
   4.12266289  2.33640808  1.68894571
   6.10173116  8.08397219  2.17262360
   6.06114001  2.63515049  8.24332238
   3.97023289  0.08427831  4.16543167
   4.03965993  2.18844008  6.15424003
   6.03316090  0.16563629  6.11645748
   6.31746186  1.91771334  3.99198226
   4.20268881  4.00003736  0.00170041
   3.74471611  5.90007314  2.09638893
   6.21437708  4.04223170  2.04483727
   6.40613914  5.91169993  0.06087721
   4.14101945  4.19381014  4.31811991
   4.11995370  6.08335725  6.01214621
   6.13072924  4.21320168  6.24823694
   5.93644832  6.22322365  3.93854568
   1.85842364  1.87121422  2.29485938
   1.98669764  8.07366575  0.01022353
   8.31100141  1.91485933  8.23836598
   0.30689717  0.39548683  1.96794727
   2.05142138  1.81690207  5.94780001
   1.83998536  0.00287710  4.09210898
   8.29033992  2.37289759  4.02044735
   8.32126362  8.28666190  6.41866323
   2.41762401  5.98596778  2.10780794
   2.51304590  4.03420373  8.40115541
   8.35161481  5.92196912  8.37813911
   0.25231752  4.04417948  2.06074112
   2.09103401  6.21863409  6.18674189
   2.23187539  3.97306432  4.62346538
   8.30766572  6.11831283  4.04599978
   8.39533212  3.93325664  6.06348134
   6.39369704  1.98178437  1.97824579
   6.26719077  8.18200595  0.15156345
   3.98536926  2.17306341  0.12730971
   3.68399662  8.27717618  2.04351246
   6.05888327  2.05344895  5.76520342
   6.20798507  8.35736236  4.01966969
   3.82090166  2.04927661  4.13240988
   4.24520315  8.37621357  6.24442950
   5.76977284  6.00879670  2.13077504
   6.13904661  3.88140521  0.34182007
   3.85394350  5.84208179  0.01374181
   3.91188438  4.25266535  2.02925738
   6.05557782  6.63055750  6.02876234
   6.44600159  3.96387492  4.32624046
   4.09382506  6.19018113  4.48845714
   4.21745793  4.01233143  6.03487917
 


--------------------------------------------------------------------------------------------------------


 k-point  1 :   0.0000 0.0000 0.0000  plane waves:   15203
 k-point  2 :   0.3333 0.0000 0.0000  plane waves:   15171
 k-point  3 :   0.0000 0.3333 0.0000  plane waves:   15171
 k-point  4 :   0.3333 0.3333 0.0000  plane waves:   15166
 k-point  5 :  -0.3333 0.3333 0.0000  plane waves:   15166
 k-point  6 :   0.0000 0.0000 0.3333  plane waves:   15171
 k-point  7 :   0.3333 0.0000 0.3333  plane waves:   15166
 k-point  8 :  -0.3333 0.0000 0.3333  plane waves:   15166
 k-point  9 :   0.0000 0.3333 0.3333  plane waves:   15166
 k-point 10 :   0.3333 0.3333 0.3333  plane waves:   15177
 k-point 11 :  -0.3333 0.3333 0.3333  plane waves:   15177
 k-point 12 :   0.0000-0.3333 0.3333  plane waves:   15166
 k-point 13 :   0.3333-0.3333 0.3333  plane waves:   15177
 k-point 14 :  -0.3333-0.3333 0.3333  plane waves:   15177

 maximum and minimum number of plane-waves per node :     15203    15166

 maximum number of plane-waves:     15203
 maximum index in each direction: 
   IXMAX=   15   IYMAX=   15   IZMAX=   15
   IXMIN=  -15   IYMIN=  -15   IZMIN=  -15

 The following grids will avoid any aliasing or wrap around errors in the Hartre
 e energy
  - symmetry arguments have not been applied
  - exchange correlation energies might require even more grid points
  - we recommend to set PREC=Normal or Accurate and rely on VASP defaults
 NGX is ok and might be reduce to    64
 NGY is ok and might be reduce to    64
 NGZ is ok and might be reduce to    64

 serial   3D FFT for wavefunctions
 parallel 3D FFT for charge:
    minimum data exchange during FFTs selected (reduces bandwidth)


 total amount of memory used by VASP MPI-rank0   268121. kBytes
=======================================================================

   base      :      30000. kBytes
   nonlr-proj:      40705. kBytes
   fftplans  :       5538. kBytes
   grid      :      31719. kBytes
   one-center:       1990. kBytes
   wavefun   :     158169. kBytes
 
     INWAV:  cpu time    0.0000: real time    0.0000
 Broyden mixing: mesh for mixing (old mesh)
   NGX = 31   NGY = 31   NGZ = 31
  (NGX  =128   NGY  =128   NGZ  =128)
  gives a total of  29791 points

 initial charge density was supplied:
 charge density of overlapping atoms calculated
 number of electron     512.0000000 magnetization      80.0000000
 keeping initial charge density in first step


--------------------------------------------------------------------------------------------------------


 Maximum index for non-local projection operator         5731
 Maximum index for augmentation-charges          989 (set IRDMAX)


--------------------------------------------------------------------------------------------------------


 First call to EWALD:  gamma=   0.210
 Maximum number of real-space cells 3x 3x 3
 Maximum number of reciprocal cells 3x 3x 3

    FEWALD:  cpu time    0.0030: real time    0.0030


--------------------------------------- Iteration      1(   1)  ---------------------------------------


    POTLOK:  cpu time    0.1749: real time    0.1880
    SETDIJ:  cpu time    0.0256: real time    0.0256
     EDDAV:  cpu time   60.5160: real time   60.6587
    --------------------------------------------
      LOOP:  cpu time   60.7184: real time   60.8743

 eigenvalue-minimisations  : 19712
 total energy-change (2. order) : 0.6338366E+04  (-0.2088673E+05)
 number of electron     512.0000000 magnetization      80.0000000
 augmentation part      512.0000000 magnetization      80.0000000

 Free energy of the ion-electron system (eV)
  ---------------------------------------------------
  alpha Z        PSCENC =      2031.47334295
  Ewald energy   TEWEN  =    -39021.94231369
  -Hartree energ DENC   =    -12601.75344370
  -exchange      EXHF   =         0.00000000
  -V(xc)+E(xc)   XCENC  =      1959.41708310
  PAW double counting   =     41846.49563633   -44035.77946198
  entropy T*S    EENTRO =        -0.00929064
  eigenvalues    EBANDS =      7913.38281277
  atomic energy  EATOM  =     48247.08154143
  Solvation  Ediel_sol  =         0.00000000
  ---------------------------------------------------
  free energy    TOTEN  =      6338.36590658 eV

  energy without entropy =     6338.37519722  energy(sigma->0) =     6338.37055190


--------------------------------------------------------------------------------------------------------




--------------------------------------- Iteration      1(   2)  ---------------------------------------


     EDDAV:  cpu time   63.9090: real time   64.0604
    --------------------------------------------
      LOOP:  cpu time   63.9093: real time   64.0606

 eigenvalue-minimisations  : 19712
 total energy-change (2. order) :-0.5337400E+04  (-0.4826115E+04)
 number of electron     512.0000000 magnetization      80.0000000
 augmentation part      512.0000000 magnetization      80.0000000

 Free energy of the ion-electron system (eV)
  ---------------------------------------------------
  alpha Z        PSCENC =      2031.47334295
  Ewald energy   TEWEN  =    -39021.94231369
  -Hartree energ DENC   =    -12601.75344370
  -exchange      EXHF   =         0.00000000
  -V(xc)+E(xc)   XCENC  =      1959.41708310
  PAW double counting   =     41846.49563633   -44035.77946198
  entropy T*S    EENTRO =        -0.03049879
  eigenvalues    EBANDS =      2576.00390844
  atomic energy  EATOM  =     48247.08154143
  Solvation  Ediel_sol  =         0.00000000
  ---------------------------------------------------
  free energy    TOTEN  =      1000.96579410 eV

  energy without entropy =     1000.99629289  energy(sigma->0) =     1000.98104349


--------------------------------------------------------------------------------------------------------




--------------------------------------- Iteration      1(   3)  ---------------------------------------


     EDDAV:  cpu time   63.2827: real time   63.4323
    --------------------------------------------
      LOOP:  cpu time   63.2828: real time   63.4324

 eigenvalue-minimisations  : 20128
 total energy-change (2. order) :-0.1282768E+04  (-0.1141986E+04)
 number of electron     512.0000000 magnetization      80.0000000
 augmentation part      512.0000000 magnetization      80.0000000

 Free energy of the ion-electron system (eV)
  ---------------------------------------------------
  alpha Z        PSCENC =      2031.47334295
  Ewald energy   TEWEN  =    -39021.94231369
  -Hartree energ DENC   =    -12601.75344370
  -exchange      EXHF   =         0.00000000
  -V(xc)+E(xc)   XCENC  =      1959.41708310
  PAW double counting   =     41846.49563633   -44035.77946198
  entropy T*S    EENTRO =        -0.10509549
  eigenvalues    EBANDS =      1293.31092270
  atomic energy  EATOM  =     48247.08154143
  Solvation  Ediel_sol  =         0.00000000
  ---------------------------------------------------
  free energy    TOTEN  =      -281.80178834 eV

  energy without entropy =     -281.69669285  energy(sigma->0) =     -281.74924059


--------------------------------------------------------------------------------------------------------




--------------------------------------- Iteration      1(   4)  ---------------------------------------


     EDDAV:  cpu time   68.0207: real time   68.1814
    --------------------------------------------
      LOOP:  cpu time   68.0207: real time   68.1814

 eigenvalue-minimisations  : 22384
 total energy-change (2. order) :-0.1583046E+03  (-0.1496364E+03)
 number of electron     512.0000000 magnetization      80.0000000
 augmentation part      512.0000000 magnetization      80.0000000

 Free energy of the ion-electron system (eV)
  ---------------------------------------------------
  alpha Z        PSCENC =      2031.47334295
  Ewald energy   TEWEN  =    -39021.94231369
  -Hartree energ DENC   =    -12601.75344370
  -exchange      EXHF   =         0.00000000
  -V(xc)+E(xc)   XCENC  =      1959.41708310
  PAW double counting   =     41846.49563633   -44035.77946198
  entropy T*S    EENTRO =        -0.11328749
  eigenvalues    EBANDS =      1135.01447785
  atomic energy  EATOM  =     48247.08154143
  Solvation  Ediel_sol  =         0.00000000
  ---------------------------------------------------
  free energy    TOTEN  =      -440.10642520 eV

  energy without entropy =     -439.99313770  energy(sigma->0) =     -440.04978145


--------------------------------------------------------------------------------------------------------




--------------------------------------- Iteration      1(   5)  ---------------------------------------


     EDDAV:  cpu time   72.2841: real time   72.4548
    CHARGE:  cpu time    2.2086: real time    2.2138
    MIXING:  cpu time    0.0037: real time    0.0037
    --------------------------------------------
      LOOP:  cpu time   74.4941: real time   74.6701

 eigenvalue-minimisations  : 22192
 total energy-change (2. order) :-0.4558091E+01  (-0.4513005E+01)
 number of electron     511.9999960 magnetization      71.2444706
 augmentation part      202.3900047 magnetization      56.3474277

 Broyden mixing:
  rms(total) = 0.13454E+02    rms(broyden)= 0.13453E+02
  rms(prec ) = 0.15534E+02
  weight for this iteration     100.00

 Free energy of the ion-electron system (eV)
  ---------------------------------------------------
  alpha Z        PSCENC =      2031.47334295
  Ewald energy   TEWEN  =    -39021.94231369
  -Hartree energ DENC   =    -12601.75344370
  -exchange      EXHF   =         0.00000000
  -V(xc)+E(xc)   XCENC  =      1959.41708310
  PAW double counting   =     41846.49563633   -44035.77946198
  entropy T*S    EENTRO =        -0.11518497
  eigenvalues    EBANDS =      1130.45828384
  atomic energy  EATOM  =     48247.08154143
  Solvation  Ediel_sol  =         0.00000000
  ---------------------------------------------------
  free energy    TOTEN  =      -444.66451668 eV

  energy without entropy =     -444.54933171  energy(sigma->0) =     -444.60692420


--------------------------------------------------------------------------------------------------------




--------------------------------------- Iteration      1(   6)  ---------------------------------------


    POTLOK:  cpu time    0.1468: real time    0.1472
    SETDIJ:  cpu time    0.0255: real time    0.0256
     EDDAV:  cpu time   93.2586: real time   93.4811
    CHARGE:  cpu time    2.1092: real time    2.1141
    MIXING:  cpu time    0.0034: real time    0.0035
    --------------------------------------------
      LOOP:  cpu time   95.5436: real time   95.7715

 eigenvalue-minimisations  : 28704
 total energy-change (2. order) :-0.2426259E+02  (-0.5575430E+02)
 number of electron     511.9999954 magnetization      59.1811098
 augmentation part      233.0124058 magnetization      53.4760901

 Broyden mixing:
  rms(total) = 0.16260E+02    rms(broyden)= 0.16259E+02
  rms(prec ) = 0.19949E+02
  weight for this iteration     100.00

 eigenvalues of (default mixing * dielectric matrix)
  average eigenvalue GAMMA=   0.3277
  0.3277

 Free energy of the ion-electron system (eV)
  ---------------------------------------------------
  alpha Z        PSCENC =      2031.47334295
  Ewald energy   TEWEN  =    -39021.94231369
  -Hartree energ DENC   =    -12144.06720165
  -exchange      EXHF   =         0.00000000
  -V(xc)+E(xc)   XCENC  =      1950.89983575
  PAW double counting   =     46348.41615640   -48356.75085066
  entropy T*S    EENTRO =        -0.04645624
  eigenvalues    EBANDS =       476.00884342
  atomic energy  EATOM  =     48247.08154143
  Solvation  Ediel_sol  =         0.00000000
  ---------------------------------------------------
  free energy    TOTEN  =      -468.92710228 eV

  energy without entropy =     -468.88064604  energy(sigma->0) =     -468.90387416


--------------------------------------------------------------------------------------------------------




--------------------------------------- Iteration      1(   7)  ---------------------------------------


    POTLOK:  cpu time    0.1388: real time    0.1392
    SETDIJ:  cpu time    0.0266: real time    0.0266
     EDDAV:  cpu time   70.7413: real time   70.9084
    CHARGE:  cpu time    2.2200: real time    2.2254
    MIXING:  cpu time    0.0037: real time    0.0037
    --------------------------------------------
      LOOP:  cpu time   73.1305: real time   73.3033

 eigenvalue-minimisations  : 23360
 total energy-change (2. order) : 0.6389866E+02  (-0.4267386E+02)
 number of electron     511.9999957 magnetization      53.2792448
 augmentation part      222.0118743 magnetization      43.1346934

 Broyden mixing:
  rms(total) = 0.14476E+02    rms(broyden)= 0.14475E+02
  rms(prec ) = 0.17370E+02
  weight for this iteration     100.00

 eigenvalues of (default mixing * dielectric matrix)
  average eigenvalue GAMMA=   0.3227
  0.3690  0.2764

 Free energy of the ion-electron system (eV)
  ---------------------------------------------------
  alpha Z        PSCENC =      2031.47334295
  Ewald energy   TEWEN  =    -39021.94231369
  -Hartree energ DENC   =    -12250.68789850
  -exchange      EXHF   =         0.00000000
  -V(xc)+E(xc)   XCENC  =      1941.32051488
  PAW double counting   =     48148.25364891   -50289.68166843
  entropy T*S    EENTRO =        -0.07760507
  eigenvalues    EBANDS =       789.23199654
  atomic energy  EATOM  =     48247.08154143
  Solvation  Ediel_sol  =         0.00000000
  ---------------------------------------------------
  free energy    TOTEN  =      -405.02844098 eV

  energy without entropy =     -404.95083591  energy(sigma->0) =     -404.98963845


--------------------------------------------------------------------------------------------------------




--------------------------------------- Iteration      1(   8)  ---------------------------------------


    POTLOK:  cpu time    0.1444: real time    0.1447
    SETDIJ:  cpu time    0.0254: real time    0.0255
     EDDAV:  cpu time   74.2560: real time   74.4311
    CHARGE:  cpu time    2.1928: real time    2.1980
    MIXING:  cpu time    0.0035: real time    0.0035
    --------------------------------------------
      LOOP:  cpu time   76.6221: real time   76.8028

 eigenvalue-minimisations  : 25200
 total energy-change (2. order) : 0.1873599E+02  (-0.1233330E+02)
 number of electron     511.9999965 magnetization      47.5824833
 augmentation part      218.1196235 magnetization      37.9101312

 Broyden mixing:
  rms(total) = 0.10972E+02    rms(broyden)= 0.10971E+02
  rms(prec ) = 0.14744E+02
  weight for this iteration     100.00

 eigenvalues of (default mixing * dielectric matrix)
  average eigenvalue GAMMA=   0.3985
  0.6416  0.3529  0.2009

 Free energy of the ion-electron system (eV)
  ---------------------------------------------------
  alpha Z        PSCENC =      2031.47334295
  Ewald energy   TEWEN  =    -39021.94231369
  -Hartree energ DENC   =    -12314.48319066
  -exchange      EXHF   =         0.00000000
  -V(xc)+E(xc)   XCENC  =      1940.01215253
  PAW double counting   =     49427.85697636   -51630.33019550
  entropy T*S    EENTRO =        -0.07078426
  eigenvalues    EBANDS =       934.11001738
  atomic energy  EATOM  =     48247.08154143
  Solvation  Ediel_sol  =         0.00000000
  ---------------------------------------------------
  free energy    TOTEN  =      -386.29245345 eV

  energy without entropy =     -386.22166919  energy(sigma->0) =     -386.25706132


--------------------------------------------------------------------------------------------------------




--------------------------------------- Iteration      1(   9)  ---------------------------------------


    POTLOK:  cpu time    0.1443: real time    0.1446
    SETDIJ:  cpu time    0.0254: real time    0.0255
     EDDAV:  cpu time   73.2447: real time   73.4175
    CHARGE:  cpu time    2.2365: real time    2.2418
    MIXING:  cpu time    0.0037: real time    0.0037
    --------------------------------------------
      LOOP:  cpu time   75.6547: real time   75.8332

 eigenvalue-minimisations  : 24656
 total energy-change (2. order) :-0.1338464E+02  (-0.1088121E+02)
 number of electron     511.9999945 magnetization      38.0286085
 augmentation part      216.3225292 magnetization      29.3084779

 Broyden mixing:
  rms(total) = 0.95859E+01    rms(broyden)= 0.95843E+01
  rms(prec ) = 0.14108E+02
  weight for this iteration     100.00

 eigenvalues of (default mixing * dielectric matrix)
  average eigenvalue GAMMA=   0.5055
  1.1143  0.5122  0.2654  0.1302

 Free energy of the ion-electron system (eV)
  ---------------------------------------------------
  alpha Z        PSCENC =      2031.47334295
  Ewald energy   TEWEN  =    -39021.94231369
  -Hartree energ DENC   =    -12346.41368418
  -exchange      EXHF   =         0.00000000
  -V(xc)+E(xc)   XCENC  =      1938.82688881
  PAW double counting   =     50629.29079733   -52872.05077526
  entropy T*S    EENTRO =        -0.07884194
  eigenvalues    EBANDS =       994.13595130
  atomic energy  EATOM  =     48247.08154143
  Solvation  Ediel_sol  =         0.00000000
  ---------------------------------------------------
  free energy    TOTEN  =      -399.67709323 eV

  energy without entropy =     -399.59825130  energy(sigma->0) =     -399.63767227


--------------------------------------------------------------------------------------------------------




--------------------------------------- Iteration      1(  10)  ---------------------------------------


    POTLOK:  cpu time    0.1439: real time    0.1442
    SETDIJ:  cpu time    0.0258: real time    0.0258
     EDDAV:  cpu time   77.5627: real time   77.7457
    CHARGE:  cpu time    2.1663: real time    2.1714
    MIXING:  cpu time    0.0041: real time    0.0041
    --------------------------------------------
      LOOP:  cpu time   79.9027: real time   80.0912

 eigenvalue-minimisations  : 26016
 total energy-change (2. order) :-0.1164762E+03  (-0.1696665E+02)
 number of electron     511.9999975 magnetization      28.1741459
 augmentation part      214.5836668 magnetization      23.9662867

 Broyden mixing:
  rms(total) = 0.15527E+02    rms(broyden)= 0.15526E+02
  rms(prec ) = 0.24496E+02
  weight for this iteration     100.00

 eigenvalues of (default mixing * dielectric matrix)
  average eigenvalue GAMMA=   0.5118
  1.5171  0.5132  0.2353  0.1467  0.1467

 Free energy of the ion-electron system (eV)
  ---------------------------------------------------
  alpha Z        PSCENC =      2031.47334295
  Ewald energy   TEWEN  =    -39021.94231369
  -Hartree energ DENC   =    -12320.92090432
  -exchange      EXHF   =         0.00000000
  -V(xc)+E(xc)   XCENC  =      1936.88165472
  PAW double counting   =     52469.11332047   -54744.09094104
  entropy T*S    EENTRO =        -0.05162700
  eigenvalues    EBANDS =       886.30264161
  atomic energy  EATOM  =     48247.08154143
  Solvation  Ediel_sol  =         0.00000000
  ---------------------------------------------------
  free energy    TOTEN  =      -516.15328486 eV

  energy without entropy =     -516.10165786  energy(sigma->0) =     -516.12747136


--------------------------------------------------------------------------------------------------------




--------------------------------------- Iteration      1(  11)  ---------------------------------------


    POTLOK:  cpu time    0.1446: real time    0.1450
    SETDIJ:  cpu time    0.0259: real time    0.0260
     EDDAV:  cpu time   73.3273: real time   73.5027
    CHARGE:  cpu time    2.1411: real time    2.1462
    MIXING:  cpu time    0.0052: real time    0.0052
    --------------------------------------------
      LOOP:  cpu time   75.6442: real time   75.8251

 eigenvalue-minimisations  : 24144
 total energy-change (2. order) : 0.6553694E+02  (-0.2751403E+02)
 number of electron     511.9999962 magnetization      24.9393983
 augmentation part      216.6910368 magnetization      20.9607938

 Broyden mixing:
  rms(total) = 0.11157E+02    rms(broyden)= 0.11156E+02
  rms(prec ) = 0.17631E+02
  weight for this iteration     100.00

 eigenvalues of (default mixing * dielectric matrix)
  average eigenvalue GAMMA=   0.4843
  1.6735  0.5181  0.2383  0.2383  0.1189  0.1189

 Free energy of the ion-electron system (eV)
  ---------------------------------------------------
  alpha Z        PSCENC =      2031.47334295
  Ewald energy   TEWEN  =    -39021.94231369
  -Hartree energ DENC   =    -12295.92229212
  -exchange      EXHF   =         0.00000000
  -V(xc)+E(xc)   XCENC  =      1935.00076739
  PAW double counting   =     54124.08582963   -56424.61309163
  entropy T*S    EENTRO =        -0.05702049
  eigenvalues    EBANDS =       954.27689244
  atomic energy  EATOM  =     48247.08154143
  Solvation  Ediel_sol  =         0.00000000
  ---------------------------------------------------
  free energy    TOTEN  =      -450.61634409 eV

  energy without entropy =     -450.55932360  energy(sigma->0) =     -450.58783385


--------------------------------------------------------------------------------------------------------




--------------------------------------- Iteration      1(  12)  ---------------------------------------


    POTLOK:  cpu time    0.1685: real time    0.1689
    SETDIJ:  cpu time    0.0311: real time    0.0312
     EDDAV:  cpu time   74.2461: real time   74.4246
    CHARGE:  cpu time    2.1606: real time    2.1658
    MIXING:  cpu time    0.0043: real time    0.0043
    --------------------------------------------
      LOOP:  cpu time   76.6107: real time   76.7948

 eigenvalue-minimisations  : 24464
 total energy-change (2. order) : 0.4869974E+02  (-0.1113170E+02)
 number of electron     511.9999964 magnetization      22.1549044
 augmentation part      219.1294807 magnetization      19.0450414

 Broyden mixing:
  rms(total) = 0.79254E+01    rms(broyden)= 0.79247E+01
  rms(prec ) = 0.12936E+02
  weight for this iteration     100.00

 eigenvalues of (default mixing * dielectric matrix)
  average eigenvalue GAMMA=   0.4711
  1.7924  0.5651  0.2817  0.2817  0.1371  0.1371  0.1027

 Free energy of the ion-electron system (eV)
  ---------------------------------------------------
  alpha Z        PSCENC =      2031.47334295
  Ewald energy   TEWEN  =    -39021.94231369
  -Hartree energ DENC   =    -12275.09512002
  -exchange      EXHF   =         0.00000000
  -V(xc)+E(xc)   XCENC  =      1934.27703188
  PAW double counting   =     54638.94106448   -56948.27948150
  entropy T*S    EENTRO =        -0.06058779
  eigenvalues    EBANDS =       991.68792009
  atomic energy  EATOM  =     48247.08154143
  Solvation  Ediel_sol  =         0.00000000
  ---------------------------------------------------
  free energy    TOTEN  =      -401.91660217 eV

  energy without entropy =     -401.85601438  energy(sigma->0) =     -401.88630828


--------------------------------------------------------------------------------------------------------




--------------------------------------- Iteration      1(  13)  ---------------------------------------


    POTLOK:  cpu time    0.1448: real time    0.1451
    SETDIJ:  cpu time    0.0268: real time    0.0269
     EDDAV:  cpu time   72.0709: real time   72.2409
    CHARGE:  cpu time    2.1544: real time    2.1595
    MIXING:  cpu time    0.0045: real time    0.0045
    --------------------------------------------
      LOOP:  cpu time   74.4015: real time   74.5770

 eigenvalue-minimisations  : 23568
 total energy-change (2. order) : 0.2363963E+02  (-0.7688348E+01)
 number of electron     511.9999961 magnetization      21.5608068
 augmentation part      220.3549900 magnetization      18.0044072

 Broyden mixing:
  rms(total) = 0.60714E+01    rms(broyden)= 0.60702E+01
  rms(prec ) = 0.92254E+01
  weight for this iteration     100.00

 eigenvalues of (default mixing * dielectric matrix)
  average eigenvalue GAMMA=   0.4380
  1.7496  0.5953  0.2927  0.2927  0.2352  0.1216  0.1216  0.0955

 Free energy of the ion-electron system (eV)
  ---------------------------------------------------
  alpha Z        PSCENC =      2031.47334295
  Ewald energy   TEWEN  =    -39021.94231369
  -Hartree energ DENC   =    -12256.23645021
  -exchange      EXHF   =         0.00000000
  -V(xc)+E(xc)   XCENC  =      1933.35628339
  PAW double counting   =     55017.03064567   -57331.72012262
  entropy T*S    EENTRO =        -0.06995486
  eigenvalues    EBANDS =      1002.75005406
  atomic energy  EATOM  =     48247.08154143
  Solvation  Ediel_sol  =         0.00000000
  ---------------------------------------------------
  free energy    TOTEN  =      -378.27697386 eV

  energy without entropy =     -378.20701901  energy(sigma->0) =     -378.24199644


--------------------------------------------------------------------------------------------------------




--------------------------------------- Iteration      1(  14)  ---------------------------------------


    POTLOK:  cpu time    0.1478: real time    0.1481
    SETDIJ:  cpu time    0.0284: real time    0.0284
     EDDAV:  cpu time   72.7865: real time   72.9583
    CHARGE:  cpu time    2.1855: real time    2.1906
    MIXING:  cpu time    0.0045: real time    0.0045
    --------------------------------------------
      LOOP:  cpu time   75.1526: real time   75.3299

 eigenvalue-minimisations  : 23648
 total energy-change (2. order) : 0.6097192E+01  (-0.4524933E+01)
 number of electron     511.9999967 magnetization      21.2168775
 augmentation part      219.4191208 magnetization      18.0770033

 Broyden mixing:
  rms(total) = 0.63997E+01    rms(broyden)= 0.63991E+01
  rms(prec ) = 0.10293E+02
  weight for this iteration     100.00

 eigenvalues of (default mixing * dielectric matrix)
  average eigenvalue GAMMA=   0.4107
  1.7136  0.6450  0.3027  0.3027  0.3006  0.1189  0.1189  0.0969  0.0969

 Free energy of the ion-electron system (eV)
  ---------------------------------------------------
  alpha Z        PSCENC =      2031.47334295
  Ewald energy   TEWEN  =    -39021.94231369
  -Hartree energ DENC   =    -12256.33159104
  -exchange      EXHF   =         0.00000000
  -V(xc)+E(xc)   XCENC  =      1933.00930487
  PAW double counting   =     55009.62187277   -57325.52672009
  entropy T*S    EENTRO =        -0.07351815
  eigenvalues    EBANDS =      1010.50829955
  atomic energy  EATOM  =     48247.08154143
  Solvation  Ediel_sol  =         0.00000000
  ---------------------------------------------------
  free energy    TOTEN  =      -372.17978140 eV

  energy without entropy =     -372.10626325  energy(sigma->0) =     -372.14302232


--------------------------------------------------------------------------------------------------------




--------------------------------------- Iteration      1(  15)  ---------------------------------------


    POTLOK:  cpu time    0.1474: real time    0.1478
    SETDIJ:  cpu time    0.0253: real time    0.0254
     EDDAV:  cpu time   79.2994: real time   79.4956
    CHARGE:  cpu time    2.1303: real time    2.1353
    MIXING:  cpu time    0.0048: real time    0.0048
    --------------------------------------------
      LOOP:  cpu time   81.6073: real time   81.8090

 eigenvalue-minimisations  : 26496
 total energy-change (2. order) : 0.6674610E+01  (-0.2922432E+01)
 number of electron     511.9999965 magnetization      21.0534619
 augmentation part      219.1630732 magnetization      17.1897934

 Broyden mixing:
  rms(total) = 0.45225E+01    rms(broyden)= 0.45220E+01
  rms(prec ) = 0.72053E+01
  weight for this iteration     100.00

 eigenvalues of (default mixing * dielectric matrix)
  average eigenvalue GAMMA=   0.3864
  1.6686  0.6821  0.3408  0.3088  0.3088  0.1337  0.1337  0.1146  0.1000  0.0730

 Free energy of the ion-electron system (eV)
  ---------------------------------------------------
  alpha Z        PSCENC =      2031.47334295
  Ewald energy   TEWEN  =    -39021.94231369
  -Hartree energ DENC   =    -12260.11664712
  -exchange      EXHF   =         0.00000000
  -V(xc)+E(xc)   XCENC  =      1932.73816026
  PAW double counting   =     54916.44553076   -57230.57379632
  entropy T*S    EENTRO =        -0.08253952
  eigenvalues    EBANDS =      1019.47154961
  atomic energy  EATOM  =     48247.08154143
  Solvation  Ediel_sol  =         0.00000000
  ---------------------------------------------------
  free energy    TOTEN  =      -365.50517164 eV

  energy without entropy =     -365.42263212  energy(sigma->0) =     -365.46390188


--------------------------------------------------------------------------------------------------------




--------------------------------------- Iteration      1(  16)  ---------------------------------------


    POTLOK:  cpu time    0.1450: real time    0.1453
    SETDIJ:  cpu time    0.0257: real time    0.0257
     EDDAV:  cpu time   78.2186: real time   78.4035
    CHARGE:  cpu time    2.4904: real time    2.4963
    MIXING:  cpu time    0.0067: real time    0.0067
    --------------------------------------------
      LOOP:  cpu time   80.8863: real time   81.0775

 eigenvalue-minimisations  : 24864
 total energy-change (2. order) : 0.4457947E+01  (-0.1919215E+01)
 number of electron     511.9999957 magnetization      20.4278936
 augmentation part      219.0293589 magnetization      16.3231471

 Broyden mixing:
  rms(total) = 0.32932E+01    rms(broyden)= 0.32926E+01
  rms(prec ) = 0.49637E+01
  weight for this iteration     100.00

 eigenvalues of (default mixing * dielectric matrix)
  average eigenvalue GAMMA=   0.3749
  1.6380  0.6915  0.3326  0.3326  0.2974  0.2974  0.1316  0.1316  0.0966  0.0966
  0.0780

 Free energy of the ion-electron system (eV)
  ---------------------------------------------------
  alpha Z        PSCENC =      2031.47334295
  Ewald energy   TEWEN  =    -39021.94231369
  -Hartree energ DENC   =    -12264.29140566
  -exchange      EXHF   =         0.00000000
  -V(xc)+E(xc)   XCENC  =      1932.65399652
  PAW double counting   =     54801.20982726   -57112.37259032
  entropy T*S    EENTRO =        -0.08362732
  eigenvalues    EBANDS =      1025.22400463
  atomic energy  EATOM  =     48247.08154143
  Solvation  Ediel_sol  =         0.00000000
  ---------------------------------------------------
  free energy    TOTEN  =      -361.04722420 eV

  energy without entropy =     -360.96359687  energy(sigma->0) =     -361.00541053


--------------------------------------------------------------------------------------------------------




--------------------------------------- Iteration      1(  17)  ---------------------------------------


    POTLOK:  cpu time    0.1918: real time    0.1922
    SETDIJ:  cpu time    0.0352: real time    0.0353
     EDDAV:  cpu time   74.6411: real time   74.8172
    CHARGE:  cpu time    2.1289: real time    2.1340
    MIXING:  cpu time    0.0055: real time    0.0056
    --------------------------------------------
      LOOP:  cpu time   77.0026: real time   77.1842

 eigenvalue-minimisations  : 25184
 total energy-change (2. order) : 0.1445402E+01  (-0.1148855E+01)
 number of electron     511.9999961 magnetization      19.3103690
 augmentation part      218.9777172 magnetization      15.3145713

 Broyden mixing:
  rms(total) = 0.30150E+01    rms(broyden)= 0.30143E+01
  rms(prec ) = 0.43744E+01
  weight for this iteration     100.00

 eigenvalues of (default mixing * dielectric matrix)
  average eigenvalue GAMMA=   0.3761
  1.6400  0.5413  0.4491  0.4491  0.3920  0.3920  0.1283  0.1283  0.1280  0.0931
  0.0931  0.0792

 Free energy of the ion-electron system (eV)
  ---------------------------------------------------
  alpha Z        PSCENC =      2031.47334295
  Ewald energy   TEWEN  =    -39021.94231369
  -Hartree energ DENC   =    -12265.53953123
  -exchange      EXHF   =         0.00000000
  -V(xc)+E(xc)   XCENC  =      1932.51044796
  PAW double counting   =     54762.27770460   -57069.55248879
  entropy T*S    EENTRO =        -0.08498795
  eigenvalues    EBANDS =      1024.17446255
  atomic energy  EATOM  =     48247.08154143
  Solvation  Ediel_sol  =         0.00000000
  ---------------------------------------------------
  free energy    TOTEN  =      -359.60182218 eV

  energy without entropy =     -359.51683422  energy(sigma->0) =     -359.55932820


--------------------------------------------------------------------------------------------------------




--------------------------------------- Iteration      1(  18)  ---------------------------------------


    POTLOK:  cpu time    0.1451: real time    0.1454
    SETDIJ:  cpu time    0.0272: real time    0.0273
     EDDAV:  cpu time   75.1905: real time   75.3721
    CHARGE:  cpu time    2.1456: real time    2.1507
    MIXING:  cpu time    0.0055: real time    0.0055
    --------------------------------------------
      LOOP:  cpu time   77.5140: real time   77.7010

 eigenvalue-minimisations  : 25248
 total energy-change (2. order) : 0.2242044E+00  (-0.1374802E+01)
 number of electron     511.9999961 magnetization      18.1628847
 augmentation part      218.8709368 magnetization      14.1239102

 Broyden mixing:
  rms(total) = 0.25160E+01    rms(broyden)= 0.25154E+01
  rms(prec ) = 0.37727E+01
  weight for this iteration     100.00

 eigenvalues of (default mixing * dielectric matrix)
  average eigenvalue GAMMA=   0.3826
  1.6359  0.6802  0.6802  0.4697  0.3507  0.3507  0.1757  0.1257  0.1257  0.1252
  0.0879  0.0879  0.0785

 Free energy of the ion-electron system (eV)
  ---------------------------------------------------
  alpha Z        PSCENC =      2031.47334295
  Ewald energy   TEWEN  =    -39021.94231369
  -Hartree energ DENC   =    -12267.11324596
  -exchange      EXHF   =         0.00000000
  -V(xc)+E(xc)   XCENC  =      1932.47415775
  PAW double counting   =     54851.82775361   -57156.94876276
  entropy T*S    EENTRO =        -0.08322005
  eigenvalues    EBANDS =      1023.85312892
  atomic energy  EATOM  =     48247.08154143
  Solvation  Ediel_sol  =         0.00000000
  ---------------------------------------------------
  free energy    TOTEN  =      -359.37761781 eV

  energy without entropy =     -359.29439776  energy(sigma->0) =     -359.33600778


--------------------------------------------------------------------------------------------------------




--------------------------------------- Iteration      1(  19)  ---------------------------------------


    POTLOK:  cpu time    0.1431: real time    0.1434
    SETDIJ:  cpu time    0.0253: real time    0.0253
     EDDAV:  cpu time   75.0094: real time   75.1864
    CHARGE:  cpu time    2.1507: real time    2.1558
    MIXING:  cpu time    0.0054: real time    0.0054
    --------------------------------------------
      LOOP:  cpu time   77.3338: real time   77.5163

 eigenvalue-minimisations  : 25632
 total energy-change (2. order) : 0.1243631E+01  (-0.8156536E+00)
 number of electron     511.9999965 magnetization      17.0473547
 augmentation part      218.9243892 magnetization      13.2334175

 Broyden mixing:
  rms(total) = 0.17140E+01    rms(broyden)= 0.17132E+01
  rms(prec ) = 0.24408E+01
  weight for this iteration     100.00

 eigenvalues of (default mixing * dielectric matrix)
  average eigenvalue GAMMA=   0.4091
  1.6136  0.9251  0.9251  0.5136  0.3289  0.3289  0.3395  0.1300  0.1300  0.1388
  0.0968  0.0968  0.0812  0.0794

 Free energy of the ion-electron system (eV)
  ---------------------------------------------------
  alpha Z        PSCENC =      2031.47334295
  Ewald energy   TEWEN  =    -39021.94231369
  -Hartree energ DENC   =    -12268.12960590
  -exchange      EXHF   =         0.00000000
  -V(xc)+E(xc)   XCENC  =      1932.51001450
  PAW double counting   =     54967.95048830   -57271.33817733
  entropy T*S    EENTRO =        -0.08229548
  eigenvalues    EBANDS =      1024.34301802
  atomic energy  EATOM  =     48247.08154143
  Solvation  Ediel_sol  =         0.00000000
  ---------------------------------------------------
  free energy    TOTEN  =      -358.13398720 eV

  energy without entropy =     -358.05169172  energy(sigma->0) =     -358.09283946


--------------------------------------------------------------------------------------------------------




--------------------------------------- Iteration      1(  20)  ---------------------------------------


    POTLOK:  cpu time    0.1418: real time    0.1421
    SETDIJ:  cpu time    0.0255: real time    0.0256
     EDDAV:  cpu time   73.8389: real time   74.0131
    CHARGE:  cpu time    2.0982: real time    2.1032
    MIXING:  cpu time    0.0057: real time    0.0057
    --------------------------------------------
      LOOP:  cpu time   76.1101: real time   76.2897

 eigenvalue-minimisations  : 25408
 total energy-change (2. order) :-0.1196155E+01  (-0.7598490E+00)
 number of electron     511.9999960 magnetization      15.6151041
 augmentation part      218.6861785 magnetization      11.9972293

 Broyden mixing:
  rms(total) = 0.24499E+01    rms(broyden)= 0.24491E+01
  rms(prec ) = 0.36739E+01
  weight for this iteration     100.00

 eigenvalues of (default mixing * dielectric matrix)
  average eigenvalue GAMMA=   0.4234
  1.5393  1.1408  1.1408  0.6091  0.3863  0.3370  0.3370  0.1290  0.1290  0.1384
  0.1086  0.1086  0.0860  0.0860  0.0757

 Free energy of the ion-electron system (eV)
  ---------------------------------------------------
  alpha Z        PSCENC =      2031.47334295
  Ewald energy   TEWEN  =    -39021.94231369
  -Hartree energ DENC   =    -12269.79519691
  -exchange      EXHF   =         0.00000000
  -V(xc)+E(xc)   XCENC  =      1932.57636448
  PAW double counting   =     55062.94254678   -57363.24391541
  entropy T*S    EENTRO =        -0.08638185
  eigenvalues    EBANDS =      1021.66387049
  atomic energy  EATOM  =     48247.08154143
  Solvation  Ediel_sol  =         0.00000000
  ---------------------------------------------------
  free energy    TOTEN  =      -359.33014173 eV

  energy without entropy =     -359.24375987  energy(sigma->0) =     -359.28695080


--------------------------------------------------------------------------------------------------------




--------------------------------------- Iteration      1(  21)  ---------------------------------------


    POTLOK:  cpu time    0.1408: real time    0.1412
    SETDIJ:  cpu time    0.0255: real time    0.0256
     EDDAV:  cpu time   74.0116: real time   74.1861
    CHARGE:  cpu time    2.1540: real time    2.1590
    MIXING:  cpu time    0.0070: real time    0.0070
    --------------------------------------------
      LOOP:  cpu time   76.3389: real time   76.5189

 eigenvalue-minimisations  : 25024
 total energy-change (2. order) : 0.6052924E+00  (-0.7623554E+00)
 number of electron     511.9999965 magnetization      15.0328572
 augmentation part      218.6708038 magnetization      11.4801517

 Broyden mixing:
  rms(total) = 0.17380E+01    rms(broyden)= 0.17372E+01
  rms(prec ) = 0.26388E+01
  weight for this iteration     100.00

 eigenvalues of (default mixing * dielectric matrix)
  average eigenvalue GAMMA=   0.4286
  1.4308  1.3036  1.3036  0.6184  0.3979  0.3422  0.3422  0.2656  0.1266  0.1266
  0.1272  0.1272  0.0925  0.0885  0.0885  0.0762

 Free energy of the ion-electron system (eV)
  ---------------------------------------------------
  alpha Z        PSCENC =      2031.47334295
  Ewald energy   TEWEN  =    -39021.94231369
  -Hartree energ DENC   =    -12276.58341621
  -exchange      EXHF   =         0.00000000
  -V(xc)+E(xc)   XCENC  =      1932.70700285
  PAW double counting   =     55152.56273355   -57446.86400351
  entropy T*S    EENTRO =        -0.08091315
  eigenvalues    EBANDS =      1022.92117646
  atomic energy  EATOM  =     48247.08154143
  Solvation  Ediel_sol  =         0.00000000
  ---------------------------------------------------
  free energy    TOTEN  =      -358.72484933 eV

  energy without entropy =     -358.64393618  energy(sigma->0) =     -358.68439275


--------------------------------------------------------------------------------------------------------




--------------------------------------- Iteration      1(  22)  ---------------------------------------


    POTLOK:  cpu time    0.1532: real time    0.1536
    SETDIJ:  cpu time    0.0302: real time    0.0303
     EDDAV:  cpu time   77.4856: real time   77.6701
    CHARGE:  cpu time    2.3168: real time    2.3223
    MIXING:  cpu time    0.0073: real time    0.0073
    --------------------------------------------
      LOOP:  cpu time   79.9932: real time   80.1836

 eigenvalue-minimisations  : 25840
 total energy-change (2. order) : 0.6688648E+00  (-0.3270408E+00)
 number of electron     511.9999962 magnetization      13.7840096
 augmentation part      218.4728788 magnetization      10.3612665

 Broyden mixing:
  rms(total) = 0.13675E+01    rms(broyden)= 0.13669E+01
  rms(prec ) = 0.19770E+01
  weight for this iteration     100.00

 eigenvalues of (default mixing * dielectric matrix)
  average eigenvalue GAMMA=   0.4441
  1.4798  1.4595  1.4595  0.5421  0.5421  0.3979  0.3434  0.3434  0.1409  0.1409
  0.1271  0.1271  0.0987  0.0987  0.0861  0.0861  0.0758

 Free energy of the ion-electron system (eV)
  ---------------------------------------------------
  alpha Z        PSCENC =      2031.47334295
  Ewald energy   TEWEN  =    -39021.94231369
  -Hartree energ DENC   =    -12279.25042781
  -exchange      EXHF   =         0.00000000
  -V(xc)+E(xc)   XCENC  =      1932.83244834
  PAW double counting   =     55176.21753038   -57467.35060737
  entropy T*S    EENTRO =        -0.09205145
  eigenvalues    EBANDS =      1022.97455270
  atomic energy  EATOM  =     48247.08154143
  Solvation  Ediel_sol  =         0.00000000
  ---------------------------------------------------
  free energy    TOTEN  =      -358.05598451 eV

  energy without entropy =     -357.96393307  energy(sigma->0) =     -358.00995879


--------------------------------------------------------------------------------------------------------




--------------------------------------- Iteration      1(  23)  ---------------------------------------


    POTLOK:  cpu time    0.1482: real time    0.1485
    SETDIJ:  cpu time    0.0273: real time    0.0274
     EDDAV:  cpu time   76.3952: real time   76.5755
    CHARGE:  cpu time    2.0909: real time    2.0958
    MIXING:  cpu time    0.0065: real time    0.0065
    --------------------------------------------
      LOOP:  cpu time   78.6681: real time   78.8537

 eigenvalue-minimisations  : 25696
 total energy-change (2. order) :-0.1108150E+00  (-0.2746081E+00)
 number of electron     511.9999964 magnetization      13.3439748
 augmentation part      218.3056116 magnetization       9.8810481

 Broyden mixing:
  rms(total) = 0.14720E+01    rms(broyden)= 0.14715E+01
  rms(prec ) = 0.21908E+01
  weight for this iteration     100.00

 eigenvalues of (default mixing * dielectric matrix)
  average eigenvalue GAMMA=   0.4348
  1.6139  1.4371  1.4371  0.5666  0.5666  0.3449  0.3449  0.3744  0.1883  0.1287
  0.1287  0.1391  0.1075  0.1075  0.0872  0.0872  0.0905  0.0759

 Free energy of the ion-electron system (eV)
  ---------------------------------------------------
  alpha Z        PSCENC =      2031.47334295
  Ewald energy   TEWEN  =    -39021.94231369
  -Hartree energ DENC   =    -12280.13704279
  -exchange      EXHF   =         0.00000000
  -V(xc)+E(xc)   XCENC  =      1933.04102006
  PAW double counting   =     55300.48362435   -57587.74931071
  entropy T*S    EENTRO =        -0.08915852
  eigenvalues    EBANDS =      1019.67149742
  atomic energy  EATOM  =     48247.08154143
  Solvation  Ediel_sol  =         0.00000000
  ---------------------------------------------------
  free energy    TOTEN  =      -358.16679949 eV

  energy without entropy =     -358.07764097  energy(sigma->0) =     -358.12222023


--------------------------------------------------------------------------------------------------------




--------------------------------------- Iteration      1(  24)  ---------------------------------------


    POTLOK:  cpu time    0.1465: real time    0.1469
    SETDIJ:  cpu time    0.0267: real time    0.0268
     EDDAV:  cpu time   76.1294: real time   76.3109
    CHARGE:  cpu time    2.1553: real time    2.1605
    MIXING:  cpu time    0.0073: real time    0.0073
    --------------------------------------------
      LOOP:  cpu time   78.4652: real time   78.6522

 eigenvalue-minimisations  : 25072
 total energy-change (2. order) : 0.3690010E+00  (-0.1748755E+00)
 number of electron     511.9999961 magnetization      12.8093098
 augmentation part      218.3852558 magnetization       9.4576896

 Broyden mixing:
  rms(total) = 0.87968E+00    rms(broyden)= 0.87919E+00
  rms(prec ) = 0.12347E+01
  weight for this iteration     100.00

 eigenvalues of (default mixing * dielectric matrix)
  average eigenvalue GAMMA=   0.4420
  1.8987  1.3595  1.3595  0.5615  0.5615  0.4453  0.4453  0.3481  0.3481  0.1471
  0.1277  0.1277  0.1186  0.1186  0.0757  0.0874  0.0874  0.0906  0.0906

 Free energy of the ion-electron system (eV)
  ---------------------------------------------------
  alpha Z        PSCENC =      2031.47334295
  Ewald energy   TEWEN  =    -39021.94231369
  -Hartree energ DENC   =    -12279.56056362
  -exchange      EXHF   =         0.00000000
  -V(xc)+E(xc)   XCENC  =      1933.09334915
  PAW double counting   =     55362.01553562   -57649.03917261
  entropy T*S    EENTRO =        -0.09019765
  eigenvalues    EBANDS =      1019.17067986
  atomic energy  EATOM  =     48247.08154143
  Solvation  Ediel_sol  =         0.00000000
  ---------------------------------------------------
  free energy    TOTEN  =      -357.79779854 eV

  energy without entropy =     -357.70760089  energy(sigma->0) =     -357.75269971


--------------------------------------------------------------------------------------------------------




--------------------------------------- Iteration      1(  25)  ---------------------------------------


    POTLOK:  cpu time    0.1457: real time    0.1460
    SETDIJ:  cpu time    0.0270: real time    0.0270
     EDDAV:  cpu time   74.1252: real time   74.3000
    CHARGE:  cpu time    2.1685: real time    2.1736
    MIXING:  cpu time    0.0074: real time    0.0074
    --------------------------------------------
      LOOP:  cpu time   76.4737: real time   76.6541

 eigenvalue-minimisations  : 25104
 total energy-change (2. order) :-0.1107009E+00  (-0.1107059E+00)
 number of electron     511.9999963 magnetization      12.7245516
 augmentation part      218.4848608 magnetization       9.6273177

 Broyden mixing:
[...]
   -.357E+03 -.818E+02 -.101E+03   0.359E+03 0.822E+02 0.101E+03   0.103E+01 0.146E+00 -.396E+00   0.320E+00 -.879E-01 0.389E+00
   -.103E+03 0.292E+03 -.271E+03   0.103E+03 -.293E+03 0.278E+03   0.310E+00 0.498E+00 0.143E+01   0.320E-01 0.117E+00 -.194E-01
   -.732E+01 -.111E+02 0.181E+03   0.605E+01 0.109E+02 -.185E+03   0.987E+00 0.351E+00 0.223E+01   -.269E-01 0.261E+00 -.152E+00
   -.156E+03 0.541E+03 0.213E+03   0.158E+03 -.567E+03 -.225E+03   -.190E+01 0.952E+00 0.676E+00   0.128E+00 0.488E-01 0.155E+00
   -.860E+02 0.131E+03 0.987E+02   0.852E+02 -.129E+03 -.101E+03   0.850E+00 -.232E+01 0.205E+01   0.192E+00 0.143E+00 -.304E+00
   -.145E+03 0.238E+03 -.150E+03   0.147E+03 -.240E+03 0.148E+03   -.136E+01 0.109E+00 0.253E+01   0.353E+00 0.235E+00 -.870E-01
   -.202E+03 0.614E+02 -.224E+03   0.203E+03 -.638E+02 0.225E+03   0.141E+01 0.112E+01 -.289E+00   0.862E-02 0.983E-01 -.301E-01
   0.126E+03 0.139E+03 0.104E+03   -.129E+03 -.140E+03 -.104E+03   0.168E+01 0.115E+01 -.118E+01   -.318E-01 0.191E+00 -.255E+00
   -.156E+03 -.108E+03 0.130E+03   0.154E+03 0.113E+03 -.132E+03   0.459E+01 -.352E+01 0.515E+00   -.323E-01 0.387E-01 0.200E+00
   -.348E+03 -.348E+03 -.904E+02   0.387E+03 0.352E+03 0.898E+02   -.623E+01 0.128E+01 0.115E+01   -.134E+00 -.187E+00 -.732E-01
   -.910E+02 -.804E+02 -.189E+03   0.902E+02 0.817E+02 0.193E+03   0.892E+00 -.119E+01 -.375E+00   0.797E-01 -.256E+00 -.418E-01
   0.351E+02 -.260E+03 0.117E+03   -.333E+02 0.264E+03 -.117E+03   -.222E+01 -.323E+01 0.164E-01   0.101E-01 -.143E+00 -.781E-01
   -.102E+03 0.351E+01 0.255E+03   0.991E+02 -.489E+01 -.258E+03   0.263E+01 0.125E+01 -.735E+00   0.749E-01 -.134E+00 -.187E+00
   -.515E+02 -.156E+03 -.277E+03   0.513E+02 0.159E+03 0.286E+03   0.526E-01 -.242E+01 0.164E+01   0.135E+00 -.258E+00 0.136E-01
   -.168E+03 -.140E+03 -.144E+03   0.168E+03 0.138E+03 0.142E+03   -.123E+00 0.105E+01 0.246E+01   0.137E+00 0.338E-01 0.243E-01
   -.218E+03 -.755E+02 -.517E+01   0.218E+03 0.765E+02 0.585E+01   0.895E+00 -.430E+00 0.901E+00   0.477E-02 -.171E+00 -.282E-01
   -.764E+02 -.172E+03 0.418E+02   0.794E+02 0.200E+03 -.448E+02   -.221E+01 -.187E+02 0.452E+01   -.290E+00 0.131E+00 -.200E+00
   0.927E+02 -.987E+01 0.944E+01   -.102E+03 0.129E+02 -.721E+01   0.722E+01 -.306E+01 -.264E+01   0.820E-02 -.317E-03 0.373E+00
   0.113E+03 0.588E+02 0.860E+02   -.120E+03 -.604E+02 -.905E+02   0.767E+01 0.216E+01 0.385E+01   -.350E-01 0.233E+00 0.486E+00
   0.223E+03 0.253E+03 0.140E+02   -.240E+03 -.269E+03 -.116E+02   0.107E+02 0.108E+02 -.224E+01   -.119E+00 0.564E+00 -.477E-01
   0.762E+02 0.424E+02 -.848E+02   -.798E+02 -.370E+02 0.863E+02   0.281E+01 -.365E+01 -.103E+01   0.916E-01 0.373E+00 -.339E-01
   -.123E+02 0.148E+03 -.401E+02   0.179E+02 -.152E+03 0.406E+02   -.529E+01 0.326E+01 0.679E+00   0.664E-01 -.748E-01 -.330E+00
   -.287E+02 0.300E+03 0.603E+02   0.375E+02 -.361E+03 -.766E+02   -.410E+01 0.224E+02 0.746E+01   -.279E+00 -.885E-02 -.492E+00
   0.679E+02 0.550E+02 0.145E+02   -.677E+02 -.560E+02 -.182E+02   -.224E+00 0.146E+01 0.340E+01   -.264E+00 -.249E+00 0.959E-02
   0.214E+03 -.305E+03 -.895E+02   -.256E+03 0.336E+03 0.912E+02   0.147E+02 -.212E+02 -.972E+00   0.203E+00 -.204E+00 0.210E-01
   0.151E+03 -.174E+02 0.319E+02   -.160E+03 0.221E+02 -.257E+02   0.493E+01 -.514E+01 -.865E+01   -.772E-01 -.485E-01 0.213E+00
   0.598E+02 -.143E+03 0.167E+03   -.581E+02 0.151E+03 -.183E+03   -.146E+01 -.745E+01 0.132E+02   -.134E+00 -.200E+00 -.145E+00
   0.172E+03 0.443E+02 -.814E+02   -.190E+03 -.561E+02 0.916E+02   0.123E+02 0.870E+01 -.102E+02   0.523E-01 -.329E+00 -.110E+00
   0.111E+03 -.537E+02 -.345E+02   -.115E+03 0.537E+02 0.398E+02   0.428E+01 0.501E+00 -.485E+01   -.168E+00 -.238E+00 -.760E-01
   0.123E+03 -.115E+03 0.142E+03   -.132E+03 0.119E+03 -.156E+03   0.819E+01 -.455E+01 0.108E+02   0.680E-01 0.119E+00 -.208E+00
   0.121E+03 -.386E+02 0.548E+02   -.134E+03 0.347E+02 -.614E+02   0.110E+02 0.432E+01 0.616E+01   0.949E-01 -.142E+00 0.187E+00
   -.465E+00 -.170E+03 -.159E+03   0.546E+01 0.183E+03 0.170E+03   -.475E+01 -.104E+02 -.818E+01   -.159E+00 0.329E+00 0.956E-01
   0.977E+02 0.166E+03 0.622E+02   -.106E+03 -.173E+03 -.700E+02   0.729E+01 0.677E+01 0.906E+01   0.357E+00 0.179E-01 0.158E+00
   0.631E+02 -.289E+02 0.558E+02   -.683E+02 0.330E+02 -.618E+02   0.573E+01 -.508E+01 0.654E+01   -.352E-01 -.102E-01 0.896E-01
   -.776E+02 0.299E+03 0.134E+03   0.781E+02 -.317E+03 -.154E+03   -.121E+01 0.150E+02 0.132E+02   -.156E-01 0.757E-01 0.190E+00
   -.174E+03 0.213E+02 0.424E+02   0.182E+03 -.239E+02 -.451E+02   -.749E+01 0.266E+01 0.309E+01   0.186E-01 -.192E-01 0.225E-02
   -.585E+02 0.565E+02 -.147E+03   0.613E+02 -.486E+02 0.155E+03   -.255E+01 -.883E+01 -.549E+01   -.379E-01 0.152E+00 -.265E+00
   -.393E+02 0.608E+02 -.121E+02   0.399E+02 -.650E+02 0.203E+02   -.246E+00 0.439E+01 -.850E+01   -.330E-01 0.352E+00 -.888E-01
   -.159E+03 0.251E+02 0.127E+03   0.169E+03 -.205E+02 -.132E+03   -.779E+01 -.503E+01 0.435E+01   0.254E+00 0.128E+00 -.155E+00
   -.376E+02 0.303E+02 -.668E+02   0.341E+02 -.347E+02 0.649E+02   0.159E+01 0.506E+01 0.178E+01   0.277E+00 0.175E-01 -.176E-01
   -.955E+02 -.121E+03 0.734E+02   0.955E+02 0.122E+03 -.814E+02   -.211E+00 -.575E+00 0.748E+01   -.140E+00 -.708E-01 -.241E+00
   -.143E+03 -.211E+03 0.422E+02   0.152E+03 0.251E+03 -.344E+02   -.815E+01 -.139E+02 -.314E-01   0.106E+00 0.823E-01 0.254E-01
   -.203E+03 -.170E+03 0.783E+02   0.214E+03 0.174E+03 -.779E+02   -.803E+01 -.226E+01 -.209E+01   0.941E-01 -.105E+00 0.209E+00
   -.480E+02 0.108E+03 -.120E+03   0.515E+02 -.121E+03 0.121E+03   -.250E+01 0.697E+01 0.734E+00   -.931E-01 0.106E+00 0.134E-01
   -.110E+03 -.330E+02 -.111E+03   0.113E+03 0.341E+02 0.114E+03   -.199E+01 -.180E+01 -.380E+01   0.220E+00 -.181E+00 0.163E+00
   0.709E+02 -.119E+03 0.590E+02   -.806E+02 0.125E+03 -.612E+02   0.653E+01 -.399E+01 0.364E+00   -.729E-01 -.251E+00 0.182E-01
   0.587E+02 -.137E+03 0.173E+03   -.678E+02 0.146E+03 -.197E+03   0.864E+01 -.716E+01 0.146E+02   -.124E+00 -.163E+00 -.121E+00
   -.859E+02 -.636E+02 -.104E+03   0.888E+02 0.684E+02 0.117E+03   -.176E+01 -.412E+01 -.952E+01   0.186E+00 -.115E-01 -.717E-01
 -----------------------------------------------------------------------------------------------
   -.615E+02 0.456E+02 -.608E+02   0.853E-13 -.199E-12 -.426E-13   0.613E+02 -.460E+02 0.615E+02   0.198E+00 0.464E+00 -.640E+00
 
 
 POSITION                                       TOTAL-FORCE (eV/Angst)
 -----------------------------------------------------------------------------------
      8.34244      8.35871      0.01622        -1.177324     -0.356242     -0.673955
      8.26718      2.01125      1.90233        -0.478076      3.864999     -0.208495
      1.89955      0.36987      1.91385         7.120457     -9.432903     -2.802871
      2.03776      2.11256      8.39911        -0.518825     -0.312735     -0.000690
      8.39848      8.38347      3.95657        -1.256907     -0.993769      0.336436
      0.00799      2.17733      6.11215        -0.207254     -3.064756      1.584859
      2.15843      0.13734      6.38501        -0.999451     -3.052177     -0.068017
      2.03655      1.97164      4.06598        -1.547704      0.458677      0.899085
      0.28008      3.98536      0.07732        -0.537452     -0.508993     -1.218187
      0.11381      5.87958      1.68880        -2.429055      2.235429      2.021166
      1.74404      4.59255      2.10103         3.264933     -5.771333      1.014346
      2.10642      6.12138      8.32198        -2.781090     -0.287657     -0.744592
      8.16933      3.62586      4.31046        -1.117018     37.868270      6.818813
      8.11954      6.05180      6.07755        -0.173102      0.839314      0.059694
      2.34768      3.83584      6.31809        -2.027639      1.077055      3.364347
      1.64275      6.30174      4.32179         1.136598     -0.030770      0.022214
      3.71490      7.95751      8.10424         3.195385      0.496105      0.043883
      4.12266      2.33641      1.68895         0.580696     -0.868454      8.237262
      6.10173      8.08397      2.17262        -0.305942      0.371640     -1.862742
      6.06114      2.63515      8.24332         0.100762    -25.432381    -11.135307
      3.97023      0.08428      4.16543         0.186525     -0.747814     -0.808119
      4.03966      2.18844      6.15424         1.212640     -1.893421      0.024506
      6.03316      0.16564      6.11646         2.330938     -1.252526      0.916095
      6.31746      1.91771      3.99198        -1.503116     -0.212517     -1.378892
      4.20269      4.00004      0.00170         2.742430      1.261089     -0.689201
      3.74472      5.90007      2.09639        31.810614      5.066964      0.453003
      6.21438      4.04223      2.04484         0.175531     -0.075952      3.280612
      6.40614      5.91170      0.06088        -0.420111      1.146466     -0.131191
      4.14102      4.19381      4.31812        -0.076474     -0.256777     -4.131840
      4.11995      6.08336      6.01215        -0.035273      0.536992     11.144323
      6.13073      4.21320      6.24824         0.644935     -0.210966      0.375901
      5.93645      6.22322      3.93855         1.140167      0.336523      1.549516
      1.85842      1.87121      2.29486         0.522758      9.773069      1.225994
      1.98670      8.07367      0.01022        -2.067560     -0.038177     -0.033124
      8.31100      1.91486      8.23837         0.825773      0.804830     -0.142542
      0.30690      0.39549      1.96795        -6.692008     -4.277615      0.148902
      2.05142      1.81690      5.94780        -0.681648      2.103181      0.417208
      1.83999      0.00288      4.09211         0.467964     -0.680878      0.813721
      8.29034      2.37290      4.02045         4.481564    -38.357106     -9.309425
      8.32126      8.28666      6.41866        -0.296852      0.216136     -0.300300
      2.41762      5.98597      2.10781       -27.308689      9.320923      0.787558
      2.51305      4.03420      8.40116        -4.755647     -0.479071     -2.198409
      8.35161      5.92197      8.37814         0.137283      0.091796     -2.262028
      0.25232      4.04418      2.06074        -6.219194     -3.403295     -0.131086
      2.09103      6.21863      6.18674         0.336064      0.273646      0.402984
      2.23188      3.97306      4.62347        -0.606611      0.358142     -3.159700
      8.30767      6.11831      4.04600        -1.360749      0.265415     -0.287558
      8.39533      3.93326      6.06348         0.087271      3.155981      3.173276
      6.39370      1.98178      1.97825        -0.308187     -0.110656      1.447898
      6.26719      8.18201      0.15156         0.456986     -0.995606      0.578707
      3.98537      2.17306      0.12731        -0.780150     -2.322480     -6.866877
      3.68400      8.27718      2.04351         0.910132      0.052592      0.422629
      6.05888      2.05345      5.76520         0.133664     -0.819097      1.827497
      6.20799      8.35736      4.01967         0.382129      0.456402     -0.379233
      3.82090      2.04928      4.13241         2.191329     -0.292090     -0.660484
      4.24520      8.37621      6.24443        -1.606994      0.698362     -0.117779
      5.76977      6.00880      2.13078        -0.283880      0.073415     -0.767627
      6.13905      3.88141      0.34182         1.446481     25.614615      7.819753
      3.85394      5.84208      0.01374         3.607638      1.530175     -1.530679
      3.91188      4.25267      2.02926         0.877946     -5.865637      2.028566
      6.05558      6.63056      6.02876         0.531638     -0.855579     -0.166948
      6.44600      3.96387      4.32624        -3.225524      1.201497     -1.792558
      4.09383      6.19018      4.48846        -0.521304      1.020112    -10.071549
      4.21746      4.01233      6.03488         1.267583      0.689615      2.791253
 -----------------------------------------------------------------------------------
    total drift:                                0.020133     -0.008020     -0.006687


--------------------------------------------------------------------------------------------------------



  FREE ENERGIE OF THE ION-ELECTRON SYSTEM (eV)
  ---------------------------------------------------
  free  energy   TOTEN  =      -358.0222240227 eV

  energy  without entropy=     -357.9421420644  energy(sigma->0) =     -357.98218304
 


--------------------------------------------------------------------------------------------------------


    POTLOK:  cpu time    0.1683: real time    0.1687


--------------------------------------------------------------------------------------------------------


     LOOP+:  cpu time 5066.6035: real time 5078.8411
    4ORBIT:  cpu time    0.0000: real time    0.0000

volume of typ            1:    34.1 %

volume of typ            2:     8.7 %
 
total charge     
 
# of ion       s       p       d       tot
------------------------------------------
    1        0.200   0.203   7.924   8.327
    2        0.258   0.307   7.985   8.550
    3        0.361   0.478   8.057   8.896
    4        0.200   0.185   8.023   8.408
    5        0.190   0.177   7.995   8.362
    6        0.211   0.222   8.031   8.463
    7        0.218   0.231   7.996   8.446
    8        0.265   0.335   7.967   8.567
    9        0.196   0.189   8.038   8.423
   10        0.244   0.250   8.088   8.582
   11        0.356   0.459   8.134   8.948
   12        0.227   0.253   7.985   8.465
   13        0.442   0.611   8.222   9.275
   14        0.171   0.156   7.933   8.260
   15        0.244   0.281   8.019   8.544
   16        0.221   0.220   7.960   8.402
   17        0.213   0.220   7.997   8.430
   18        0.252   0.275   8.077   8.604
   19        0.199   0.186   7.958   8.344
   20        0.349   0.410   8.235   8.994
   21        0.184   0.178   7.960   8.322
   22        0.215   0.236   7.998   8.449
   23        0.222   0.243   7.930   8.395
   24        0.235   0.257   7.979   8.471
   25        0.283   0.368   8.038   8.688
   26        0.403   0.564   8.193   9.160
   27        0.220   0.233   8.045   8.498
   28        0.179   0.164   7.977   8.319
   29        0.230   0.262   8.009   8.501
   30        0.284   0.333   8.047   8.664
   31        0.198   0.190   8.010   8.398
   32        0.216   0.228   7.974   8.418
   33        1.278   2.838   0.019   4.135
   34        1.267   2.782   0.011   4.059
   35        1.278   2.715   0.006   3.999
   36        1.271   2.852   0.019   4.142
   37        1.274   2.787   0.012   4.073
   38        1.275   2.745   0.007   4.028
   39        1.306   2.914   0.042   4.262
   40        1.276   2.683   0.003   3.962
   41        1.302   2.960   0.048   4.309
   42        1.282   2.779   0.011   4.073
   43        1.260   2.775   0.011   4.046
   44        1.274   2.817   0.018   4.109
   45        1.275   2.718   0.005   3.998
   46        1.283   2.754   0.010   4.047
   47        1.269   2.731   0.007   4.007
   48        1.268   2.777   0.011   4.057
   49        1.278   2.730   0.007   4.015
   50        1.274   2.679   0.003   3.955
   51        1.270   2.823   0.019   4.111
   52        1.274   2.713   0.004   3.991
   53        1.272   2.759   0.008   4.039
   54        1.268   2.748   0.008   4.024
   55        1.276   2.752   0.008   4.037
   56        1.270   2.758   0.009   4.036
   57        1.260   2.773   0.008   4.040
   58        1.280   2.928   0.041   4.249
   59        1.273   2.779   0.009   4.061
   60        1.278   2.797   0.012   4.088
   61        1.275   2.717   0.005   3.997
   62        1.279   2.760   0.009   4.048
   63        1.278   2.817   0.019   4.114
   64        1.271   2.817   0.017   4.105
--------------------------------------------------
tot          48.70   97.88  257.21  403.79
 
magnetization (x)
 
# of ion       s       p       d       tot
------------------------------------------
    1        0.002   0.005   0.964   0.970
    2       -0.001   0.001  -0.223  -0.223
    3        0.004  -0.002   0.098   0.100
    4        0.005   0.002   0.903   0.909
    5        0.008   0.005   0.870   0.884
    6        0.004   0.004   0.468   0.476
    7       -0.005  -0.004  -0.855  -0.865
    8       -0.002   0.001  -0.338  -0.339
    9        0.007   0.005   0.743   0.755
   10        0.005   0.006   0.506   0.517
   11        0.001  -0.003   0.136   0.135
   12       -0.003  -0.002  -0.953  -0.958
   13       -0.000  -0.004  -0.009  -0.013
   14        0.003   0.003   1.181   1.186
   15        0.001  -0.002  -0.080  -0.081
   16        0.002   0.008   1.077   1.087
   17       -0.001  -0.004  -1.058  -1.063
   18        0.013   0.009   0.533   0.555
   19        0.006  -0.002   0.912   0.917
   20       -0.006  -0.006  -0.015  -0.026
   21        0.002   0.004   1.069   1.075
   22        0.004   0.005   0.902   0.911
   23       -0.007  -0.003  -0.725  -0.735
   24        0.000  -0.000   0.351   0.351
   25       -0.001  -0.000   0.009   0.008
   26        0.002   0.001   0.007   0.010
   27        0.000  -0.000  -0.451  -0.451
   28       -0.003   0.001   1.059   1.057
   29        0.003   0.005   0.094   0.102
   30       -0.002  -0.000  -0.340  -0.342
   31       -0.001  -0.001   0.888   0.887
   32       -0.003  -0.004  -0.874  -0.880
   33        0.000   0.027  -0.000   0.027
   34       -0.003  -0.115  -0.000  -0.118
   35        0.006   0.080   0.000   0.086
   36        0.005   0.041  -0.000   0.046
   37        0.002   0.027  -0.000   0.029
   38        0.005   0.052   0.000   0.056
   39        0.002   0.028  -0.000   0.029
   40        0.003   0.048   0.000   0.052
   41       -0.001   0.011  -0.000   0.011
   42        0.001   0.041  -0.000   0.042
   43        0.009   0.129   0.000   0.139
   44        0.004   0.053   0.000   0.057
   45        0.001   0.040   0.000   0.041
   46       -0.001   0.018  -0.000   0.017
   47        0.008   0.196   0.000   0.204
   48        0.004   0.036   0.000   0.041
   49       -0.001  -0.004   0.000  -0.005
   50        0.004   0.077   0.000   0.081
   51        0.009   0.094   0.000   0.104
   52        0.003   0.053   0.000   0.056
   53        0.005   0.066  -0.000   0.071
   54        0.001   0.030   0.000   0.031
   55        0.005   0.117   0.000   0.123
   56       -0.002  -0.084   0.000  -0.086
   57        0.003   0.034  -0.000   0.037
   58        0.001   0.010  -0.000   0.011
   59       -0.005  -0.076  -0.000  -0.082
   60        0.004  -0.010   0.000  -0.006
   61       -0.002   0.026  -0.000   0.024
   62        0.004   0.012   0.000   0.017
   63       -0.003  -0.071  -0.000  -0.074
   64        0.003   0.044  -0.000   0.047
--------------------------------------------------
tot           0.11    1.06    6.85    8.02
 

 total amount of memory used by VASP MPI-rank0   268121. kBytes
=======================================================================

   base      :      30000. kBytes
   nonlr-proj:      40705. kBytes
   fftplans  :       5538. kBytes
   grid      :      31719. kBytes
   one-center:       1990. kBytes
   wavefun   :     158169. kBytes
 
  
  
 General timing and accounting informations for this job:
 ========================================================
  
                  Total CPU time used (sec):     5111.281
                            User time (sec):     5103.389
                          System time (sec):        7.891
                         Elapsed time (sec):     5127.251
  
                   Maximum memory used (kb):      350024.
                   Average memory used (kb):           0.
  
                          Minor page faults:        44066
                          Major page faults:           19
                 Voluntary context switches:         1186
