 vasp.5.4.4.18Apr17-6-g9f103f2a35 (build May 12 2020 04:58:55) complex          
  
 MD_VERSION_INFO: Compiled 2020-05-12T11:58:55-UTC in devlin.sd.materialsdesign.
 com:/home/medea2/data/build/wwolf/vasp-gpu5.4.4/13047/x86_64/src/src/build/std 
 from svn 13047
 
 This VASP executable licensed from Materials Design, Inc.
 
 executed on                        Lin64 date 2023.03.23  16:44:00
 running on   16 total cores
 distrk:  each k-point on   16 cores,    1 groups
 distr:  one band on NCORES_PER_BAND=   1 cores,   16 groups


--------------------------------------------------------------------------------------------------------


 INCAR:
 POTCAR:    PAW_PBE Ni 02Aug2007                  
 POTCAR:    PAW_PBE O 08Apr2002                   

 ----------------------------------------------------------------------------- 
|                                                                             |
|           W    W    AA    RRRRR   N    N  II  N    N   GGGG   !!!           |
|           W    W   A  A   R    R  NN   N  II  NN   N  G    G  !!!           |
|           W    W  A    A  R    R  N N  N  II  N N  N  G       !!!           |
|           W WW W  AAAAAA  RRRRR   N  N N  II  N  N N  G  GGG   !            |
|           WW  WW  A    A  R   R   N   NN  II  N   NN  G    G                |
|           W    W  A    A  R    R  N    N  II  N    N   GGGG   !!!           |
|                                                                             |
|      For optimal performance we recommend to set                            |
|        NCORE= 4 - approx SQRT( number of cores)                             |
|      NCORE specifies how many cores store one orbital (NPAR=cpu/NCORE).     |
|      This setting can  greatly improve the performance of VASP for DFT.     |
|      The default,   NCORE=1            might be grossly inefficient         |
|      on modern multi-core architectures or massively parallel machines.     |
|      Do your own testing !!!!                                               |
|      Unfortunately you need to use the default for GW and RPA calculations. |
|      (for HF NCORE is supported but not extensively tested yet)             |
|                                                                             |
 ----------------------------------------------------------------------------- 

 POTCAR:    PAW_PBE Ni 02Aug2007                  
  local pseudopotential read in
  partial core-charges read in
  partial kinetic energy density read in
  atomic valenz-charges read in
  non local Contribution for L=           2  read in
    real space projection operators read in
  non local Contribution for L=           2  read in
    real space projection operators read in
  non local Contribution for L=           0  read in
    real space projection operators read in
  non local Contribution for L=           0  read in
    real space projection operators read in
  non local Contribution for L=           1  read in
    real space projection operators read in
  non local Contribution for L=           1  read in
    real space projection operators read in
    PAW grid and wavefunctions read in
 
   number of l-projection  operators is LMAX  =           6
   number of lm-projection operators is LMMAX =          18
 
 POTCAR:    PAW_PBE O 08Apr2002                   
  local pseudopotential read in
  partial core-charges read in
  partial kinetic energy density read in
  kinetic energy density of atom read in
  atomic valenz-charges read in
  non local Contribution for L=           0  read in
    real space projection operators read in
  non local Contribution for L=           0  read in
    real space projection operators read in
  non local Contribution for L=           1  read in
    real space projection operators read in
  non local Contribution for L=           1  read in
    real space projection operators read in
    PAW grid and wavefunctions read in
 
   number of l-projection  operators is LMAX  =           4
   number of lm-projection operators is LMMAX =           8
 
 Optimization of the real space projectors (new method)

 maximal supplied QI-value         = 16.25
 optimisation between [QCUT,QGAM] = [ 11.38, 22.75] = [ 36.24,144.96] Ry 
 Optimized for a Real-space Cutoff    1.47 Angstroem

   l    n(q)    QCUT    max X(q) W(low)/X(q) W(high)/X(q)  e(spline) 
   2      9    11.376    60.317    0.17E-03    0.16E-04    0.16E-06
   2      9    11.376    55.921    0.17E-03    0.16E-04    0.17E-06
   0     10    11.376    51.690    0.45E-04    0.60E-04    0.21E-06
   0     10    11.376    30.015    0.37E-04    0.55E-04    0.19E-06
   1     10    11.376    18.849    0.83E-04    0.11E-03    0.92E-07
   1     10    11.376    14.624    0.69E-04    0.92E-04    0.82E-07
 Optimization of the real space projectors (new method)

 maximal supplied QI-value         = 24.76
 optimisation between [QCUT,QGAM] = [ 11.39, 22.77] = [ 36.31,145.25] Ry 
 Optimized for a Real-space Cutoff    1.10 Angstroem

   l    n(q)    QCUT    max X(q) W(low)/X(q) W(high)/X(q)  e(spline) 
   0      7    11.387    20.381    0.22E-03    0.48E-03    0.18E-06
   0      7    11.387    15.268    0.22E-03    0.52E-03    0.19E-06
   1      7    11.387     5.964    0.22E-03    0.73E-03    0.24E-06
   1      7    11.387     5.382    0.19E-03    0.60E-03    0.21E-06

 ----------------------------------------------------------------------------- 
|                                                                             |
|  ADVICE TO THIS USER RUNNING 'VASP/VAMP'   (HEAR YOUR MASTER'S VOICE ...):  |
|                                                                             |
|      You enforced a specific xc-type in the INCAR file,                     |
|      a different type was found on the POTCAR file                          |
|          I HOPE YOU KNOW, WHAT YOU ARE  DOING                               |
|                                                                             |
 ----------------------------------------------------------------------------- 

  PAW_PBE Ni 02Aug2007                  :
 energy of atom  1       EATOM=-1077.6739
 kinetic energy error for atom=    0.0030 (will be added to EATOM!!)
  PAW_PBE O 08Apr2002                   :
 energy of atom  2       EATOM= -432.3788
 kinetic energy error for atom=    0.0224 (will be added to EATOM!!)
 
 
 POSCAR: NiO_Fm-3m_scale_1_025_disp_0_20_round_1 
  positions in direct lattice
  No initial velocities read in
 exchange correlation table for  LEXCH =       14
   RHO(1)=    0.500       N(1)  =     2000
   RHO(2)=  100.500       N(2)  =     4000
 


--------------------------------------------------------------------------------------------------------


 ion  position               nearest neighbor table
   1  0.031  0.993  0.015-  34 1.70  36 1.86  35 2.05  40 2.28  43 2.30   7 2.60   3 2.74   2 2.90
                            14 2.97  10 3.00   4 3.02
   2  0.009  0.249  0.243-  33 1.90  36 2.06  39 2.07  44 2.07  35 2.16  49 2.39  19 2.78   3 2.83
                             9 2.88   1 2.90   8 2.90   4 2.97  13 2.98  11 3.00  20 3.04
   3  0.240  0.006  0.263-  38 1.67  33 1.81  36 1.94  52 2.23  34 2.28  41 2.44  18 2.54   1 2.74
                            21 2.76   5 2.79   2 2.83   8 2.83  10 3.00  16 3.00   4 3.03  26 3.05
   4  0.273  0.257  0.009-  51 1.92  42 2.05  34 2.25  33 2.27  37 2.29  35 2.36   7 2.59  18 2.64
                            11 2.65  25 2.87  22 2.88   9 2.89  17 2.97   2 2.97   1 3.02   3 3.03
   5  0.009  0.971  0.498-  47 1.91  54 1.95  38 2.09  40 2.10  36 2.24  39 2.31   3 2.79  14 2.83
                            16 2.90  10 2.93  19 2.95   8 3.02  23 3.08
   6  0.938  0.261  0.710-  39 2.02  48 2.03  53 2.05  31 2.36  35 2.39  37 2.43  24 2.56  23 2.71
                            13 2.78  20 2.92
   7  0.240  0.041  0.793-  34 1.74  40 2.01  37 2.07  56 2.25   4 2.59   1 2.60  17 2.68  22 2.96
                            14 3.00   8 3.02
   8  0.239  0.246  0.499-  55 1.75  46 1.79  39 1.81  38 1.90  33 1.91  37 2.08  18 2.75   3 2.83
                             2 2.90  15 2.91   5 3.02   7 3.02  21 3.03  13 3.06  29 3.07
   9  0.043  0.512  0.027-  44 1.65  42 1.71  43 1.94  35 2.42  11 2.43  48 2.44  10 2.63  12 2.88
                             2 2.88   4 2.89  15 3.00
  10  0.019  0.727  0.251-  41 1.77  44 2.08  43 2.19  47 2.21  36 2.34  57 2.40   9 2.63  13 2.78
                            11 2.85  16 2.90   5 2.93   1 3.00   3 3.00  27 3.08
  11  0.263  0.497  0.213-  42 1.87  41 1.90  60 2.04  33 2.40   9 2.43  46 2.47  44 2.47   4 2.65
                            12 2.71  26 2.80  10 2.85  18 2.92  25 2.97   2 3.00  29 3.01
  12  0.303  0.731  0.996-  59 1.66  42 2.03  45 2.08  41 2.23  34 2.29  26 2.58  17 2.71  11 2.71
                            30 2.74  25 2.77   9 2.88  15 3.00  14 3.08
  13  0.982  0.502  0.489-  46 1.84  47 2.07  48 2.14  62 2.18  39 2.19  44 2.37  31 2.54   6 2.78
                            10 2.78  32 2.97   2 2.98  15 2.98  24 3.02   8 3.06  16 3.07
  14  0.031  0.756  0.754-  45 1.68  40 1.76  47 2.05  43 2.12  48 2.29  15 2.78   5 2.83  16 2.92
                             1 2.97   7 3.00  12 3.08
  15  0.240  0.502  0.731-  48 1.84  37 1.88  45 1.93  64 1.93  46 2.07  42 2.20  14 2.78  16 2.81
                            29 2.85   8 2.91  13 2.98  12 3.00   9 3.00  30 3.05
  16  0.261  0.737  0.495-  41 2.09  47 2.17  45 2.26  63 2.28  38 2.44  46 2.45  29 2.61  15 2.81
                            30 2.84  26 2.86   5 2.90  10 2.90  14 2.92   3 3.00  13 3.07
  17  0.496  0.987  0.974-  50 1.59  56 1.93  51 2.18  34 2.23  59 2.39  52 2.44   7 2.68  12 2.71
                            22 2.77  30 2.78  23 2.85  28 2.94   4 2.97  26 3.06  18 3.08
  18  0.459  0.214  0.258-  33 1.93  52 1.96  55 2.14  49 2.28  21 2.31  60 2.37  51 2.43   3 2.54
                             4 2.64   8 2.75  11 2.92  19 2.93  24 3.02  17 3.08
  19  0.758  0.036  0.262-  49 1.82  54 2.05  36 2.16  52 2.18  50 2.31  21 2.58  24 2.69   2 2.78
                            20 2.93  18 2.93   5 2.95
  20  0.744  0.261  0.998-  53 1.80  51 2.09  35 2.13  49 2.17  58 2.18  50 2.51  22 2.63  25 2.68
                            27 2.80   6 2.92  19 2.93   2 3.04  23 3.05
  21  0.513  0.020  0.444-  52 1.56  55 1.99  38 2.23  54 2.30  18 2.31  63 2.40  19 2.58  24 2.69
                             3 2.76  26 2.91  32 2.97   8 3.03  23 3.06
  22  0.523  0.249  0.777-  53 1.55  51 1.67  64 2.07  56 2.08  55 2.33  25 2.60  20 2.63  31 2.65
                            23 2.67  17 2.77   4 2.88  24 2.92   7 2.96
  23  0.733  0.014  0.734-  56 1.97  54 1.99  53 2.02  50 2.37  40 2.45  22 2.67   6 2.71  24 2.85
                            17 2.85  30 2.94  20 3.05  21 3.06   5 3.08
  24  0.725  0.253  0.494-  62 1.70  49 2.02  31 2.10  54 2.15  55 2.35  53 2.48   6 2.56  21 2.69
                            19 2.69  23 2.85  22 2.92  13 3.02  18 3.02  29 3.04
  25  0.522  0.487  0.973-  58 1.28  59 1.85  51 2.04  64 2.19  60 2.35  42 2.36  28 2.48  27 2.55
                            22 2.60  20 2.68  12 2.77   4 2.87  11 2.97  30 3.04
  26  0.486  0.742  0.242-  52 2.07  60 2.11  57 2.12  59 2.13  41 2.18  63 2.23  12 2.58  28 2.62
                            27 2.71  11 2.80  32 2.81  29 2.84  16 2.86  21 2.91   3 3.05  17 3.06
  27  0.719  0.524  0.199-  57 1.59  58 1.75  60 1.90  44 2.13  28 2.17  49 2.37  62 2.41  25 2.55
                            26 2.71  20 2.80  32 2.96  10 3.08
  28  0.705  0.713  0.024-  58 1.76  59 1.77  57 1.95  27 2.17  50 2.19  43 2.23  61 2.30  25 2.48
                            26 2.62  17 2.94  30 3.02
  29  0.482  0.519  0.495-  64 1.92  63 1.93  60 2.07  62 2.15  55 2.40  46 2.48  31 2.59  16 2.61
                            32 2.74  26 2.84  15 2.85  30 2.86  11 3.01  24 3.04   8 3.07
  30  0.497  0.758  0.736-  61 1.68  63 1.99  56 2.08  59 2.21  45 2.29  64 2.35  12 2.74  17 2.78
                            16 2.84  29 2.86  32 2.88  23 2.94  28 3.02  25 3.04  15 3.05
  31  0.734  0.445  0.652-  62 1.49  53 2.04  24 2.10  64 2.34   6 2.36  61 2.44  13 2.54  29 2.59
                            22 2.65  32 2.87
  32  0.721  0.738  0.478-  63 1.61  57 1.92  54 2.30  61 2.32  62 2.39  47 2.40  29 2.74  26 2.81
                            31 2.87  30 2.88  27 2.96  13 2.97  21 2.97
  33  0.231  0.220  0.273-   3 1.81   2 1.90   8 1.91  18 1.93   4 2.27  11 2.40
  34  0.231  0.993  0.993-   1 1.70   7 1.74  17 2.23   4 2.25   3 2.28  12 2.29
  35  0.994  0.232  0.987-   1 2.05  20 2.13   2 2.16   4 2.36   6 2.39   9 2.42
  36  0.011  0.005  0.234-   1 1.86   3 1.94   2 2.06  19 2.16   5 2.24  10 2.34
  37  0.224  0.280  0.742-  15 1.88   7 2.07   8 2.08   4 2.29   6 2.43
  38  0.249  0.024  0.461-   3 1.67   8 1.90   5 2.09  21 2.23  16 2.44
  39  0.025  0.245  0.487-   8 1.81   6 2.02   2 2.07  13 2.19   5 2.31
  40  0.019  0.964  0.746-  14 1.76   7 2.01   5 2.10   1 2.28  23 2.45
  41  0.229  0.717  0.250-  10 1.77  11 1.90  16 2.09  26 2.18  12 2.23   3 2.44
  42  0.243  0.497  0.992-   9 1.71  11 1.87  12 2.03   4 2.05  15 2.20  25 2.36
  43  0.967  0.727  0.996-   9 1.94  14 2.12  10 2.19  28 2.23   1 2.30
  44  0.970  0.490  0.208-   9 1.65   2 2.07  10 2.08  27 2.13  13 2.37  11 2.47
  45  0.227  0.728  0.762-  14 1.68  15 1.93  12 2.08  16 2.26  30 2.29
  46  0.194  0.454  0.494-   8 1.79  13 1.84  15 2.07  16 2.45  11 2.47  29 2.48
  47  0.004  0.745  0.512-   5 1.91  14 2.05  13 2.07  16 2.17  10 2.21  32 2.40
  48  0.023  0.485  0.739-  15 1.84   6 2.03  13 2.14  14 2.29   9 2.44
  49  0.726  0.249  0.255-  19 1.82  24 2.02  20 2.17  18 2.28  27 2.37   2 2.39
  50  0.680  0.970  0.007-  17 1.59  28 2.19  19 2.31  23 2.37  20 2.51
  51  0.497  0.246  0.974-  22 1.67   4 1.92  25 2.04  20 2.09  17 2.18  18 2.43
  52  0.504  0.986  0.263-  21 1.56  18 1.96  26 2.07  19 2.18   3 2.23  17 2.44
  53  0.707  0.247  0.788-  22 1.55  20 1.80  23 2.02  31 2.04   6 2.05  24 2.48
  54  0.779  0.003  0.502-   5 1.95  23 1.99  19 2.05  24 2.15  32 2.30  21 2.30
  55  0.447  0.237  0.511-   8 1.75  21 1.99  18 2.14  22 2.33  24 2.35  29 2.40
  56  0.500  0.004  0.745-  17 1.93  23 1.97  30 2.08  22 2.08   7 2.25
  57  0.734  0.705  0.253-  27 1.59  32 1.92  28 1.95  26 2.12  10 2.40
  58  0.671  0.509  0.998-  25 1.28  27 1.75  28 1.76  20 2.18
  59  0.498  0.704  0.992-  12 1.66  28 1.77  25 1.85  26 2.13  30 2.21  17 2.39
  60  0.502  0.492  0.251-  27 1.90  11 2.04  29 2.07  26 2.11  25 2.35  18 2.37
  61  0.691  0.714  0.752-  30 1.68  28 2.30  32 2.32  31 2.44
  62  0.728  0.454  0.476-  31 1.49  24 1.70  29 2.15  13 2.18  32 2.39  27 2.41
  63  0.531  0.742  0.502-  32 1.61  29 1.93  30 1.99  26 2.23  16 2.28  21 2.40
  64  0.468  0.481  0.719-  29 1.92  15 1.93  22 2.07  25 2.19  31 2.34  30 2.35
 
  LATTYP: Found a simple cubic cell.
 ALAT       =     8.4253872500
  
  Lattice vectors:
  
 A1 = (   8.4253872500,   0.0000000000,   0.0000000000)
 A2 = (   0.0000000000,   8.4253872500,   0.0000000000)
 A3 = (   0.0000000000,   0.0000000000,   8.4253872500)


Analysis of symmetry for initial positions (statically):
=====================================================================
 Subroutine PRICEL returns:
 Original cell was already a primitive cell.
 

 Routine SETGRP: Setting up the symmetry group for a 
 simple cubic supercell.


 Subroutine GETGRP returns: Found  1 space group operations
 (whereof  1 operations were pure point group operations)
 out of a pool of 48 trial point group operations.


The static configuration has the point symmetry C_1 .


Analysis of symmetry for dynamics (positions and initial velocities):
=====================================================================
 Subroutine PRICEL returns:
 Original cell was already a primitive cell.
 

 Routine SETGRP: Setting up the symmetry group for a 
 simple cubic supercell.


 Subroutine GETGRP returns: Found  1 space group operations
 (whereof  1 operations were pure point group operations)
 out of a pool of 48 trial point group operations.


The dynamic configuration has the point symmetry C_1 .


Analysis of structural, dynamic, and magnetic symmetry:
=====================================================================
 Subroutine PRICEL returns:
 Original cell was already a primitive cell.
 

 Routine SETGRP: Setting up the symmetry group for a 
 simple cubic supercell.


 Subroutine GETGRP returns: Found  1 space group operations
 (whereof  1 operations were pure point group operations)
 out of a pool of 48 trial point group operations.


The magnetic configuration has the point symmetry C_1 .


 Subroutine INISYM returns: Found  1 space group operations
 (whereof  1 operations are pure point group operations),
 and found     1 'primitive' translations

 
 
 KPOINTS: Automatic mesh                          

Automatic generation of k-mesh.
Space group operators:
 irot       det(A)        alpha          n_x          n_y          n_z        tau_x        tau_y        tau_z
    1     1.000000     0.000000     1.000000     0.000000     0.000000     0.000000     0.000000     0.000000
 
 Subroutine IBZKPT returns following result:
 ===========================================
 
 Found     14 irreducible k-points:
 
 Following reciprocal coordinates:
            Coordinates               Weight
  0.000000  0.000000  0.000000      1.000000
  0.333333  0.000000  0.000000      2.000000
  0.000000  0.333333  0.000000      2.000000
  0.333333  0.333333  0.000000      2.000000
 -0.333333  0.333333  0.000000      2.000000
  0.000000  0.000000  0.333333      2.000000
  0.333333  0.000000  0.333333      2.000000
 -0.333333  0.000000  0.333333      2.000000
  0.000000  0.333333  0.333333      2.000000
  0.333333  0.333333  0.333333      2.000000
 -0.333333  0.333333  0.333333      2.000000
  0.000000 -0.333333  0.333333      2.000000
  0.333333 -0.333333  0.333333      2.000000
 -0.333333 -0.333333  0.333333      2.000000
 
 Following cartesian coordinates:
            Coordinates               Weight
  0.000000  0.000000  0.000000      1.000000
  0.039563  0.000000  0.000000      2.000000
  0.000000  0.039563  0.000000      2.000000
  0.039563  0.039563  0.000000      2.000000
 -0.039563  0.039563  0.000000      2.000000
  0.000000  0.000000  0.039563      2.000000
  0.039563  0.000000  0.039563      2.000000
 -0.039563  0.000000  0.039563      2.000000
  0.000000  0.039563  0.039563      2.000000
  0.039563  0.039563  0.039563      2.000000
 -0.039563  0.039563  0.039563      2.000000
  0.000000 -0.039563  0.039563      2.000000
  0.039563 -0.039563  0.039563      2.000000
 -0.039563 -0.039563  0.039563      2.000000
 


--------------------------------------------------------------------------------------------------------




 Dimension of arrays:
   k-points           NKPTS =     14   k-points in BZ     NKDIM =     14   number of bands    NBANDS=    352
   number of dos      NEDOS =    301   number of ions     NIONS =     64
   non local maximal  LDIM  =      6   non local SUM 2l+1 LMDIM =     18
   total plane-waves  NPLWV = 262144
   max r-space proj   IRMAX =   5934   max aug-charges    IRDMAX=  14405
   dimension x,y,z NGX =    64 NGY =   64 NGZ =   64
   dimension x,y,z NGXF=   128 NGYF=  128 NGZF=  128
   support grid    NGXF=   128 NGYF=  128 NGZF=  128
   ions per type =              32  32
   NGX,Y,Z   is equivalent  to a cutoff of  12.63, 12.63, 12.63 a.u.
   NGXF,Y,Z  is equivalent  to a cutoff of  25.26, 25.26, 25.26 a.u.

 SYSTEM =  unknown system                          
 POSCAR =  NiO_Fm-3m_scale_1_025_disp_0_20_round_1 

 Startparameter for this run:
   NWRITE =      1    write-flag & timer
   PREC   = accura    normal or accurate (medium, high low for compatibility)
   ISTART =      0    job   : 0-new  1-cont  2-samecut
   ICHARG =      2    charge: 1-file 2-atom 10-const
   ISPIN  =      2    spin polarized calculation?
   LNONCOLLINEAR =      F non collinear calculations
   LSORBIT =      F    spin-orbit coupling
   INIWAV =      1    electr: 0-lowe 1-rand  2-diag
   LASPH  =      F    aspherical Exc in radial PAW
   METAGGA=      F    non-selfconsistent MetaGGA calc.

 Electronic Relaxation 1
   ENCUT  =  500.0 eV  36.75 Ry    6.06 a.u.  15.36 15.36 15.36*2*pi/ulx,y,z
   ENINI  =  500.0     initial cutoff
   ENAUG  =  605.4 eV  augmentation charge cutoff
   NELM   =     80;   NELMIN=  2; NELMDL= -5     # of ELM steps 
   EDIFF  = 0.1E-04   stopping-criterion for ELM
   LREAL  =      T    real-space projection
   NLSPLINE    = F    spline interpolate recip. space projectors
   LCOMPAT=      F    compatible to vasp.4.4
   GGA_COMPAT  = T    GGA compatible to vasp.4.4-vasp.4.6
   LMAXPAW     = -100 max onsite density
   LMAXMIX     =    2 max onsite mixed and CHGCAR
   VOSKOWN=      1    Vosko Wilk Nusair interpolation
   ROPT   =   -0.00025  -0.00025
 Ionic relaxation
   EDIFFG = 0.1E-03   stopping-criterion for IOM
   NSW    =      0    number of steps for IOM
   NBLOCK =      1;   KBLOCK =      1    inner block; outer block 
   IBRION =     -1    ionic relax: 0-MD 1-quasi-New 2-CG
   NFREE  =      0    steps in history (QN), initial steepest desc. (CG)
   ISIF   =      2    stress and relaxation
   IWAVPR =     10    prediction:  0-non 1-charg 2-wave 3-comb
   ISYM   =      2    0-nonsym 1-usesym 2-fastsym
   LCORR  =      T    Harris-Foulkes like correction to forces

   POTIM  = 0.5000    time-step for ionic-motion
   TEIN   =    0.0    initial temperature
   TEBEG  =    0.0;   TEEND  =   0.0 temperature during run
   SMASS  =  -3.00    Nose mass-parameter (am)
   estimated Nose-frequenzy (Omega)   =  0.10E-29 period in steps =****** mass=  -0.162E-26a.u.
   SCALEE = 1.0000    scale energy and forces
   NPACO  =    256;   APACO  = 16.0  distance and # of slots for P.C.
   PSTRESS=    0.0 pullay stress

  Mass of Ions in am
   POMASS =  58.69 16.00
  Ionic Valenz
   ZVAL   =  10.00  6.00
  Atomic Wigner-Seitz radii
   RWIGS  =   1.15  0.73
  virtual crystal weights 
   VCA    =   1.00  1.00
   NELECT =     512.0000    total number of electrons
   NUPDOWN=      -1.0000    fix difference up-down

 DOS related values:
   EMIN   =  10.00;   EMAX   =-10.00  energy-range for DOS
   EFERMI =   0.00
   ISMEAR =     0;   SIGMA  =   0.05  broadening in eV -4-tet -1-fermi 0-gaus

 Electronic relaxation 2 (details)
   IALGO  =     38    algorithm
   LDIAG  =      T    sub-space diagonalisation (order eigenvalues)
   LSUBROT=      F    optimize rotation matrix (better conditioning)
   TURBO    =      0    0=normal 1=particle mesh
   IRESTART =      0    0=no restart 2=restart with 2 vectors
   NREBOOT  =      0    no. of reboots
   NMIN     =      0    reboot dimension
   EREF     =   0.00    reference energy to select bands
   IMIX   =      4    mixing-type and parameters
     AMIX     =   0.40;   BMIX     =  1.00
     AMIX_MAG =   1.60;   BMIX_MAG =  1.00
     AMIN     =   0.10
     WC   =   100.;   INIMIX=   1;  MIXPRE=   1;  MAXMIX= -45

 Intra band minimization:
   WEIMIN = 0.0000     energy-eigenvalue tresh-hold
   EBREAK =  0.71E-08  absolut break condition
   DEPER  =   0.30     relativ break condition  

   TIME   =   0.40     timestep for ELM

  volume/ion in A,a.u.               =       9.35        63.06
  Fermi-wavevector in a.u.,A,eV,Ry     =   1.554444  2.937472 32.875685  2.416295
  Thomas-Fermi vector in A             =   2.658529
 
 Write flags
   LWAVE        =      F    write WAVECAR
   LDOWNSAMPLE  =      F    k-point downsampling of WAVECAR
   LCHARG       =      T    write CHGCAR
   LVTOT        =      F    write LOCPOT, total local potential
   LVHAR        =      F    write LOCPOT, Hartree potential only
   LELF         =      F    write electronic localiz. function (ELF)
   LORBIT       =      0    0 simple, 1 ext, 2 COOP (PROOUT), +10 PAW based schemes


 Dipole corrections
   LMONO  =      F    monopole corrections only (constant potential shift)
   LDIPOL =      F    correct potential (dipole corrections)
   IDIPOL =      0    1-x, 2-y, 3-z, 4-all directions 
   EPSILON=  1.0000000 bulk dielectric constant

 Exchange correlation treatment:
   GGA     =    PS    GGA type
   LEXCH   =    14    internal setting for exchange type
   VOSKOWN=      1    Vosko Wilk Nusair interpolation
   LHFCALC =     F    Hartree Fock is set to
   LHFONE  =     F    Hartree Fock one center treatment
   AEXX    =    0.0000 exact exchange contribution

 Linear response parameters
   LEPSILON=     F    determine dielectric tensor
   LRPA    =     F    only Hartree local field effects (RPA)
   LNABLA  =     F    use nabla operator in PAW spheres
   LVEL    =     F    velocity operator in full k-point grid
   LINTERFAST=   F  fast interpolation
   KINTER  =     0    interpolate to denser k-point grid
   CSHIFT  =0.1000    complex shift for real part using Kramers Kronig
   OMEGAMAX=  -1.0    maximum frequency
   DEG_THRESHOLD= 0.2000000E-02 threshold for treating states as degnerate
   RTIME   =   -0.100 relaxation time in fs
  (WPLASMAI=    0.000 imaginary part of plasma frequency in eV, 0.658/RTIME)
   DFIELD  = 0.0000000 0.0000000 0.0000000 field for delta impulse in time
 
 Orbital magnetization related:
   ORBITALMAG=     F  switch on orbital magnetization
   LCHIMAG   =     F  perturbation theory with respect to B field
   DQ        =  0.001000  dq finite difference perturbation B field
   LLRAUG    =     F  two centre corrections for induced B field



--------------------------------------------------------------------------------------------------------


 Static calculation
 charge density and potential will be updated during run
 spin polarized calculation
 Variant of blocked Davidson
 Davidson routine will perform the subspace rotation
 perform sub-space diagonalisation
    after iterative eigenvector-optimisation
 modified Broyden-mixing scheme, WC =      100.0
 initial mixing is a Kerker type mixing with AMIX =  0.4000 and BMIX =      1.0000
 Hartree-type preconditioning will be used
 using additional bands           96
 real space projection scheme for non local part
 use partial core corrections
 calculate Harris-corrections to forces 
   (improved forces if not selfconsistent)
 use gradient corrections 
 use of overlap-Matrix (Vanderbilt PP)
 Gauss-broadening in eV      SIGMA  =   0.05


--------------------------------------------------------------------------------------------------------


  energy-cutoff  :      500.00
  volume of cell :      598.09
      direct lattice vectors                 reciprocal lattice vectors
     8.425387250  0.000000000  0.000000000     0.118688907  0.000000000  0.000000000
     0.000000000  8.425387250  0.000000000     0.000000000  0.118688907  0.000000000
     0.000000000  0.000000000  8.425387250     0.000000000  0.000000000  0.118688907

  length of vectors
     8.425387250  8.425387250  8.425387250     0.118688907  0.118688907  0.118688907


 
 k-points in units of 2pi/SCALE and weight: Automatic mesh                          
   0.00000000  0.00000000  0.00000000       0.037
   0.03956297  0.00000000  0.00000000       0.074
   0.00000000  0.03956297  0.00000000       0.074
   0.03956297  0.03956297  0.00000000       0.074
  -0.03956297  0.03956297  0.00000000       0.074
   0.00000000  0.00000000  0.03956297       0.074
   0.03956297  0.00000000  0.03956297       0.074
  -0.03956297  0.00000000  0.03956297       0.074
   0.00000000  0.03956297  0.03956297       0.074
   0.03956297  0.03956297  0.03956297       0.074
  -0.03956297  0.03956297  0.03956297       0.074
   0.00000000 -0.03956297  0.03956297       0.074
   0.03956297 -0.03956297  0.03956297       0.074
  -0.03956297 -0.03956297  0.03956297       0.074
 
 k-points in reciprocal lattice and weights: Automatic mesh                          
   0.00000000  0.00000000  0.00000000       0.037
   0.33333333  0.00000000  0.00000000       0.074
   0.00000000  0.33333333  0.00000000       0.074
   0.33333333  0.33333333  0.00000000       0.074
  -0.33333333  0.33333333  0.00000000       0.074
   0.00000000  0.00000000  0.33333333       0.074
   0.33333333  0.00000000  0.33333333       0.074
  -0.33333333  0.00000000  0.33333333       0.074
   0.00000000  0.33333333  0.33333333       0.074
   0.33333333  0.33333333  0.33333333       0.074
  -0.33333333  0.33333333  0.33333333       0.074
   0.00000000 -0.33333333  0.33333333       0.074
   0.33333333 -0.33333333  0.33333333       0.074
  -0.33333333 -0.33333333  0.33333333       0.074
 
 position of ions in fractional coordinates (direct lattice) 
   0.03051742  0.99279432  0.01469548
   0.00940013  0.24920559  0.24261254
   0.23964682  0.00576429  0.26339250
   0.27279259  0.25718251  0.00894304
   0.00893077  0.97119718  0.49777278
   0.93776688  0.26106632  0.71045201
   0.23985294  0.04080843  0.79275775
   0.23931203  0.24583733  0.49863706
   0.04294944  0.51185256  0.02705766
   0.01867434  0.72730077  0.25090576
   0.26327908  0.49688226  0.21259659
   0.30290272  0.73085537  0.99613132
   0.98181798  0.50154499  0.48879659
   0.03052689  0.75589482  0.75397802
   0.24047408  0.50184228  0.73082504
   0.26087902  0.73665059  0.49537426
   0.49553349  0.98679930  0.97353055
   0.45851953  0.21380560  0.25822147
   0.75787942  0.03579831  0.26196998
   0.74404574  0.26105094  0.99793999
   0.51297584  0.01962757  0.44428264
   0.52343764  0.24855196  0.77685530
   0.73261539  0.01434605  0.73393910
   0.72478440  0.25258850  0.49440516
   0.52233649  0.48704016  0.97310239
   0.48583432  0.74173037  0.24163187
   0.71913125  0.52441306  0.19942824
   0.70491037  0.71272771  0.02359400
   0.48157265  0.51877621  0.49490708
   0.49670260  0.75783222  0.73574610
   0.73446324  0.44516569  0.65238744
   0.72091724  0.73760153  0.47842012
   0.23058224  0.21998226  0.27300931
   0.23131058  0.99346064  0.99308653
   0.99436478  0.23178793  0.98704266
   0.01088920  0.00464287  0.23398825
   0.22388606  0.28014417  0.74221165
   0.24900667  0.02366238  0.46056430
   0.02508320  0.24525127  0.48731534
   0.01926752  0.96388987  0.74644612
   0.22894807  0.71679463  0.24982196
   0.24261589  0.49749366  0.99152329
   0.96746023  0.72743574  0.99636668
   0.96973672  0.48967155  0.20769766
   0.22726996  0.72785937  0.76168491
   0.19430188  0.45393135  0.49423939
   0.00367303  0.74506592  0.51232737
   0.02282729  0.48460369  0.73930720
   0.72631924  0.24930996  0.25508745
   0.68028968  0.97038078  0.00678152
   0.49736948  0.24575294  0.97367332
   0.50368431  0.98594357  0.26288648
   0.70705821  0.24673847  0.78796811
   0.77913778  0.00307818  0.50218760
   0.44650812  0.23677560  0.51111339
   0.49954858  0.00430979  0.74522144
   0.73420642  0.70514574  0.25329969
   0.67084565  0.50889040  0.99752237
   0.49783088  0.70387147  0.99242183
   0.50226828  0.49152175  0.25139904
   0.69088078  0.71360734  0.75152552
   0.72810632  0.45369457  0.47627660
   0.53131828  0.74166296  0.50245689
   0.46779146  0.48051650  0.71923450
 
 position of ions in cartesian coordinates  (Angst):
   0.25712108  8.36467661  0.12381511
   0.07919974  2.09965360  2.04410460
   2.01911726  0.04856638  2.21918381
   2.29838321  2.16686224  0.07534858
   0.07524520  8.18271234  4.19392843
   7.90104911  2.19958484  5.98583331
   2.02085390  0.34382683  6.67929104
   2.01629653  2.07127471  4.20121033
   0.36186566  4.31255603  0.22797126
   0.15733855  6.12779063  2.11397819
   2.21822820  4.18642546  1.79120860
   2.55207272  6.15773952  8.39279212
   8.27219669  4.22571076  4.11830056
   0.25720087  6.36870658  6.35255680
   2.02608725  4.22821555  6.15748397
   2.19800677  6.20656649  4.17371997
   4.17506155  8.31416624  8.20237188
   3.86320460  1.80139498  2.17561588
   6.38542760  0.30161462  2.20719853
   6.26887349  2.19945526  8.40803087
   4.32202010  0.16536988  3.74325329
   4.41016482  2.09414651  6.54530674
   6.17256837  0.12087103  6.18372114
   6.10658924  2.12815593  4.16555493
   4.40088720  4.10350195  8.19876447
   4.09334229  6.24936560  2.03584208
   6.05895926  4.41838311  1.68026015
   5.93914284  6.00500696  0.19878859
   4.05743607  4.37089047  4.16978380
   4.18491175  6.38502992  6.19894581
   6.18813722  3.75069333  5.49661682
   6.07400692  6.21457853  4.03087478
   1.94274466  1.85343573  2.30020916
   1.94888121  8.37029061  8.36713859
   8.37790834  1.95290307  8.31621664
   0.09174573  0.03911798  1.97144162
   1.88632676  2.36032312  6.25342057
   2.09797762  0.19936471  3.88043258
   0.21133567  2.06633692  4.10582045
   0.16233632  8.12114542  6.28909762
   1.92897615  6.03927234  2.10484676
   2.04413283  4.19157674  8.35396769
   8.15122709  6.12892781  8.39477512
   8.17040740  4.12567243  1.74993322
   1.91483742  6.13249706  6.41749033
   1.63706858  3.82454741  4.16415825
   0.03094670  6.27746890  4.31655649
   0.19232876  4.08297375  6.22894946
   6.11952086  2.10053296  2.14921055
   5.73170400  8.17583385  0.05713693
   4.19053048  2.07056369  8.20357478
   4.24373536  8.30695638  2.21492040
   5.95723923  2.07886716  6.63893647
   6.56453752  0.02593486  4.23112500
   3.76200382  1.99492612  4.30632824
   4.20889024  0.03631165  6.27877922
   6.18597341  5.94112593  2.13414798
   5.65213439  4.28759869  8.40451226
   4.19441795  5.93038971  8.36153823
   4.23180476  4.14126109  2.11813427
   5.82093812  6.01241818  6.33189353
   6.13457771  3.82255245  4.01281479
   4.47656226  6.24879765  4.23339387
   3.94132420  4.04853759  6.05982919
 


--------------------------------------------------------------------------------------------------------


 k-point  1 :   0.0000 0.0000 0.0000  plane waves:   15203
 k-point  2 :   0.3333 0.0000 0.0000  plane waves:   15171
 k-point  3 :   0.0000 0.3333 0.0000  plane waves:   15171
 k-point  4 :   0.3333 0.3333 0.0000  plane waves:   15166
 k-point  5 :  -0.3333 0.3333 0.0000  plane waves:   15166
 k-point  6 :   0.0000 0.0000 0.3333  plane waves:   15171
 k-point  7 :   0.3333 0.0000 0.3333  plane waves:   15166
 k-point  8 :  -0.3333 0.0000 0.3333  plane waves:   15166
 k-point  9 :   0.0000 0.3333 0.3333  plane waves:   15166
 k-point 10 :   0.3333 0.3333 0.3333  plane waves:   15177
 k-point 11 :  -0.3333 0.3333 0.3333  plane waves:   15177
 k-point 12 :   0.0000-0.3333 0.3333  plane waves:   15166
 k-point 13 :   0.3333-0.3333 0.3333  plane waves:   15177
 k-point 14 :  -0.3333-0.3333 0.3333  plane waves:   15177

 maximum and minimum number of plane-waves per node :     15203    15166

 maximum number of plane-waves:     15203
 maximum index in each direction: 
   IXMAX=   15   IYMAX=   15   IZMAX=   15
   IXMIN=  -15   IYMIN=  -15   IZMIN=  -15

 The following grids will avoid any aliasing or wrap around errors in the Hartre
 e energy
  - symmetry arguments have not been applied
  - exchange correlation energies might require even more grid points
  - we recommend to set PREC=Normal or Accurate and rely on VASP defaults
 NGX is ok and might be reduce to    64
 NGY is ok and might be reduce to    64
 NGZ is ok and might be reduce to    64

 serial   3D FFT for wavefunctions
 parallel 3D FFT for charge:
    minimum data exchange during FFTs selected (reduces bandwidth)


 total amount of memory used by VASP MPI-rank0   268115. kBytes
=======================================================================

   base      :      30000. kBytes
   nonlr-proj:      40699. kBytes
   fftplans  :       5538. kBytes
   grid      :      31719. kBytes
   one-center:       1990. kBytes
   wavefun   :     158169. kBytes
 
     INWAV:  cpu time    0.0000: real time    0.0000
 Broyden mixing: mesh for mixing (old mesh)
   NGX = 31   NGY = 31   NGZ = 31
  (NGX  =128   NGY  =128   NGZ  =128)
  gives a total of  29791 points

 initial charge density was supplied:
 charge density of overlapping atoms calculated
 number of electron     512.0000000 magnetization      80.0000000
 keeping initial charge density in first step


--------------------------------------------------------------------------------------------------------


 Maximum index for non-local projection operator         5738
 Maximum index for augmentation-charges          990 (set IRDMAX)


--------------------------------------------------------------------------------------------------------


 First call to EWALD:  gamma=   0.210
 Maximum number of real-space cells 3x 3x 3
 Maximum number of reciprocal cells 3x 3x 3

    FEWALD:  cpu time    0.0031: real time    0.0031


--------------------------------------- Iteration      1(   1)  ---------------------------------------


    POTLOK:  cpu time    0.1561: real time    0.1801
    SETDIJ:  cpu time    0.0239: real time    0.0240
     EDDAV:  cpu time   51.5830: real time   51.7210
    --------------------------------------------
      LOOP:  cpu time   51.7651: real time   51.9272

 eigenvalue-minimisations  : 19712
 total energy-change (2. order) : 0.6296090E+04  (-0.2086576E+05)
 number of electron     512.0000000 magnetization      80.0000000
 augmentation part      512.0000000 magnetization      80.0000000

 Free energy of the ion-electron system (eV)
  ---------------------------------------------------
  alpha Z        PSCENC =      2031.47334295
  Ewald energy   TEWEN  =    -39311.36220997
  -Hartree energ DENC   =    -12343.47499253
  -exchange      EXHF   =         0.00000000
  -V(xc)+E(xc)   XCENC  =      1958.10541547
  PAW double counting   =     41846.49563633   -44035.77946198
  entropy T*S    EENTRO =        -0.01054774
  eigenvalues    EBANDS =      7903.56124043
  atomic energy  EATOM  =     48247.08154143
  Solvation  Ediel_sol  =         0.00000000
  ---------------------------------------------------
  free energy    TOTEN  =      6296.08996440 eV

  energy without entropy =     6296.10051214  energy(sigma->0) =     6296.09523827


--------------------------------------------------------------------------------------------------------




--------------------------------------- Iteration      1(   2)  ---------------------------------------


     EDDAV:  cpu time   51.9916: real time   52.1149
    --------------------------------------------
      LOOP:  cpu time   51.9914: real time   52.1148

 eigenvalue-minimisations  : 19712
 total energy-change (2. order) :-0.5318071E+04  (-0.4810442E+04)
 number of electron     512.0000000 magnetization      80.0000000
 augmentation part      512.0000000 magnetization      80.0000000

 Free energy of the ion-electron system (eV)
  ---------------------------------------------------
  alpha Z        PSCENC =      2031.47334295
  Ewald energy   TEWEN  =    -39311.36220997
  -Hartree energ DENC   =    -12343.47499253
  -exchange      EXHF   =         0.00000000
  -V(xc)+E(xc)   XCENC  =      1958.10541547
  PAW double counting   =     41846.49563633   -44035.77946198
  entropy T*S    EENTRO =        -0.02643426
  eigenvalues    EBANDS =      2585.50566081
  atomic energy  EATOM  =     48247.08154143
  Solvation  Ediel_sol  =         0.00000000
  ---------------------------------------------------
  free energy    TOTEN  =       978.01849825 eV

  energy without entropy =      978.04493251  energy(sigma->0) =      978.03171538


--------------------------------------------------------------------------------------------------------




--------------------------------------- Iteration      1(   3)  ---------------------------------------


     EDDAV:  cpu time   52.6247: real time   52.7491
    --------------------------------------------
      LOOP:  cpu time   52.6248: real time   52.7493

 eigenvalue-minimisations  : 20048
 total energy-change (2. order) :-0.1268822E+04  (-0.1128486E+04)
 number of electron     512.0000000 magnetization      80.0000000
 augmentation part      512.0000000 magnetization      80.0000000

 Free energy of the ion-electron system (eV)
  ---------------------------------------------------
  alpha Z        PSCENC =      2031.47334295
  Ewald energy   TEWEN  =    -39311.36220997
  -Hartree energ DENC   =    -12343.47499253
  -exchange      EXHF   =         0.00000000
  -V(xc)+E(xc)   XCENC  =      1958.10541547
  PAW double counting   =     41846.49563633   -44035.77946198
  entropy T*S    EENTRO =        -0.10418530
  eigenvalues    EBANDS =      1316.76187574
  atomic energy  EATOM  =     48247.08154143
  Solvation  Ediel_sol  =         0.00000000
  ---------------------------------------------------
  free energy    TOTEN  =      -290.80303786 eV

  energy without entropy =     -290.69885256  energy(sigma->0) =     -290.75094521


--------------------------------------------------------------------------------------------------------




--------------------------------------- Iteration      1(   4)  ---------------------------------------


     EDDAV:  cpu time   57.6847: real time   57.8211
    --------------------------------------------
      LOOP:  cpu time   57.6846: real time   57.8211

 eigenvalue-minimisations  : 22512
 total energy-change (2. order) :-0.1561295E+03  (-0.1474761E+03)
 number of electron     512.0000000 magnetization      80.0000000
 augmentation part      512.0000000 magnetization      80.0000000

 Free energy of the ion-electron system (eV)
  ---------------------------------------------------
  alpha Z        PSCENC =      2031.47334295
  Ewald energy   TEWEN  =    -39311.36220997
  -Hartree energ DENC   =    -12343.47499253
  -exchange      EXHF   =         0.00000000
  -V(xc)+E(xc)   XCENC  =      1958.10541547
  PAW double counting   =     41846.49563633   -44035.77946198
  entropy T*S    EENTRO =        -0.11391286
  eigenvalues    EBANDS =      1160.64210609
  atomic energy  EATOM  =     48247.08154143
  Solvation  Ediel_sol  =         0.00000000
  ---------------------------------------------------
  free energy    TOTEN  =      -446.93253507 eV

  energy without entropy =     -446.81862221  energy(sigma->0) =     -446.87557864


--------------------------------------------------------------------------------------------------------




--------------------------------------- Iteration      1(   5)  ---------------------------------------


     EDDAV:  cpu time   57.2677: real time   57.4033
    CHARGE:  cpu time    1.8529: real time    1.8573
    MIXING:  cpu time    0.0031: real time    0.0032
    --------------------------------------------
      LOOP:  cpu time   59.1218: real time   59.2617

 eigenvalue-minimisations  : 22320
 total energy-change (2. order) :-0.4506735E+01  (-0.4460900E+01)
 number of electron     512.0000032 magnetization      71.8278440
 augmentation part      202.5823228 magnetization      56.5784655

 Broyden mixing:
  rms(total) = 0.12256E+02    rms(broyden)= 0.12254E+02
  rms(prec ) = 0.14448E+02
  weight for this iteration     100.00

 Free energy of the ion-electron system (eV)
  ---------------------------------------------------
  alpha Z        PSCENC =      2031.47334295
  Ewald energy   TEWEN  =    -39311.36220997
  -Hartree energ DENC   =    -12343.47499253
  -exchange      EXHF   =         0.00000000
  -V(xc)+E(xc)   XCENC  =      1958.10541547
  PAW double counting   =     41846.49563633   -44035.77946198
  entropy T*S    EENTRO =        -0.11087582
  eigenvalues    EBANDS =      1156.13233398
  atomic energy  EATOM  =     48247.08154143
  Solvation  Ediel_sol  =         0.00000000
  ---------------------------------------------------
  free energy    TOTEN  =      -451.43927014 eV

  energy without entropy =     -451.32839431  energy(sigma->0) =     -451.38383223


--------------------------------------------------------------------------------------------------------




--------------------------------------- Iteration      1(   6)  ---------------------------------------


    POTLOK:  cpu time    0.1345: real time    0.1349
    SETDIJ:  cpu time    0.0244: real time    0.0244
     EDDAV:  cpu time   70.0573: real time   70.2230
    CHARGE:  cpu time    1.8297: real time    1.8341
    MIXING:  cpu time    0.0034: real time    0.0034
    --------------------------------------------
      LOOP:  cpu time   72.0493: real time   72.2197

 eigenvalue-minimisations  : 28624
 total energy-change (2. order) :-0.2126415E+02  (-0.5637758E+02)
 number of electron     512.0000043 magnetization      61.2466290
 augmentation part      234.5551067 magnetization      54.8120088

 Broyden mixing:
  rms(total) = 0.16338E+02    rms(broyden)= 0.16336E+02
  rms(prec ) = 0.20615E+02
  weight for this iteration     100.00

 eigenvalues of (default mixing * dielectric matrix)
  average eigenvalue GAMMA=   0.2825
  0.2825

 Free energy of the ion-electron system (eV)
  ---------------------------------------------------
  alpha Z        PSCENC =      2031.47334295
  Ewald energy   TEWEN  =    -39311.36220997
  -Hartree energ DENC   =    -11878.25573638
  -exchange      EXHF   =         0.00000000
  -V(xc)+E(xc)   XCENC  =      1949.93038767
  PAW double counting   =     46067.24527276   -48073.37198368
  entropy T*S    EENTRO =        -0.05404822
  eigenvalues    EBANDS =       494.61001261
  atomic energy  EATOM  =     48247.08154143
  Solvation  Ediel_sol  =         0.00000000
  ---------------------------------------------------
  free energy    TOTEN  =      -472.70342083 eV

  energy without entropy =     -472.64937261  energy(sigma->0) =     -472.67639672


--------------------------------------------------------------------------------------------------------




--------------------------------------- Iteration      1(   7)  ---------------------------------------


    POTLOK:  cpu time    0.1352: real time    0.1355
    SETDIJ:  cpu time    0.0244: real time    0.0245
     EDDAV:  cpu time   58.3430: real time   58.4810
    CHARGE:  cpu time    1.8325: real time    1.8368
    MIXING:  cpu time    0.0033: real time    0.0033
    --------------------------------------------
      LOOP:  cpu time   60.3384: real time   60.4811

 eigenvalue-minimisations  : 22832
 total energy-change (2. order) : 0.6437660E+02  (-0.3635206E+02)
 number of electron     512.0000037 magnetization      54.4372818
 augmentation part      223.6889976 magnetization      44.8528031

 Broyden mixing:
  rms(total) = 0.12403E+02    rms(broyden)= 0.12401E+02
  rms(prec ) = 0.15028E+02
  weight for this iteration     100.00

 eigenvalues of (default mixing * dielectric matrix)
  average eigenvalue GAMMA=   0.3382
  0.3382  0.3382

 Free energy of the ion-electron system (eV)
  ---------------------------------------------------
  alpha Z        PSCENC =      2031.47334295
  Ewald energy   TEWEN  =    -39311.36220997
  -Hartree energ DENC   =    -12000.64820887
  -exchange      EXHF   =         0.00000000
  -V(xc)+E(xc)   XCENC  =      1941.43602828
  PAW double counting   =     47675.64519910   -49808.97015015
  entropy T*S    EENTRO =        -0.07862318
  eigenvalues    EBANDS =       817.09626444
  atomic energy  EATOM  =     48247.08154143
  Solvation  Ediel_sol  =         0.00000000
  ---------------------------------------------------
  free energy    TOTEN  =      -408.32681597 eV

  energy without entropy =     -408.24819279  energy(sigma->0) =     -408.28750438


--------------------------------------------------------------------------------------------------------




--------------------------------------- Iteration      1(   8)  ---------------------------------------


    POTLOK:  cpu time    0.1340: real time    0.1343
    SETDIJ:  cpu time    0.0245: real time    0.0245
     EDDAV:  cpu time   65.0842: real time   65.2381
    CHARGE:  cpu time    1.8372: real time    1.8415
    MIXING:  cpu time    0.0034: real time    0.0034
    --------------------------------------------
      LOOP:  cpu time   67.0833: real time   67.2419

 eigenvalue-minimisations  : 26240
 total energy-change (2. order) : 0.1370003E+02  (-0.1185657E+02)
 number of electron     512.0000042 magnetization      49.6004380
 augmentation part      218.0590754 magnetization      40.4430853

 Broyden mixing:
  rms(total) = 0.10836E+02    rms(broyden)= 0.10835E+02
  rms(prec ) = 0.15472E+02
  weight for this iteration     100.00

 eigenvalues of (default mixing * dielectric matrix)
  average eigenvalue GAMMA=   0.3784
  0.4731  0.4731  0.1890

 Free energy of the ion-electron system (eV)
  ---------------------------------------------------
  alpha Z        PSCENC =      2031.47334295
  Ewald energy   TEWEN  =    -39311.36220997
  -Hartree energ DENC   =    -12073.61652751
  -exchange      EXHF   =         0.00000000
  -V(xc)+E(xc)   XCENC  =      1939.51268012
  PAW double counting   =     49001.75981492   -51204.76092328
  entropy T*S    EENTRO =        -0.07487764
  eigenvalues    EBANDS =       975.36037649
  atomic energy  EATOM  =     48247.08154143
  Solvation  Ediel_sol  =         0.00000000
  ---------------------------------------------------
  free energy    TOTEN  =      -394.62678249 eV

  energy without entropy =     -394.55190485  energy(sigma->0) =     -394.58934367


--------------------------------------------------------------------------------------------------------




--------------------------------------- Iteration      1(   9)  ---------------------------------------


    POTLOK:  cpu time    0.1344: real time    0.1347
    SETDIJ:  cpu time    0.0243: real time    0.0244
     EDDAV:  cpu time   63.7061: real time   63.8567
    CHARGE:  cpu time    1.8378: real time    1.8422
    MIXING:  cpu time    0.0035: real time    0.0035
    --------------------------------------------
      LOOP:  cpu time   65.7061: real time   65.8615

 eigenvalue-minimisations  : 25584
 total energy-change (2. order) :-0.3383808E+00  (-0.9895697E+01)
 number of electron     512.0000034 magnetization      38.1460464
 augmentation part      217.4766567 magnetization      29.8959440

 Broyden mixing:
  rms(total) = 0.79605E+01    rms(broyden)= 0.79586E+01
  rms(prec ) = 0.11649E+02
  weight for this iteration     100.00

 eigenvalues of (default mixing * dielectric matrix)
  average eigenvalue GAMMA=   0.5042
  1.0860  0.5499  0.2601  0.1210

 Free energy of the ion-electron system (eV)
  ---------------------------------------------------
  alpha Z        PSCENC =      2031.47334295
  Ewald energy   TEWEN  =    -39311.36220997
  -Hartree energ DENC   =    -12088.17735817
  -exchange      EXHF   =         0.00000000
  -V(xc)+E(xc)   XCENC  =      1938.29932663
  PAW double counting   =     49951.30556429   -52184.99320383
  entropy T*S    EENTRO =        -0.09056748
  eigenvalues    EBANDS =      1021.49840084
  atomic energy  EATOM  =     48247.08154143
  Solvation  Ediel_sol  =         0.00000000
  ---------------------------------------------------
  free energy    TOTEN  =      -394.96516330 eV

  energy without entropy =     -394.87459582  energy(sigma->0) =     -394.91987956


--------------------------------------------------------------------------------------------------------




--------------------------------------- Iteration      1(  10)  ---------------------------------------


    POTLOK:  cpu time    0.1337: real time    0.1340
    SETDIJ:  cpu time    0.0245: real time    0.0245
     EDDAV:  cpu time   63.9464: real time   64.0977
    CHARGE:  cpu time    1.8246: real time    1.8289
    MIXING:  cpu time    0.0038: real time    0.0038
    --------------------------------------------
      LOOP:  cpu time   65.9330: real time   66.0889

 eigenvalue-minimisations  : 25712
 total energy-change (2. order) :-0.1219246E+03  (-0.1648468E+02)
 number of electron     512.0000034 magnetization      28.7978970
 augmentation part      216.1087357 magnetization      25.6097974

 Broyden mixing:
  rms(total) = 0.16224E+02    rms(broyden)= 0.16223E+02
  rms(prec ) = 0.25559E+02
  weight for this iteration     100.00

 eigenvalues of (default mixing * dielectric matrix)
  average eigenvalue GAMMA=   0.4895
  1.4108  0.5345  0.2414  0.1304  0.1304

 Free energy of the ion-electron system (eV)
  ---------------------------------------------------
  alpha Z        PSCENC =      2031.47334295
  Ewald energy   TEWEN  =    -39311.36220997
  -Hartree energ DENC   =    -12057.70974097
  -exchange      EXHF   =         0.00000000
  -V(xc)+E(xc)   XCENC  =      1935.62250026
  PAW double counting   =     51943.78612369   -54215.95607503
  entropy T*S    EENTRO =        -0.03509280
  eigenvalues    EBANDS =       910.20984649
  atomic energy  EATOM  =     48247.08154143
  Solvation  Ediel_sol  =         0.00000000
  ---------------------------------------------------
  free energy    TOTEN  =      -516.88976395 eV

  energy without entropy =     -516.85467114  energy(sigma->0) =     -516.87221755


--------------------------------------------------------------------------------------------------------




--------------------------------------- Iteration      1(  11)  ---------------------------------------


    POTLOK:  cpu time    0.1337: real time    0.1341
    SETDIJ:  cpu time    0.0244: real time    0.0245
     EDDAV:  cpu time   61.6841: real time   61.8300
    CHARGE:  cpu time    1.8444: real time    1.8488
    MIXING:  cpu time    0.0038: real time    0.0039
    --------------------------------------------
      LOOP:  cpu time   63.6905: real time   63.8412

 eigenvalue-minimisations  : 25040
 total energy-change (2. order) : 0.9130202E+02  (-0.2292013E+02)
 number of electron     512.0000031 magnetization      25.5110671
 augmentation part      217.5432659 magnetization      21.0487506

 Broyden mixing:
  rms(total) = 0.95724E+01    rms(broyden)= 0.95709E+01
  rms(prec ) = 0.14604E+02
  weight for this iteration     100.00

 eigenvalues of (default mixing * dielectric matrix)
  average eigenvalue GAMMA=   0.4736
  1.5732  0.5444  0.2477  0.2477  0.1143  0.1143

 Free energy of the ion-electron system (eV)
  ---------------------------------------------------
  alpha Z        PSCENC =      2031.47334295
  Ewald energy   TEWEN  =    -39311.36220997
  -Hartree energ DENC   =    -12041.03905294
  -exchange      EXHF   =         0.00000000
  -V(xc)+E(xc)   XCENC  =      1934.12029843
  PAW double counting   =     53393.78152466   -55690.20200360
  entropy T*S    EENTRO =        -0.09065400
  eigenvalues    EBANDS =      1010.64946558
  atomic energy  EATOM  =     48247.08154143
  Solvation  Ediel_sol  =         0.00000000
  ---------------------------------------------------
  free energy    TOTEN  =      -425.58774746 eV

  energy without entropy =     -425.49709346  energy(sigma->0) =     -425.54242046


--------------------------------------------------------------------------------------------------------




--------------------------------------- Iteration      1(  12)  ---------------------------------------


    POTLOK:  cpu time    0.1341: real time    0.1344
    SETDIJ:  cpu time    0.0244: real time    0.0245
     EDDAV:  cpu time   59.5092: real time   59.6498
    CHARGE:  cpu time    1.8303: real time    1.8347
    MIXING:  cpu time    0.0040: real time    0.0040
    --------------------------------------------
      LOOP:  cpu time   61.5020: real time   61.6474

 eigenvalue-minimisations  : 23952
 total energy-change (2. order) : 0.2928512E+02  (-0.1077338E+02)
 number of electron     512.0000031 magnetization      22.9039880
 augmentation part      219.3540405 magnetization      19.4812569

 Broyden mixing:
  rms(total) = 0.73114E+01    rms(broyden)= 0.73099E+01
  rms(prec ) = 0.11509E+02
  weight for this iteration     100.00

 eigenvalues of (default mixing * dielectric matrix)
  average eigenvalue GAMMA=   0.4593
  1.6850  0.5802  0.3000  0.3000  0.1276  0.1276  0.0950

 Free energy of the ion-electron system (eV)
  ---------------------------------------------------
  alpha Z        PSCENC =      2031.47334295
  Ewald energy   TEWEN  =    -39311.36220997
  -Hartree energ DENC   =    -12026.41470445
  -exchange      EXHF   =         0.00000000
  -V(xc)+E(xc)   XCENC  =      1933.27261228
  PAW double counting   =     53865.99398798   -56171.26210164
  entropy T*S    EENTRO =        -0.07668727
  eigenvalues    EBANDS =      1034.99159107
  atomic energy  EATOM  =     48247.08154143
  Solvation  Ediel_sol  =         0.00000000
  ---------------------------------------------------
  free energy    TOTEN  =      -396.30262761 eV

  energy without entropy =     -396.22594034  energy(sigma->0) =     -396.26428398


--------------------------------------------------------------------------------------------------------




--------------------------------------- Iteration      1(  13)  ---------------------------------------


    POTLOK:  cpu time    0.1338: real time    0.1341
    SETDIJ:  cpu time    0.0244: real time    0.0245
     EDDAV:  cpu time   59.5000: real time   59.6407
    CHARGE:  cpu time    1.8312: real time    1.8356
    MIXING:  cpu time    0.0042: real time    0.0042
    --------------------------------------------
      LOOP:  cpu time   61.4936: real time   61.6391

 eigenvalue-minimisations  : 23920
 total energy-change (2. order) : 0.1944752E+02  (-0.6404277E+01)
 number of electron     512.0000035 magnetization      21.4242971
 augmentation part      220.0444689 magnetization      17.4666530

 Broyden mixing:
  rms(total) = 0.53893E+01    rms(broyden)= 0.53873E+01
  rms(prec ) = 0.80852E+01
  weight for this iteration     100.00

 eigenvalues of (default mixing * dielectric matrix)
  average eigenvalue GAMMA=   0.4408
  1.7130  0.6453  0.3132  0.3132  0.2195  0.1129  0.1129  0.0964

 Free energy of the ion-electron system (eV)
  ---------------------------------------------------
  alpha Z        PSCENC =      2031.47334295
  Ewald energy   TEWEN  =    -39311.36220997
  -Hartree energ DENC   =    -12011.47467578
  -exchange      EXHF   =         0.00000000
  -V(xc)+E(xc)   XCENC  =      1932.49666711
  PAW double counting   =     54160.44753365   -56470.36385266
  entropy T*S    EENTRO =        -0.07681803
  eigenvalues    EBANDS =      1044.92336782
  atomic energy  EATOM  =     48247.08154143
  Solvation  Ediel_sol  =         0.00000000
  ---------------------------------------------------
  free energy    TOTEN  =      -376.85510348 eV

  energy without entropy =     -376.77828545  energy(sigma->0) =     -376.81669447


--------------------------------------------------------------------------------------------------------




--------------------------------------- Iteration      1(  14)  ---------------------------------------


    POTLOK:  cpu time    0.1338: real time    0.1341
    SETDIJ:  cpu time    0.0242: real time    0.0243
     EDDAV:  cpu time   61.0638: real time   61.2082
    CHARGE:  cpu time    1.8391: real time    1.8434
    MIXING:  cpu time    0.0044: real time    0.0044
    --------------------------------------------
      LOOP:  cpu time   63.0653: real time   63.2144

 eigenvalue-minimisations  : 24736
 total energy-change (2. order) : 0.2951451E+01  (-0.8367024E+01)
 number of electron     512.0000037 magnetization      20.7019642
 augmentation part      219.6502119 magnetization      16.8172995

 Broyden mixing:
  rms(total) = 0.53169E+01    rms(broyden)= 0.53160E+01
  rms(prec ) = 0.83769E+01
  weight for this iteration     100.00

 eigenvalues of (default mixing * dielectric matrix)
  average eigenvalue GAMMA=   0.4197
  1.6603  0.7201  0.3263  0.3263  0.3112  0.1153  0.1153  0.1010  0.1010

 Free energy of the ion-electron system (eV)
  ---------------------------------------------------
  alpha Z        PSCENC =      2031.47334295
  Ewald energy   TEWEN  =    -39311.36220997
  -Hartree energ DENC   =    -12009.69791787
  -exchange      EXHF   =         0.00000000
  -V(xc)+E(xc)   XCENC  =      1931.94820568
  PAW double counting   =     54244.33602198   -56555.52514731
  entropy T*S    EENTRO =        -0.08019303
  eigenvalues    EBANDS =      1047.92270363
  atomic energy  EATOM  =     48247.08154143
  Solvation  Ediel_sol  =         0.00000000
  ---------------------------------------------------
  free energy    TOTEN  =      -373.90365251 eV

  energy without entropy =     -373.82345947  energy(sigma->0) =     -373.86355599


--------------------------------------------------------------------------------------------------------




--------------------------------------- Iteration      1(  15)  ---------------------------------------


    POTLOK:  cpu time    0.1338: real time    0.1341
    SETDIJ:  cpu time    0.0244: real time    0.0245
     EDDAV:  cpu time   60.7599: real time   60.9036
    CHARGE:  cpu time    1.8376: real time    1.8420
    MIXING:  cpu time    0.0046: real time    0.0046
    --------------------------------------------
      LOOP:  cpu time   62.7603: real time   62.9088

 eigenvalue-minimisations  : 24560
 total energy-change (2. order) : 0.1332526E+01  (-0.4431942E+01)
 number of electron     512.0000038 magnetization      20.3190220
 augmentation part      218.5035720 magnetization      16.0896012

 Broyden mixing:
  rms(total) = 0.60025E+01    rms(broyden)= 0.60017E+01
  rms(prec ) = 0.98175E+01
  weight for this iteration     100.00

 eigenvalues of (default mixing * dielectric matrix)
  average eigenvalue GAMMA=   0.3919
  1.6473  0.7338  0.3387  0.3387  0.3400  0.1229  0.1229  0.1080  0.0945  0.0718

 Free energy of the ion-electron system (eV)
  ---------------------------------------------------
  alpha Z        PSCENC =      2031.47334295
  Ewald energy   TEWEN  =    -39311.36220997
  -Hartree energ DENC   =    -12012.27850919
  -exchange      EXHF   =         0.00000000
  -V(xc)+E(xc)   XCENC  =      1931.53499138
  PAW double counting   =     54188.40913707   -56497.18203765
  entropy T*S    EENTRO =        -0.07974557
  eigenvalues    EBANDS =      1049.83236328
  atomic energy  EATOM  =     48247.08154143
  Solvation  Ediel_sol  =         0.00000000
  ---------------------------------------------------
  free energy    TOTEN  =      -372.57112627 eV

  energy without entropy =     -372.49138070  energy(sigma->0) =     -372.53125349


--------------------------------------------------------------------------------------------------------




--------------------------------------- Iteration      1(  16)  ---------------------------------------


    POTLOK:  cpu time    0.1334: real time    0.1337
    SETDIJ:  cpu time    0.0245: real time    0.0245
     EDDAV:  cpu time   65.7801: real time   65.9356
    CHARGE:  cpu time    1.8339: real time    1.8382
    MIXING:  cpu time    0.0052: real time    0.0126
    --------------------------------------------
      LOOP:  cpu time   67.7771: real time   67.9447

 eigenvalue-minimisations  : 26752
 total energy-change (2. order) : 0.6214963E+01  (-0.3671682E+01)
 number of electron     512.0000037 magnetization      19.9325800
 augmentation part      219.0726021 magnetization      15.7437120

 Broyden mixing:
  rms(total) = 0.26895E+01    rms(broyden)= 0.26886E+01
  rms(prec ) = 0.39513E+01
  weight for this iteration     100.00

 eigenvalues of (default mixing * dielectric matrix)
  average eigenvalue GAMMA=   0.3761
  1.6022  0.7354  0.3553  0.3553  0.3584  0.2262  0.1216  0.1216  0.0974  0.0974
  0.0663

 Free energy of the ion-electron system (eV)
  ---------------------------------------------------
  alpha Z        PSCENC =      2031.47334295
  Ewald energy   TEWEN  =    -39311.36220997
  -Hartree energ DENC   =    -12013.07182217
  -exchange      EXHF   =         0.00000000
  -V(xc)+E(xc)   XCENC  =      1931.37555295
  PAW double counting   =     54175.13007415   -56482.15534820
  entropy T*S    EENTRO =        -0.08256708
  eigenvalues    EBANDS =      1055.25527258
  atomic energy  EATOM  =     48247.08154143
  Solvation  Ediel_sol  =         0.00000000
  ---------------------------------------------------
  free energy    TOTEN  =      -366.35616334 eV

  energy without entropy =     -366.27359626  energy(sigma->0) =     -366.31487980


--------------------------------------------------------------------------------------------------------




--------------------------------------- Iteration      1(  17)  ---------------------------------------


    POTLOK:  cpu time    0.1351: real time    0.1354
    SETDIJ:  cpu time    0.0245: real time    0.0245
     EDDAV:  cpu time   62.9903: real time   63.1393
    CHARGE:  cpu time    1.8336: real time    1.8379
    MIXING:  cpu time    0.0048: real time    0.0049
    --------------------------------------------
      LOOP:  cpu time   64.9882: real time   65.1420

 eigenvalue-minimisations  : 25376
 total energy-change (2. order) : 0.1576944E+01  (-0.7673673E+00)
 number of electron     512.0000035 magnetization      19.0907074
 augmentation part      218.8635548 magnetization      14.8142829

 Broyden mixing:
  rms(total) = 0.21124E+01    rms(broyden)= 0.21112E+01
  rms(prec ) = 0.30066E+01
  weight for this iteration     100.00

 eigenvalues of (default mixing * dielectric matrix)
  average eigenvalue GAMMA=   0.3806
  1.5555  0.6174  0.6174  0.3771  0.3771  0.3999  0.1192  0.1192  0.1087  0.1087
  0.1008  0.0660

 Free energy of the ion-electron system (eV)
  ---------------------------------------------------
  alpha Z        PSCENC =      2031.47334295
  Ewald energy   TEWEN  =    -39311.36220997
  -Hartree energ DENC   =    -12016.01937511
  -exchange      EXHF   =         0.00000000
  -V(xc)+E(xc)   XCENC  =      1931.26781450
  PAW double counting   =     54147.43876026   -56451.86781878
  entropy T*S    EENTRO =        -0.08189190
  eigenvalues    EBANDS =      1057.29061717
  atomic energy  EATOM  =     48247.08154143
  Solvation  Ediel_sol  =         0.00000000
  ---------------------------------------------------
  free energy    TOTEN  =      -364.77921945 eV

  energy without entropy =     -364.69732755  energy(sigma->0) =     -364.73827350


--------------------------------------------------------------------------------------------------------




--------------------------------------- Iteration      1(  18)  ---------------------------------------


    POTLOK:  cpu time    0.1336: real time    0.1339
    SETDIJ:  cpu time    0.0244: real time    0.0245
     EDDAV:  cpu time   62.1895: real time   62.3367
    CHARGE:  cpu time    1.8399: real time    1.8442
    MIXING:  cpu time    0.0053: real time    0.0054
    --------------------------------------------
      LOOP:  cpu time   64.1927: real time   64.3447

 eigenvalue-minimisations  : 24976
 total energy-change (2. order) :-0.1485388E+00  (-0.7219901E+00)
 number of electron     512.0000038 magnetization      18.1696548
 augmentation part      218.8466689 magnetization      13.9979919

 Broyden mixing:
  rms(total) = 0.20557E+01    rms(broyden)= 0.20550E+01
  rms(prec ) = 0.28695E+01
  weight for this iteration     100.00

 eigenvalues of (default mixing * dielectric matrix)
  average eigenvalue GAMMA=   0.3829
  1.5522  0.7314  0.7314  0.4569  0.3636  0.3636  0.1708  0.1184  0.1184  0.1014
  0.1014  0.1030  0.0657

 Free energy of the ion-electron system (eV)
  ---------------------------------------------------
  alpha Z        PSCENC =      2031.47334295
  Ewald energy   TEWEN  =    -39311.36220997
  -Hartree energ DENC   =    -12016.70556343
  -exchange      EXHF   =         0.00000000
  -V(xc)+E(xc)   XCENC  =      1931.11881496
  PAW double counting   =     54185.78251887   -56486.17129137
  entropy T*S    EENTRO =        -0.07992600
  eigenvalues    EBANDS =      1053.93501431
  atomic energy  EATOM  =     48247.08154143
  Solvation  Ediel_sol  =         0.00000000
  ---------------------------------------------------
  free energy    TOTEN  =      -364.92775824 eV

  energy without entropy =     -364.84783224  energy(sigma->0) =     -364.88779524


--------------------------------------------------------------------------------------------------------




--------------------------------------- Iteration      1(  19)  ---------------------------------------


    POTLOK:  cpu time    0.1341: real time    0.1344
    SETDIJ:  cpu time    0.0243: real time    0.0244
     EDDAV:  cpu time   61.7132: real time   61.8593
    CHARGE:  cpu time    1.8397: real time    1.8441
    MIXING:  cpu time    0.0052: real time    0.0052
    --------------------------------------------
      LOOP:  cpu time   63.7166: real time   63.8675

 eigenvalue-minimisations  : 24704
 total energy-change (2. order) : 0.2094465E+00  (-0.6067356E+00)
 number of electron     512.0000039 magnetization      17.5811509
 augmentation part      218.7995783 magnetization      13.1118002

 Broyden mixing:
  rms(total) = 0.16482E+01    rms(broyden)= 0.16473E+01
  rms(prec ) = 0.24648E+01
  weight for this iteration     100.00

 eigenvalues of (default mixing * dielectric matrix)
  average eigenvalue GAMMA=   0.3995
  1.4767  0.9350  0.9350  0.4766  0.3597  0.3597  0.3260  0.1218  0.1218  0.1164
  0.1026  0.1026  0.0933  0.0660

 Free energy of the ion-electron system (eV)
  ---------------------------------------------------
  alpha Z        PSCENC =      2031.47334295
  Ewald energy   TEWEN  =    -39311.36220997
  -Hartree energ DENC   =    -12014.92210331
  -exchange      EXHF   =         0.00000000
  -V(xc)+E(xc)   XCENC  =      1931.01971475
  PAW double counting   =     54283.48098497   -56581.22458726
  entropy T*S    EENTRO =        -0.08272775
  eigenvalues    EBANDS =      1049.81773241
  atomic energy  EATOM  =     48247.08154143
  Solvation  Ediel_sol  =         0.00000000
  ---------------------------------------------------
  free energy    TOTEN  =      -364.71831178 eV

  energy without entropy =     -364.63558403  energy(sigma->0) =     -364.67694791


--------------------------------------------------------------------------------------------------------




--------------------------------------- Iteration      1(  20)  ---------------------------------------


    POTLOK:  cpu time    0.1335: real time    0.1338
    SETDIJ:  cpu time    0.0244: real time    0.0244
     EDDAV:  cpu time   63.4069: real time   63.5569
    CHARGE:  cpu time    1.8368: real time    1.8411
    MIXING:  cpu time    0.0053: real time    0.0054
    --------------------------------------------
      LOOP:  cpu time   65.4069: real time   65.5617

 eigenvalue-minimisations  : 25552
 total energy-change (2. order) :-0.4814529E+00  (-0.5917518E+00)
 number of electron     512.0000033 magnetization      16.6074647
 augmentation part      218.7699457 magnetization      12.6776592

 Broyden mixing:
  rms(total) = 0.18479E+01    rms(broyden)= 0.18473E+01
  rms(prec ) = 0.27724E+01
  weight for this iteration     100.00

 eigenvalues of (default mixing * dielectric matrix)
  average eigenvalue GAMMA=   0.4138
  1.4756  1.1093  1.1093  0.5856  0.3621  0.3621  0.3685  0.1323  0.1220  0.1220
  0.1048  0.1048  0.0989  0.0661  0.0839

 Free energy of the ion-electron system (eV)
  ---------------------------------------------------
  alpha Z        PSCENC =      2031.47334295
  Ewald energy   TEWEN  =    -39311.36220997
  -Hartree energ DENC   =    -12016.45261985
  -exchange      EXHF   =         0.00000000
  -V(xc)+E(xc)   XCENC  =      1931.14570311
  PAW double counting   =     54352.17061690   -56646.49432304
  entropy T*S    EENTRO =        -0.08339977
  eigenvalues    EBANDS =      1047.32158350
  atomic energy  EATOM  =     48247.08154143
  Solvation  Ediel_sol  =         0.00000000
  ---------------------------------------------------
  free energy    TOTEN  =      -365.19976473 eV

  energy without entropy =     -365.11636496  energy(sigma->0) =     -365.15806485


--------------------------------------------------------------------------------------------------------




--------------------------------------- Iteration      1(  21)  ---------------------------------------


    POTLOK:  cpu time    0.1344: real time    0.1347
    SETDIJ:  cpu time    0.0244: real time    0.0245
     EDDAV:  cpu time   61.0972: real time   61.2418
    CHARGE:  cpu time    1.8378: real time    1.8421
    MIXING:  cpu time    0.0057: real time    0.0057
    --------------------------------------------
      LOOP:  cpu time   63.0995: real time   63.2487

 eigenvalue-minimisations  : 24512
 total energy-change (2. order) : 0.4890165E+00  (-0.3845814E+00)
 number of electron     512.0000037 magnetization      16.1583290
 augmentation part      218.6703339 magnetization      12.1625490

 Broyden mixing:
  rms(total) = 0.13192E+01    rms(broyden)= 0.13187E+01
  rms(prec ) = 0.20494E+01
  weight for this iteration     100.00

 eigenvalues of (default mixing * dielectric matrix)
  average eigenvalue GAMMA=   0.4213
  1.4281  1.2397  1.2397  0.6261  0.3632  0.3632  0.3519  0.2921  0.1341  0.1199
  0.1199  0.1050  0.1050  0.0660  0.0993  0.0873

 Free energy of the ion-electron system (eV)
  ---------------------------------------------------
  alpha Z        PSCENC =      2031.47334295
  Ewald energy   TEWEN  =    -39311.36220997
  -Hartree energ DENC   =    -12020.59359508
  -exchange      EXHF   =         0.00000000
  -V(xc)+E(xc)   XCENC  =      1931.34145560
  PAW double counting   =     54465.39836952   -56755.21763803
  entropy T*S    EENTRO =        -0.07940702
  eigenvalues    EBANDS =      1047.24739234
  atomic energy  EATOM  =     48247.08154143
  Solvation  Ediel_sol  =         0.00000000
  ---------------------------------------------------
  free energy    TOTEN  =      -364.71074827 eV

  energy without entropy =     -364.63134124  energy(sigma->0) =     -364.67104475


--------------------------------------------------------------------------------------------------------




--------------------------------------- Iteration      1(  22)  ---------------------------------------


    POTLOK:  cpu time    0.1341: real time    0.1344
    SETDIJ:  cpu time    0.0244: real time    0.0245
     EDDAV:  cpu time   62.9747: real time   63.1237
    CHARGE:  cpu time    1.8412: real time    1.8456
    MIXING:  cpu time    0.0057: real time    0.0057
    --------------------------------------------
      LOOP:  cpu time   64.9802: real time   65.1339

 eigenvalue-minimisations  : 25504
 total energy-change (2. order) : 0.2291670E+00  (-0.3450097E+00)
 number of electron     512.0000034 magnetization      15.5224216
 augmentation part      218.6287001 magnetization      11.5239973

 Broyden mixing:
  rms(total) = 0.11207E+01    rms(broyden)= 0.11201E+01
  rms(prec ) = 0.17419E+01
  weight for this iteration     100.00

 eigenvalues of (default mixing * dielectric matrix)
  average eigenvalue GAMMA=   0.4392
  1.4240  1.4240  1.3770  0.5919  0.5919  0.3708  0.3708  0.3724  0.1497  0.1200
  0.1200  0.1049  0.1049  0.1049  0.0661  0.0925  0.0801

 Free energy of the ion-electron system (eV)
  ---------------------------------------------------
  alpha Z        PSCENC =      2031.47334295
  Ewald energy   TEWEN  =    -39311.36220997
  -Hartree energ DENC   =    -12021.91921413
  -exchange      EXHF   =         0.00000000
  -V(xc)+E(xc)   XCENC  =      1931.43491144
  PAW double counting   =     54507.01324447   -56793.86775541
  entropy T*S    EENTRO =        -0.08150104
  eigenvalues    EBANDS =      1045.74605897
  atomic energy  EATOM  =     48247.08154143
  Solvation  Ediel_sol  =         0.00000000
  ---------------------------------------------------
  free energy    TOTEN  =      -364.48158129 eV

  energy without entropy =     -364.40008025  energy(sigma->0) =     -364.44083077


--------------------------------------------------------------------------------------------------------




--------------------------------------- Iteration      1(  23)  ---------------------------------------


    POTLOK:  cpu time    0.1338: real time    0.1341
    SETDIJ:  cpu time    0.0244: real time    0.0244
     EDDAV:  cpu time   63.8020: real time   63.9530
    CHARGE:  cpu time    1.8396: real time    1.8439
    MIXING:  cpu time    0.0061: real time    0.0061
    --------------------------------------------
      LOOP:  cpu time   65.8059: real time   65.9615

 eigenvalue-minimisations  : 25856
 total energy-change (2. order) :-0.2943942E+00  (-0.2628455E+00)
 number of electron     512.0000036 magnetization      15.0566983
 augmentation part      218.5819848 magnetization      11.0119850

 Broyden mixing:
  rms(total) = 0.13864E+01    rms(broyden)= 0.13860E+01
  rms(prec ) = 0.21262E+01
  weight for this iteration     100.00

 eigenvalues of (default mixing * dielectric matrix)
  average eigenvalue GAMMA=   0.4366
  1.4814  1.4814  1.4217  0.6559  0.6559  0.3706  0.3706  0.3670  0.1591  0.1197
  0.1197  0.1163  0.1028  0.1028  0.0660  0.0980  0.0887  0.0802

 Free energy of the ion-electron system (eV)
  ---------------------------------------------------
  alpha Z        PSCENC =      2031.47334295
  Ewald energy   TEWEN  =    -39311.36220997
  -Hartree energ DENC   =    -12023.43923729
  -exchange      EXHF   =         0.00000000
  -V(xc)+E(xc)   XCENC  =      1931.61172759
  PAW double counting   =     54584.41990423   -56867.94749429
  entropy T*S    EENTRO =        -0.08031583
  eigenvalues    EBANDS =      1043.46676567
  atomic energy  EATOM  =     48247.08154143
  Solvation  Ediel_sol  =         0.00000000
  ---------------------------------------------------
  free energy    TOTEN  =      -364.77597549 eV

  energy without entropy =     -364.69565967  energy(sigma->0) =     -364.73581758


--------------------------------------------------------------------------------------------------------




--------------------------------------- Iteration      1(  24)  ---------------------------------------


    POTLOK:  cpu time    0.1339: real time    0.1343
    SETDIJ:  cpu time    0.0243: real time    0.0244
     EDDAV:  cpu time   62.9009: real time   63.0497
    CHARGE:  cpu time    1.8385: real time    1.8429
    MIXING:  cpu time    0.0062: real time    0.0062
    --------------------------------------------
      LOOP:  cpu time   64.9039: real time   65.0574

 eigenvalue-minimisations  : 25408
 total energy-change (2. order) : 0.4140664E+00  (-0.1937308E+00)
 number of electron     512.0000038 magnetization      14.7562550
 augmentation part      218.5686629 magnetization      10.8717193

 Broyden mixing:
  rms(total) = 0.70405E+00    rms(broyden)= 0.70364E+00
  rms(prec ) = 0.10484E+01
  weight for this iteration     100.00

 eigenvalues of (default mixing * dielectric matrix)
  average eigenvalue GAMMA=   0.4522
  1.8183  1.4625  1.4625  0.6815  0.6815  0.3754  0.3754  0.3668  0.3220  0.1562
  0.1200  0.1200  0.1056  0.1056  0.1048  0.1048  0.0661  0.0870  0.0754

 Free energy of the ion-electron system (eV)
  ---------------------------------------------------
  alpha Z        PSCENC =      2031.47334295
  Ewald energy   TEWEN  =    -39311.36220997
  -Hartree energ DENC   =    -12024.57778230
  -exchange      EXHF   =         0.00000000
  -V(xc)+E(xc)   XCENC  =      1931.81745629
  PAW double counting   =     54652.38082678   -56934.26723061
  entropy T*S    EENTRO =        -0.08285089
  eigenvalues    EBANDS =      1043.17499725
  atomic energy  EATOM  =     48247.08154143
  Solvation  Ediel_sol  =         0.00000000
  ---------------------------------------------------
  free energy    TOTEN  =      -364.36190906 eV

  energy without entropy =     -364.27905817  energy(sigma->0) =     -364.32048362


--------------------------------------------------------------------------------------------------------




--------------------------------------- Iteration      1(  25)  ---------------------------------------


    POTLOK:  cpu time    0.1337: real time    0.1340
    SETDIJ:  cpu time    0.0245: real time    0.0245
     EDDAV:  cpu time   63.2858: real time   63.4355
    CHARGE:  cpu time    1.8384: real time    1.8428
    MIXING:  cpu time    0.0064: real time    0.0064
    --------------------------------------------
      LOOP:  cpu time   65.2888: real time   65.4432

 eigenvalue-minimisations  : 25600
 total energy-change (2. order) :-0.3448504E-02  (-0.8922441E-01)
[...]
   0.858E+02 0.306E+02 -.622E+02   -.864E+02 -.303E+02 0.609E+02   -.608E+01 0.251E+00 0.946E+00   -.422E-01 0.156E+00 0.164E+00
   -.135E+03 -.118E+03 0.122E+03   0.136E+03 0.121E+03 -.123E+03   -.243E+00 -.121E+01 -.441E+00   0.917E-01 -.750E-02 0.135E+00
   -.132E+03 0.191E+03 0.141E+03   0.133E+03 -.188E+03 -.142E+03   -.446E-01 -.432E+01 0.402E+00   -.198E+00 0.181E+00 0.613E-01
   -.263E+03 0.103E+03 -.115E+03   0.268E+03 -.106E+03 0.117E+03   -.293E+01 0.213E+01 0.722E+00   -.163E+00 0.454E-02 0.131E+00
   -.610E+02 0.151E+03 -.320E+03   0.605E+02 -.149E+03 0.329E+03   0.855E+00 -.838E+00 0.290E+00   -.836E-01 0.330E+00 -.236E+00
   0.204E+03 0.752E+02 0.197E+03   -.215E+03 -.750E+02 -.202E+03   0.572E+00 -.343E+00 -.106E+01   -.364E-02 0.881E-01 -.128E+00
   -.233E+03 0.222E+03 -.791E+02   0.233E+03 -.224E+03 0.774E+02   0.149E+01 0.462E+00 0.207E+01   -.648E-01 0.845E-01 -.845E-01
   -.513E+02 0.219E+03 0.503E+02   0.525E+02 -.224E+03 -.551E+02   -.309E+00 0.116E+01 0.233E+01   -.249E+00 0.504E-01 -.153E+00
   0.290E+03 0.125E+03 0.122E+03   -.333E+03 -.132E+03 -.130E+03   0.122E+01 -.159E+00 0.900E+00   0.193E-01 -.146E+00 0.394E-01
   0.531E+02 -.149E+03 -.836E+02   -.539E+02 0.149E+03 0.841E+02   0.308E+00 0.828E-01 -.417E+00   -.242E-01 0.406E-01 0.830E-01
   -.240E+03 0.231E+03 -.137E+03   0.242E+03 -.239E+03 0.145E+03   -.275E+00 0.623E-01 -.543E+01   -.131E+00 -.180E+00 0.992E-01
   -.401E+03 -.343E+03 0.199E+03   0.408E+03 0.353E+03 -.204E+03   -.148E+01 -.483E+01 0.261E+01   -.300E-01 -.392E-01 0.284E-01
   0.903E+02 0.305E+02 0.420E+02   -.915E+02 -.309E+02 -.421E+02   0.863E+00 -.508E+00 -.218E+00   0.209E-01 -.218E+00 -.644E-01
   0.955E+02 -.122E+03 0.507E+02   -.929E+02 0.123E+03 -.517E+02   -.580E+01 0.994E-01 0.891E+00   -.344E-01 -.579E-01 -.734E-01
   -.142E+03 -.262E+03 -.359E+03   0.144E+03 0.267E+03 0.372E+03   -.143E+01 -.241E+01 -.323E-01   -.151E+00 -.616E-01 -.956E-01
   -.312E+03 -.114E+03 -.119E+03   0.316E+03 0.115E+03 0.119E+03   0.257E+01 -.755E+00 0.445E-01   -.450E-01 -.399E-01 -.237E-01
   0.343E+02 -.966E+02 0.876E+02   -.375E+02 0.105E+03 -.884E+02   0.383E+01 -.597E+01 -.869E+00   0.311E+00 -.369E-01 0.847E-01
   -.370E+02 0.639E+02 -.496E+02   0.472E+02 -.687E+02 0.599E+02   -.602E+01 0.406E+01 -.833E+01   0.126E-01 0.654E-02 0.554E-01
   0.485E+02 -.541E+01 0.856E+02   -.454E+02 0.893E+01 -.922E+02   -.358E+01 -.354E+01 0.719E+01   -.329E-01 -.416E-01 0.595E-01
   0.142E+03 0.933E+02 -.141E-01   -.148E+03 -.960E+02 0.584E+01   0.382E+01 0.202E+01 -.482E+01   0.701E-02 0.592E-01 0.236E-01
   0.632E+02 0.953E+02 -.536E+02   -.683E+02 -.972E+02 0.565E+02   0.586E+01 0.381E+00 -.311E+01   0.101E+00 -.263E-01 -.102E+00
   -.234E-01 0.157E+03 -.236E+03   0.417E+01 -.162E+03 0.254E+03   -.491E+01 0.270E+01 -.125E+02   0.136E+00 0.902E-01 -.741E-01
   0.129E+03 0.667E+02 -.231E+02   -.137E+03 -.686E+02 0.217E+02   0.589E+01 0.868E+00 0.143E+01   0.431E-01 0.319E-02 -.844E-01
   0.118E+03 -.775E+02 -.316E+02   -.123E+03 0.893E+02 0.320E+02   0.529E+01 -.953E+01 -.357E+00   0.528E-01 -.542E-01 -.501E-02
   -.105E+01 -.971E+02 -.283E+02   0.572E+01 0.103E+03 0.269E+02   -.248E+01 -.493E+01 0.198E+01   0.640E-01 0.519E-01 0.561E-01
   -.263E+01 0.266E+02 0.103E+03   0.124E+02 -.273E+02 -.115E+03   -.639E+01 0.975E-01 0.104E+02   0.106E+00 0.559E-02 -.131E-01
   0.864E+02 -.105E+03 0.774E+02   -.898E+02 0.111E+03 -.794E+02   0.309E+01 -.452E+01 0.226E+01   0.132E-02 0.596E-01 -.421E-01
   0.744E+02 0.341E+02 -.927E+02   -.815E+02 -.377E+02 0.108E+03   0.489E+01 0.312E+01 -.106E+02   -.576E-01 -.719E-01 0.988E-01
   -.526E+02 -.116E+03 0.311E+02   0.642E+02 0.122E+03 -.299E+02   -.660E+01 -.666E+01 -.165E+01   -.375E-01 0.234E-01 -.428E-01
   -.347E+02 -.122E+03 0.588E+02   0.391E+02 0.129E+03 -.622E+02   -.247E+01 -.470E+01 0.254E+01   0.102E+00 -.681E-01 -.274E-01
   0.823E+02 0.271E+01 -.216E+02   -.851E+02 -.612E+01 0.229E+02   0.273E+01 0.271E+01 -.207E+01   0.338E-01 -.879E-02 0.363E-01
   0.169E+03 -.604E+02 -.113E+03   -.177E+03 0.611E+02 0.119E+03   0.717E+01 0.382E+00 -.497E+01   -.212E-01 0.487E-01 -.523E-01
   -.464E+02 -.484E+02 0.640E+02   0.445E+02 0.611E+02 -.656E+02   0.178E+01 -.118E+02 0.602E+00   -.248E+00 -.486E-01 0.674E-01
   -.296E+03 0.158E+02 -.188E+02   0.318E+03 -.167E+02 0.227E+02   -.149E+02 -.140E+00 -.318E+01   0.302E-01 0.697E-01 0.122E+00
   0.745E+01 0.732E+02 -.151E+03   -.567E+01 -.785E+02 0.167E+03   -.243E+01 0.556E+01 -.118E+02   0.499E-01 0.261E-01 0.112E+00
   -.451E+02 0.101E+03 0.180E+03   0.472E+02 -.109E+03 -.205E+03   -.236E+01 0.562E+01 0.177E+02   -.407E-01 0.332E+00 0.970E-01
   -.220E+03 0.409E+02 -.744E+01   0.238E+03 -.414E+02 0.572E+01   -.823E+01 0.362E+00 0.163E+01   -.173E+00 0.983E-01 -.509E-01
   -.290E+02 0.786E+02 -.358E+02   0.283E+02 -.832E+02 0.359E+02   0.671E+00 0.469E+01 0.996E-01   -.924E-01 0.825E-01 -.126E+00
   -.847E+02 -.194E+02 -.860E+02   0.948E+02 0.247E+02 0.935E+02   -.755E+01 -.438E+01 -.750E+01   0.471E-01 -.231E-01 -.238E+00
   0.634E+02 0.600E+02 0.130E+03   -.692E+02 -.596E+02 -.141E+03   0.528E+01 -.130E+01 0.107E+02   -.687E-01 0.113E+00 -.110E+00
   -.162E+03 -.240E+03 -.696E+02   0.170E+03 0.262E+03 0.757E+02   -.689E+01 -.142E+02 -.331E+01   -.406E-01 -.238E-02 0.326E-01
   -.417E+03 0.636E+02 0.153E+03   0.480E+03 -.649E+02 -.161E+03   -.223E+02 0.405E+01 0.124E+02   -.539E-01 -.875E-01 0.724E-02
   -.590E+01 -.133E+03 0.625E+02   0.107E+02 0.139E+03 -.671E+02   -.401E+01 -.543E+01 0.412E+01   -.193E-01 -.505E-01 0.315E-01
   0.420E+02 0.929E+02 -.596E+02   -.427E+02 -.100E+03 0.587E+02   -.101E+01 0.799E+01 0.264E+01   0.565E-02 -.233E+00 0.761E-01
   -.288E+03 -.223E+02 -.151E+02   0.306E+03 0.174E+02 0.188E+02   -.142E+02 0.476E+01 -.381E+01   0.273E-01 -.887E-01 -.309E-01
   -.530E+02 -.132E+03 0.210E+03   0.508E+02 0.145E+03 -.247E+03   0.234E+01 -.108E+02 0.254E+02   -.102E+00 -.109E+00 0.414E-01
   0.104E+03 -.122E+03 -.310E+02   -.118E+03 0.130E+03 0.316E+02   0.835E+01 -.833E+01 -.169E+00   -.547E-01 -.493E-02 -.530E-01
   -.204E+02 -.384E+02 -.625E+01   0.260E+02 0.396E+02 0.111E+02   -.631E+01 0.319E+00 -.495E+01   0.625E-01 -.106E+00 -.770E-01
 -----------------------------------------------------------------------------------------------
   0.860E+02 0.682E+02 -.143E+02   0.568E-13 -.519E-12 0.135E-12   -.861E+02 -.684E+02 0.144E+02   0.136E+00 0.219E+00 -.158E+00
 
 
 POSITION                                       TOTAL-FORCE (eV/Angst)
 -----------------------------------------------------------------------------------
      0.25712      8.36468      0.12382        -4.221295     -0.223160     -0.987597
      0.07920      2.09965      2.04410        -1.634969      0.354544     -0.552006
      2.01912      0.04857      2.21918         0.411245     -2.420257     -4.658676
      2.29838      2.16686      0.07535        -0.936774      0.123959     -0.404756
      0.07525      8.18271      4.19393         0.090668      1.639522      0.139910
      7.90105      2.19958      5.98583         1.231681      0.051285      0.341075
      2.02085      0.34383      6.67929         0.311812      0.942323     -2.590696
      2.01630      2.07127      4.20121        -1.426069     -0.689313      1.866787
      0.36187      4.31256      0.22797        -1.794086      0.024871     -3.966917
      0.15734      6.12779      2.11398        -2.961143      0.566061     -0.163119
      2.21823      4.18643      1.79121         0.606115     -0.917058      1.337979
      2.55207      6.15774      8.39279        -4.495717      1.527399     -0.161641
      8.27220      4.22571      4.11830        -0.549157     -0.472314      0.292595
      0.25720      6.36871      6.35256        -4.969415     -1.978172      0.438158
      2.02609      4.22822      6.15748         0.271247     -1.164720      0.305124
      2.19801      6.20657      4.17372        -0.175620      0.092091     -0.081491
      4.17506      8.31417      8.20237        -6.687991      0.713016     -0.242822
      3.86320      1.80139      2.17562         0.945009      1.755402     -0.741755
      6.38543      0.30161      2.20720         0.191224     -1.450011     -0.532798
      6.26887      2.19946      8.40803         1.751528     -0.543783      2.569143
      4.32202      0.16537      3.74325         0.274722      0.930284      8.778672
      4.41016      2.09415      6.54531       -10.516856     -0.112280     -6.530779
      6.17257      0.12087      6.18372         0.951720     -0.762459      0.303171
      6.10659      2.12816      4.16555         0.568135     -4.074686     -2.586868
      4.40089      4.10350      8.19876       -41.652993     -7.423042     -7.440801
      4.09334      6.24937      2.03584        -0.564293      0.308243      0.195095
      6.05896      4.41838      1.68026         1.581552     -8.513181      1.909693
      5.93914      6.00501      0.19879         4.916829      5.074128     -2.462744
      4.05744      4.37089      4.16978        -0.276489     -1.143330     -0.374206
      4.18491      6.38503      6.19895        -3.268506      0.499972     -0.198142
      6.18814      3.75069      5.49662         0.322708      2.200844     13.257542
      6.07401      6.21458      4.03087         6.351091      0.351021      0.313774
      1.94274      1.85344      2.30021         0.860744      2.447843     -1.544723
      1.94888      8.37029      8.36714         4.132357     -0.762281      2.061858
      8.37791      1.95290      8.31622        -0.515426     -0.063536      0.645217
      0.09175      0.03912      1.97144        -1.461545     -0.578260      1.026073
      1.88633      2.36032      6.25342         0.829567     -1.543640     -0.341829
      2.09798      0.19936      3.88043        -0.626142     -1.765589      5.167974
      0.21134      2.06634      4.10582        -1.949530     -1.024571     -0.039738
      0.16234      8.12115      6.28910        -0.252822      2.147069      0.026581
      1.92898      6.03927      2.10485         2.251183      0.882767      0.699684
      2.04413      4.19158      8.35397         3.458105     -0.572261     -1.442701
      8.15123      6.12893      8.39478        -0.293953      0.626919      0.185665
      8.17041      4.12567      1.74993        -2.239789     -0.569408      4.587836
      1.91484      6.13250      6.41749         4.920439     -0.686302     -0.504853
      1.63707      3.82455      4.16416         1.989385      2.647145     -0.943130
      0.03095      6.27747      4.31656        -0.016904     -0.709972     -0.668101
      0.19233      4.08297      6.22895        -1.122382      1.167139      0.241473
      6.11952      2.10053      2.14921        -0.298894      0.891152     -0.968523
      5.73170      8.17583      0.05714         6.930360     -0.924683      0.890422
      4.19053      2.07056      8.20357        -0.594791      0.233323      4.865728
      4.24374      8.30696      2.21492        -0.242394     -2.183898     -7.861115
      5.95724      2.07887      6.63894         9.828955     -0.035166     -0.129683
      6.56454      0.02593      4.23113        -0.049326      0.147851      0.099869
      3.76200      1.99493      4.30633         2.582547      0.841476     -0.196982
      4.20889      0.03631      6.27878        -0.590482     -0.724367     -0.217844
      6.18597      5.94113      2.13415         1.087071      7.047970      2.864544
      5.65213      4.28760      8.40451        40.723680      2.725244      4.328497
      4.19442      5.93039      8.36154         0.762490      0.807021     -0.493355
      4.23180      4.14126      2.11813        -1.660781      0.416967      1.743160
      5.82094      6.01242      6.33189         3.563169     -0.224966     -0.141417
      6.13458      3.82255      4.01281         0.045688      2.519651    -11.579600
      4.47656      6.24880      4.23339        -6.118136      0.174508      0.411915
      3.94132      4.04854      6.05983        -0.578355      1.377655     -0.143805
 -----------------------------------------------------------------------------------
    total drift:                               -0.019969     -0.008841     -0.006136


--------------------------------------------------------------------------------------------------------



  FREE ENERGIE OF THE ION-ELECTRON SYSTEM (eV)
  ---------------------------------------------------
  free  energy   TOTEN  =      -364.5124673553 eV

  energy  without entropy=     -364.4370481934  energy(sigma->0) =     -364.47475777
 


--------------------------------------------------------------------------------------------------------


    POTLOK:  cpu time    0.1601: real time    0.1605


--------------------------------------------------------------------------------------------------------


     LOOP+:  cpu time 5350.5817: real time 5363.5574
    4ORBIT:  cpu time    0.0000: real time    0.0000

volume of typ            1:    34.1 %

volume of typ            2:     8.7 %
 
total charge     
 
# of ion       s       p       d       tot
------------------------------------------
    1        0.239   0.268   7.961   8.468
    2        0.202   0.211   7.946   8.359
    3        0.261   0.306   8.021   8.589
    4        0.189   0.189   8.015   8.393
    5        0.206   0.215   7.942   8.363
    6        0.195   0.186   7.985   8.365
    7        0.219   0.231   8.006   8.456
    8        0.295   0.409   7.916   8.620
    9        0.293   0.355   7.988   8.636
   10        0.204   0.208   7.982   8.393
   11        0.211   0.225   8.013   8.449
   12        0.230   0.261   8.053   8.545
   13        0.203   0.213   7.969   8.385
   14        0.265   0.304   7.948   8.517
   15        0.252   0.311   7.919   8.482
   16        0.170   0.140   8.007   8.316
   17        0.274   0.295   8.039   8.607
   18        0.196   0.206   8.019   8.420
   19        0.203   0.205   7.976   8.384
   20        0.207   0.204   8.003   8.415
   21        0.274   0.307   8.078   8.659
   22        0.312   0.399   8.072   8.783
   23        0.192   0.181   7.964   8.337
   24        0.247   0.265   8.070   8.583
   25        0.413   0.531   8.274   9.218
   26        0.185   0.186   8.015   8.386
   27        0.301   0.391   8.054   8.746
   28        0.243   0.308   8.028   8.580
   29        0.211   0.217   7.993   8.422
   30        0.238   0.252   7.996   8.486
   31        0.322   0.367   8.151   8.840
   32        0.246   0.264   8.050   8.559
   33        1.274   2.790   0.012   4.076
   34        1.261   2.808   0.014   4.083
   35        1.277   2.694   0.004   3.975
   36        1.267   2.763   0.008   4.038
   37        1.280   2.717   0.006   4.003
   38        1.275   2.784   0.011   4.071
   39        1.277   2.746   0.007   4.030
   40        1.272   2.746   0.008   4.025
   41        1.263   2.777   0.010   4.050
   42        1.266   2.804   0.013   4.083
   43        1.274   2.709   0.004   3.987
   44        1.271   2.779   0.011   4.061
   45        1.266   2.787   0.011   4.064
   46        1.283   2.751   0.009   4.043
   47        1.265   2.743   0.006   4.015
   48        1.278   2.723   0.006   4.007
   49        1.270   2.738   0.007   4.016
   50        1.277   2.765   0.011   4.054
   51        1.271   2.803   0.013   4.088
   52        1.273   2.807   0.018   4.098
   53        1.262   2.862   0.023   4.146
   54        1.267   2.742   0.007   4.015
   55        1.277   2.749   0.008   4.035
   56        1.274   2.734   0.007   4.016
   57        1.263   2.825   0.016   4.104
   58        1.300   2.973   0.052   4.325
   59        1.273   2.841   0.019   4.133
   60        1.276   2.740   0.007   4.023
   61        1.283   2.722   0.008   4.012
   62        1.289   2.833   0.027   4.149
   63        1.276   2.789   0.015   4.080
   64        1.278   2.742   0.007   4.027
--------------------------------------------------
tot          48.46   97.40  256.84  402.69
 
magnetization (x)
 
# of ion       s       p       d       tot
------------------------------------------
    1       -0.001  -0.013  -1.086  -1.100
    2        0.002   0.003   1.103   1.108
    3        0.001   0.015   0.839   0.855
    4        0.003   0.004   0.903   0.909
    5        0.003   0.004   0.904   0.911
    6        0.003   0.004   0.913   0.921
    7       -0.002  -0.009  -0.882  -0.894
    8       -0.002   0.003  -0.257  -0.256
    9        0.008   0.019   0.906   0.933
   10       -0.001  -0.004  -1.026  -1.030
   11        0.000   0.005   0.963   0.968
   12        0.002   0.010   0.786   0.798
   13        0.005   0.005   0.780   0.791
   14        0.003   0.013   0.763   0.779
   15       -0.005  -0.001  -0.388  -0.394
   16        0.002   0.000   1.089   1.091
   17        0.008   0.009   0.649   0.667
   18        0.004   0.003   0.611   0.618
   19        0.005   0.015   1.073   1.093
   20        0.007   0.004   0.940   0.951
   21        0.006   0.005   0.405   0.416
   22        0.001  -0.002   0.000  -0.001
   23        0.003   0.006   1.236   1.244
   24        0.001  -0.001   0.134   0.134
   25       -0.002  -0.003  -0.029  -0.035
   26        0.000  -0.001   1.029   1.028
   27       -0.003  -0.002  -0.250  -0.255
   28        0.003   0.000  -0.431  -0.428
   29       -0.001  -0.001   0.050   0.049
   30        0.001   0.003   0.083   0.087
   31        0.002   0.002   0.159   0.164
   32       -0.004  -0.005  -0.342  -0.352
   33        0.011   0.138   0.000   0.149
   34       -0.005  -0.110  -0.000  -0.115
   35        0.005   0.084   0.000   0.089
   36        0.007   0.054   0.000   0.062
   37       -0.003  -0.007  -0.000  -0.009
   38        0.005   0.095   0.000   0.101
   39        0.009   0.101   0.000   0.111
   40        0.003   0.049   0.000   0.052
   41        0.009   0.108  -0.000   0.117
   42        0.008   0.167   0.000   0.175
   43        0.002   0.016   0.000   0.018
   44        0.005   0.070   0.000   0.076
   45        0.011   0.084   0.000   0.095
   46       -0.002  -0.003  -0.000  -0.005
   47        0.011   0.084   0.000   0.095
   48        0.007   0.132   0.000   0.139
   49        0.007   0.118   0.000   0.126
   50        0.006   0.140   0.000   0.146
   51        0.008   0.070   0.000   0.078
   52        0.011   0.141   0.000   0.152
   53        0.011   0.112  -0.000   0.123
   54        0.009   0.114   0.000   0.123
   55        0.003   0.054   0.000   0.057
   56        0.007   0.088   0.000   0.095
   57       -0.000  -0.003  -0.000  -0.004
   58       -0.001  -0.009   0.000  -0.010
   59        0.001   0.068  -0.000   0.069
   60        0.003   0.085  -0.000   0.088
   61        0.002   0.017   0.000   0.019
   62        0.002   0.023   0.000   0.025
   63       -0.000   0.010  -0.000   0.009
   64        0.001   0.006  -0.000   0.007
--------------------------------------------------
tot           0.20    2.19   11.63   14.02
 

 total amount of memory used by VASP MPI-rank0   268115. kBytes
=======================================================================

   base      :      30000. kBytes
   nonlr-proj:      40699. kBytes
   fftplans  :       5538. kBytes
   grid      :      31719. kBytes
   one-center:       1990. kBytes
   wavefun   :     158169. kBytes
 
  
  
 General timing and accounting informations for this job:
 ========================================================
  
                  Total CPU time used (sec):     5391.685
                            User time (sec):     5384.236
                          System time (sec):        7.449
                         Elapsed time (sec):     5408.504
  
                   Maximum memory used (kb):      341560.
                   Average memory used (kb):           0.
  
                          Minor page faults:        41335
                          Major page faults:           66
                 Voluntary context switches:         1340
