 vasp.5.4.4.18Apr17-6-g9f103f2a35 (build May 12 2020 04:58:55) complex          
  
 MD_VERSION_INFO: Compiled 2020-05-12T11:58:55-UTC in devlin.sd.materialsdesign.
 com:/home/medea2/data/build/wwolf/vasp-gpu5.4.4/13047/x86_64/src/src/build/std 
 from svn 13047
 
 This VASP executable licensed from Materials Design, Inc.
 
 executed on                        Lin64 date 2023.03.23  18:15:59
 running on   16 total cores
 distrk:  each k-point on   16 cores,    1 groups
 distr:  one band on NCORES_PER_BAND=   1 cores,   16 groups


--------------------------------------------------------------------------------------------------------


 INCAR:
 POTCAR:    PAW_PBE Ni 02Aug2007                  
 POTCAR:    PAW_PBE O 08Apr2002                   

 ----------------------------------------------------------------------------- 
|                                                                             |
|           W    W    AA    RRRRR   N    N  II  N    N   GGGG   !!!           |
|           W    W   A  A   R    R  NN   N  II  NN   N  G    G  !!!           |
|           W    W  A    A  R    R  N N  N  II  N N  N  G       !!!           |
|           W WW W  AAAAAA  RRRRR   N  N N  II  N  N N  G  GGG   !            |
|           WW  WW  A    A  R   R   N   NN  II  N   NN  G    G                |
|           W    W  A    A  R    R  N    N  II  N    N   GGGG   !!!           |
|                                                                             |
|      For optimal performance we recommend to set                            |
|        NCORE= 4 - approx SQRT( number of cores)                             |
|      NCORE specifies how many cores store one orbital (NPAR=cpu/NCORE).     |
|      This setting can  greatly improve the performance of VASP for DFT.     |
|      The default,   NCORE=1            might be grossly inefficient         |
|      on modern multi-core architectures or massively parallel machines.     |
|      Do your own testing !!!!                                               |
|      Unfortunately you need to use the default for GW and RPA calculations. |
|      (for HF NCORE is supported but not extensively tested yet)             |
|                                                                             |
 ----------------------------------------------------------------------------- 

 POTCAR:    PAW_PBE Ni 02Aug2007                  
  local pseudopotential read in
  partial core-charges read in
  partial kinetic energy density read in
  atomic valenz-charges read in
  non local Contribution for L=           2  read in
    real space projection operators read in
  non local Contribution for L=           2  read in
    real space projection operators read in
  non local Contribution for L=           0  read in
    real space projection operators read in
  non local Contribution for L=           0  read in
    real space projection operators read in
  non local Contribution for L=           1  read in
    real space projection operators read in
  non local Contribution for L=           1  read in
    real space projection operators read in
    PAW grid and wavefunctions read in
 
   number of l-projection  operators is LMAX  =           6
   number of lm-projection operators is LMMAX =          18
 
 POTCAR:    PAW_PBE O 08Apr2002                   
  local pseudopotential read in
  partial core-charges read in
  partial kinetic energy density read in
  kinetic energy density of atom read in
  atomic valenz-charges read in
  non local Contribution for L=           0  read in
    real space projection operators read in
  non local Contribution for L=           0  read in
    real space projection operators read in
  non local Contribution for L=           1  read in
    real space projection operators read in
  non local Contribution for L=           1  read in
    real space projection operators read in
    PAW grid and wavefunctions read in
 
   number of l-projection  operators is LMAX  =           4
   number of lm-projection operators is LMMAX =           8
 
 Optimization of the real space projectors (new method)

 maximal supplied QI-value         = 16.25
 optimisation between [QCUT,QGAM] = [ 11.38, 22.75] = [ 36.24,144.96] Ry 
 Optimized for a Real-space Cutoff    1.47 Angstroem

   l    n(q)    QCUT    max X(q) W(low)/X(q) W(high)/X(q)  e(spline) 
   2      9    11.376    60.317    0.17E-03    0.16E-04    0.16E-06
   2      9    11.376    55.921    0.17E-03    0.16E-04    0.17E-06
   0     10    11.376    51.690    0.45E-04    0.60E-04    0.21E-06
   0     10    11.376    30.015    0.37E-04    0.55E-04    0.19E-06
   1     10    11.376    18.849    0.83E-04    0.11E-03    0.92E-07
   1     10    11.376    14.624    0.69E-04    0.92E-04    0.82E-07
 Optimization of the real space projectors (new method)

 maximal supplied QI-value         = 24.76
 optimisation between [QCUT,QGAM] = [ 11.39, 22.77] = [ 36.31,145.25] Ry 
 Optimized for a Real-space Cutoff    1.10 Angstroem

   l    n(q)    QCUT    max X(q) W(low)/X(q) W(high)/X(q)  e(spline) 
   0      7    11.387    20.381    0.22E-03    0.48E-03    0.18E-06
   0      7    11.387    15.268    0.22E-03    0.52E-03    0.19E-06
   1      7    11.387     5.964    0.22E-03    0.73E-03    0.24E-06
   1      7    11.387     5.382    0.19E-03    0.60E-03    0.21E-06

 ----------------------------------------------------------------------------- 
|                                                                             |
|  ADVICE TO THIS USER RUNNING 'VASP/VAMP'   (HEAR YOUR MASTER'S VOICE ...):  |
|                                                                             |
|      You enforced a specific xc-type in the INCAR file,                     |
|      a different type was found on the POTCAR file                          |
|          I HOPE YOU KNOW, WHAT YOU ARE  DOING                               |
|                                                                             |
 ----------------------------------------------------------------------------- 

  PAW_PBE Ni 02Aug2007                  :
 energy of atom  1       EATOM=-1077.6739
 kinetic energy error for atom=    0.0030 (will be added to EATOM!!)
  PAW_PBE O 08Apr2002                   :
 energy of atom  2       EATOM= -432.3788
 kinetic energy error for atom=    0.0224 (will be added to EATOM!!)
 
 
 POSCAR: NiO_Fm-3m_scale_1_000_disp_0_20_round_2 
  positions in direct lattice
  No initial velocities read in
 exchange correlation table for  LEXCH =       14
   RHO(1)=    0.500       N(1)  =     2000
   RHO(2)=  100.500       N(2)  =     4000
 


--------------------------------------------------------------------------------------------------------


 ion  position               nearest neighbor table
   1  0.016  0.001  0.981-  43 1.42  34 1.76  35 1.93  40 1.93  36 2.38  23 2.62   3 2.69  12 2.74
                             7 2.82  14 2.84  20 2.84   2 2.97  10 2.97   6 2.99   4 3.03  28 3.06
   2  0.023  0.267  0.224-  33 1.93  35 1.99  44 2.07  36 2.12  39 2.25  11 2.42   9 2.61   4 2.81
                             1 2.97  24 2.99   3 3.01  27 3.04  20 3.06
   3  0.241  0.972  0.218-  34 1.60  36 1.85  52 2.03  41 2.03  33 2.30  12 2.43  38 2.52  10 2.61
                             1 2.69  17 2.70  26 2.75   4 2.80   5 3.00   2 3.01
   4  0.293  0.242  0.016-  51 1.36  33 1.74  34 1.98  42 2.07  37 2.24  17 2.35  22 2.43  25 2.65
                            11 2.76   7 2.79   3 2.80   2 2.81  15 3.02   1 3.03  18 3.06
   5  0.006  0.977  0.497-  47 1.85  36 1.90  38 2.02  40 2.10  54 2.30  39 2.33  32 2.64  10 2.67
                            23 2.72  16 2.81  14 2.82   6 2.94   3 3.00  19 3.01
   6  0.031  0.254  0.720-  37 1.35  39 1.83  48 1.89  40 1.91  53 2.26  35 2.35  15 2.62   7 2.91
                            31 2.92  23 2.93   5 2.94   8 2.94  13 2.95   9 2.99   1 2.99  20 3.06
   7  0.284  0.011  0.768-  38 2.04  56 2.13  37 2.14  34 2.19  17 2.21  22 2.28  40 2.36  45 2.41
                            30 2.60  16 2.67   4 2.79   1 2.82   6 2.91  21 2.94   8 2.98
   8  0.298  0.237  0.483-  55 1.54  38 2.01  33 2.16  46 2.27  39 2.38  21 2.39  37 2.48  18 2.58
                            11 2.61  29 2.62   6 2.94   7 2.98  15 3.00  22 3.00
   9  0.990  0.487  0.997-  48 2.02  58 2.02  42 2.10  35 2.15  44 2.35   2 2.61  31 2.74  28 2.82
                            27 2.88  20 2.88  12 2.90  14 2.95  15 2.96   6 2.99  11 3.03
  10  0.005  0.762  0.253-  47 2.04  57 2.07  36 2.07  44 2.08  41 2.09  43 2.36  12 2.59   3 2.61
                             5 2.67  13 2.76  19 2.79  32 2.81  28 2.81  27 2.92   1 2.97
  11  0.242  0.460  0.265-  33 1.75  46 1.82  42 1.94  44 2.03  60 2.14  41 2.22   2 2.42   8 2.61
                            29 2.61   4 2.76  25 2.89  13 2.90   9 3.03  12 3.05
  12  0.226  0.746  0.029-  45 1.87  43 1.90  41 1.98  42 2.12  34 2.18   3 2.43  59 2.46  10 2.59
                             1 2.74  30 2.76  25 2.78   9 2.90  26 2.91  17 2.93  14 3.04  11 3.05
  13  0.994  0.539  0.504-  47 1.76  44 1.84  62 2.11  48 2.13  46 2.21  39 2.30  14 2.65  10 2.76
                            32 2.79  11 2.90  27 2.91  15 2.91  24 2.94   6 2.95  16 3.02
  14  0.983  0.747  0.750-  61 1.76  43 1.98  47 2.05  45 2.09  48 2.22  40 2.29  23 2.51  13 2.65
                             5 2.82   1 2.84  32 2.89  28 2.89  16 2.93   9 2.95  12 3.04  15 3.05
  15  0.248  0.486  0.746-  48 1.79  37 1.98  45 2.02  64 2.05  46 2.19  42 2.34   6 2.62  25 2.77
                            30 2.85  16 2.87  13 2.91   9 2.96   8 3.00   4 3.02  14 3.05  22 3.08
  16  0.275  0.772  0.547-  38 1.90  63 2.12  45 2.16  47 2.21  46 2.22  41 2.33  30 2.57   7 2.67
                             5 2.81  15 2.87  26 2.90  14 2.93  21 2.97  13 3.02  29 3.05
  17  0.458  0.011  0.974-  34 1.96  52 2.06  50 2.07  56 2.08  51 2.10  22 2.15   7 2.21   4 2.35
                            30 2.59   3 2.70  12 2.93  20 3.02
  18  0.544  0.218  0.290-  49 1.26  55 1.57  52 1.87  60 2.14  21 2.23  24 2.25  51 2.41  33 2.43
                             8 2.58  19 2.62  29 2.64  27 2.99   4 3.06
  19  0.730  0.961  0.256-  57 1.81  50 1.83  52 2.07  54 2.20  49 2.33  32 2.42  36 2.47  18 2.62
                            26 2.62  28 2.69  21 2.72  10 2.79   5 3.01
  20  0.756  0.227  0.969-  35 1.65  53 1.69  50 1.98  58 2.24  31 2.40  49 2.44  51 2.50  22 2.65
                            23 2.68   1 2.84   9 2.88  17 3.02   2 3.06   6 3.06
  21  0.511  0.039  0.492-  55 1.61  54 1.83  56 2.02  38 2.19  18 2.23  52 2.23   8 2.39  63 2.48
                            19 2.72  24 2.80  22 2.84  32 2.93   7 2.94  16 2.97  26 3.00
  22  0.485  0.201  0.796-  56 1.59  51 1.88  17 2.15   7 2.28  53 2.33   4 2.43  37 2.48  20 2.65
                            21 2.84  31 2.93   8 3.00  25 3.06  15 3.08
  23  0.796  0.988  0.752-  40 1.70  53 1.72  61 1.91  54 2.06  56 2.12  50 2.49  14 2.51   1 2.62
                            20 2.68   5 2.72  32 2.81   6 2.93  28 3.03
  24  0.748  0.283  0.462-  49 1.77  62 1.81  54 2.11  39 2.19  55 2.20  18 2.25  27 2.58  29 2.67
                            21 2.80  13 2.94  31 2.95   2 2.99
  25  0.468  0.512  0.000-  59 1.69  42 1.87  64 1.96  51 2.05  60 2.18  58 2.28  30 2.60   4 2.65
                            15 2.77  12 2.78  11 2.89  31 2.92  26 2.95  28 3.01  22 3.06
  26  0.488  0.753  0.266-  41 1.92  52 2.13  63 2.13  57 2.19  59 2.27  60 2.31  19 2.62  29 2.69
                             3 2.75  32 2.84  16 2.90  27 2.91  12 2.91  25 2.95  28 3.00  21 3.00
  27  0.749  0.515  0.250-  57 1.87  62 1.88  58 1.96  60 2.06  44 2.08  49 2.30  24 2.58  28 2.63
                            29 2.71   9 2.88  32 2.90  26 2.91  13 2.91  10 2.92  18 2.99   2 3.04
  28  0.757  0.737  0.019-  57 1.93  59 1.96  58 1.99  50 2.24  43 2.29  61 2.47  27 2.63  19 2.69
                            10 2.81   9 2.82  14 2.89  26 3.00  25 3.01  23 3.03  30 3.03   1 3.06
  29  0.494  0.487  0.457-  60 1.62  46 1.94  62 2.04  55 2.10  63 2.17  11 2.61   8 2.62  18 2.64
                            24 2.67  26 2.69  27 2.71  16 3.05
  30  0.465  0.752  0.794-  59 1.76  45 1.94  64 1.97  63 2.30  56 2.38  16 2.57  17 2.59   7 2.60
                            25 2.60  12 2.76  15 2.85  28 3.03
  31  0.740  0.449  0.780-  58 1.95  64 2.10  53 2.10  20 2.40  48 2.41  62 2.52   9 2.74   6 2.92
                            25 2.92  22 2.93  24 2.95  28 3.08
  32  0.754  0.779  0.485-  63 1.90  57 1.91  61 1.94  54 2.10  47 2.12  62 2.27  19 2.42   5 2.64
                            13 2.79  10 2.81  23 2.81  26 2.84  14 2.89  27 2.90  21 2.93
  33  0.258  0.251  0.225-   4 1.74  11 1.75   2 1.93   8 2.16   3 2.30  18 2.43
  34  0.225  0.011  0.027-   3 1.60   1 1.76  17 1.96   4 1.98  12 2.18   7 2.19
  35  0.955  0.227  0.995-  20 1.65   1 1.93   2 1.99   9 2.15   6 2.35
  36  0.025  0.013  0.270-   3 1.85   5 1.90  10 2.07   2 2.12   1 2.38  19 2.47
  37  0.189  0.254  0.765-   6 1.35  15 1.98   7 2.14   4 2.24  22 2.48   8 2.48
  38  0.249  0.000  0.523-  16 1.90   8 2.01   5 2.02   7 2.04  21 2.19   3 2.52
  39  0.010  0.260  0.498-   6 1.83  24 2.19   2 2.25  13 2.30   5 2.33   8 2.38
  40  0.999  0.025  0.748-  23 1.70   6 1.91   1 1.93   5 2.10  14 2.29   7 2.36
  41  0.256  0.730  0.267-  26 1.92  12 1.98   3 2.03  10 2.09  11 2.22  16 2.33
  42  0.243  0.488  0.030-  25 1.87  11 1.94   4 2.07   9 2.10  12 2.12  15 2.34
  43  0.016  0.828  0.974-   1 1.42  12 1.90  14 1.98  28 2.29  10 2.36
  44  0.000  0.511  0.282-  13 1.84  11 2.03   2 2.07  27 2.08  10 2.08   9 2.35
  45  0.231  0.725  0.802-  12 1.87  30 1.94  15 2.02  14 2.09  16 2.16   7 2.41
  46  0.260  0.511  0.480-  11 1.82  29 1.94  15 2.19  13 2.21  16 2.22   8 2.27
  47  0.011  0.752  0.502-  13 1.76   5 1.85  10 2.04  14 2.05  32 2.12  16 2.21
  48  0.030  0.481  0.755-  15 1.79   6 1.89   9 2.02  13 2.13  14 2.22  31 2.41
  49  0.692  0.242  0.258-  18 1.26  24 1.77  27 2.30  19 2.33  20 2.44
  50  0.701  0.003  0.039-  19 1.83  20 1.98  17 2.07  28 2.24  23 2.49
  51  0.457  0.264  0.013-   4 1.36  22 1.88  25 2.05  17 2.10  18 2.41  20 2.50
  52  0.485  0.008  0.223-  18 1.87   3 2.03  17 2.06  19 2.07  26 2.13  21 2.23
  53  0.766  0.195  0.766-  20 1.69  23 1.72  31 2.10   6 2.26  22 2.33
  54  0.732  0.032  0.513-  21 1.83  23 2.06  32 2.10  24 2.11  19 2.20   5 2.30
  55  0.485  0.232  0.471-   8 1.54  18 1.57  21 1.61  29 2.10  24 2.20
  56  0.541  0.026  0.735-  22 1.59  21 2.02  17 2.08  23 2.12   7 2.13  30 2.38
  57  0.754  0.743  0.255-  19 1.81  27 1.87  32 1.91  28 1.93  10 2.07  26 2.19
  58  0.744  0.495  0.013-  31 1.95  27 1.96  28 1.99   9 2.02  20 2.24  25 2.28
  59  0.521  0.710  0.995-  25 1.69  30 1.76  28 1.96  26 2.27  12 2.46
  60  0.502  0.473  0.261-  29 1.62  27 2.06  18 2.14  11 2.14  25 2.18  26 2.31
  61  0.771  0.759  0.720-  14 1.76  23 1.91  32 1.94  28 2.47
  62  0.741  0.503  0.479-  24 1.81  27 1.88  29 2.04  13 2.11  32 2.27  31 2.52
  63  0.529  0.740  0.522-  32 1.90  16 2.12  26 2.13  29 2.17  30 2.30  21 2.48
  64  0.494  0.516  0.764-  25 1.96  30 1.97  15 2.05  31 2.10
 
  LATTYP: Found a simple cubic cell.
 ALAT       =     8.2198900000
  
  Lattice vectors:
  
 A1 = (   8.2198900000,   0.0000000000,   0.0000000000)
 A2 = (   0.0000000000,   8.2198900000,   0.0000000000)
 A3 = (   0.0000000000,   0.0000000000,   8.2198900000)


Analysis of symmetry for initial positions (statically):
=====================================================================
 Subroutine PRICEL returns:
 Original cell was already a primitive cell.
 

 Routine SETGRP: Setting up the symmetry group for a 
 simple cubic supercell.


 Subroutine GETGRP returns: Found  1 space group operations
 (whereof  1 operations were pure point group operations)
 out of a pool of 48 trial point group operations.


The static configuration has the point symmetry C_1 .


Analysis of symmetry for dynamics (positions and initial velocities):
=====================================================================
 Subroutine PRICEL returns:
 Original cell was already a primitive cell.
 

 Routine SETGRP: Setting up the symmetry group for a 
 simple cubic supercell.


 Subroutine GETGRP returns: Found  1 space group operations
 (whereof  1 operations were pure point group operations)
 out of a pool of 48 trial point group operations.


The dynamic configuration has the point symmetry C_1 .


Analysis of structural, dynamic, and magnetic symmetry:
=====================================================================
 Subroutine PRICEL returns:
 Original cell was already a primitive cell.
 

 Routine SETGRP: Setting up the symmetry group for a 
 simple cubic supercell.


 Subroutine GETGRP returns: Found  1 space group operations
 (whereof  1 operations were pure point group operations)
 out of a pool of 48 trial point group operations.


The magnetic configuration has the point symmetry C_1 .


 Subroutine INISYM returns: Found  1 space group operations
 (whereof  1 operations are pure point group operations),
 and found     1 'primitive' translations

 
 
 KPOINTS: Automatic mesh                          

Automatic generation of k-mesh.
Space group operators:
 irot       det(A)        alpha          n_x          n_y          n_z        tau_x        tau_y        tau_z
    1     1.000000     0.000000     1.000000     0.000000     0.000000     0.000000     0.000000     0.000000
 
 Subroutine IBZKPT returns following result:
 ===========================================
 
 Found     36 irreducible k-points:
 
 Following reciprocal coordinates:
            Coordinates               Weight
  0.000000  0.000000  0.000000      1.000000
  0.250000  0.000000  0.000000      2.000000
  0.500000  0.000000  0.000000      1.000000
  0.000000  0.250000  0.000000      2.000000
  0.250000  0.250000  0.000000      2.000000
  0.500000  0.250000  0.000000      2.000000
 -0.250000  0.250000  0.000000      2.000000
  0.000000  0.500000  0.000000      1.000000
  0.250000  0.500000  0.000000      2.000000
  0.500000  0.500000  0.000000      1.000000
  0.000000  0.000000  0.250000      2.000000
  0.250000  0.000000  0.250000      2.000000
  0.500000  0.000000  0.250000      2.000000
 -0.250000  0.000000  0.250000      2.000000
  0.000000  0.250000  0.250000      2.000000
  0.250000  0.250000  0.250000      2.000000
  0.500000  0.250000  0.250000      2.000000
 -0.250000  0.250000  0.250000      2.000000
  0.000000  0.500000  0.250000      2.000000
  0.250000  0.500000  0.250000      2.000000
  0.500000  0.500000  0.250000      2.000000
 -0.250000  0.500000  0.250000      2.000000
  0.000000 -0.250000  0.250000      2.000000
  0.250000 -0.250000  0.250000      2.000000
  0.500000 -0.250000  0.250000      2.000000
 -0.250000 -0.250000  0.250000      2.000000
  0.000000  0.000000  0.500000      1.000000
  0.250000  0.000000  0.500000      2.000000
  0.500000  0.000000  0.500000      1.000000
  0.000000  0.250000  0.500000      2.000000
  0.250000  0.250000  0.500000      2.000000
  0.500000  0.250000  0.500000      2.000000
 -0.250000  0.250000  0.500000      2.000000
  0.000000  0.500000  0.500000      1.000000
  0.250000  0.500000  0.500000      2.000000
  0.500000  0.500000  0.500000      1.000000
 
 Following cartesian coordinates:
            Coordinates               Weight
  0.000000  0.000000  0.000000      1.000000
  0.030414  0.000000  0.000000      2.000000
  0.060828  0.000000  0.000000      1.000000
  0.000000  0.030414  0.000000      2.000000
  0.030414  0.030414  0.000000      2.000000
  0.060828  0.030414  0.000000      2.000000
 -0.030414  0.030414  0.000000      2.000000
  0.000000  0.060828  0.000000      1.000000
  0.030414  0.060828  0.000000      2.000000
  0.060828  0.060828  0.000000      1.000000
  0.000000  0.000000  0.030414      2.000000
  0.030414  0.000000  0.030414      2.000000
  0.060828  0.000000  0.030414      2.000000
 -0.030414  0.000000  0.030414      2.000000
  0.000000  0.030414  0.030414      2.000000
  0.030414  0.030414  0.030414      2.000000
  0.060828  0.030414  0.030414      2.000000
 -0.030414  0.030414  0.030414      2.000000
  0.000000  0.060828  0.030414      2.000000
  0.030414  0.060828  0.030414      2.000000
  0.060828  0.060828  0.030414      2.000000
 -0.030414  0.060828  0.030414      2.000000
  0.000000 -0.030414  0.030414      2.000000
  0.030414 -0.030414  0.030414      2.000000
  0.060828 -0.030414  0.030414      2.000000
 -0.030414 -0.030414  0.030414      2.000000
  0.000000  0.000000  0.060828      1.000000
  0.030414  0.000000  0.060828      2.000000
  0.060828  0.000000  0.060828      1.000000
  0.000000  0.030414  0.060828      2.000000
  0.030414  0.030414  0.060828      2.000000
  0.060828  0.030414  0.060828      2.000000
 -0.030414  0.030414  0.060828      2.000000
  0.000000  0.060828  0.060828      1.000000
  0.030414  0.060828  0.060828      2.000000
  0.060828  0.060828  0.060828      1.000000
 


--------------------------------------------------------------------------------------------------------




 Dimension of arrays:
   k-points           NKPTS =     36   k-points in BZ     NKDIM =     36   number of bands    NBANDS=    352
   number of dos      NEDOS =    301   number of ions     NIONS =     64
   non local maximal  LDIM  =      6   non local SUM 2l+1 LMDIM =     18
   total plane-waves  NPLWV = 216000
   max r-space proj   IRMAX =   5271   max aug-charges    IRDMAX=  12805
   dimension x,y,z NGX =    60 NGY =   60 NGZ =   60
   dimension x,y,z NGXF=   120 NGYF=  120 NGZF=  120
   support grid    NGXF=   120 NGYF=  120 NGZF=  120
   ions per type =              32  32
   NGX,Y,Z   is equivalent  to a cutoff of  12.13, 12.13, 12.13 a.u.
   NGXF,Y,Z  is equivalent  to a cutoff of  24.27, 24.27, 24.27 a.u.

 SYSTEM =  unknown system                          
 POSCAR =  NiO_Fm-3m_scale_1_000_disp_0_20_round_2 

 Startparameter for this run:
   NWRITE =      1    write-flag & timer
   PREC   = accura    normal or accurate (medium, high low for compatibility)
   ISTART =      0    job   : 0-new  1-cont  2-samecut
   ICHARG =      2    charge: 1-file 2-atom 10-const
   ISPIN  =      2    spin polarized calculation?
   LNONCOLLINEAR =      F non collinear calculations
   LSORBIT =      F    spin-orbit coupling
   INIWAV =      1    electr: 0-lowe 1-rand  2-diag
   LASPH  =      F    aspherical Exc in radial PAW
   METAGGA=      F    non-selfconsistent MetaGGA calc.

 Electronic Relaxation 1
   ENCUT  =  500.0 eV  36.75 Ry    6.06 a.u.  14.99 14.99 14.99*2*pi/ulx,y,z
   ENINI  =  500.0     initial cutoff
   ENAUG  =  605.4 eV  augmentation charge cutoff
   NELM   =     80;   NELMIN=  2; NELMDL= -5     # of ELM steps 
   EDIFF  = 0.1E-04   stopping-criterion for ELM
   LREAL  =      T    real-space projection
   NLSPLINE    = F    spline interpolate recip. space projectors
   LCOMPAT=      F    compatible to vasp.4.4
   GGA_COMPAT  = T    GGA compatible to vasp.4.4-vasp.4.6
   LMAXPAW     = -100 max onsite density
   LMAXMIX     =    2 max onsite mixed and CHGCAR
   VOSKOWN=      1    Vosko Wilk Nusair interpolation
   ROPT   =   -0.00025  -0.00025
 Ionic relaxation
   EDIFFG = 0.1E-03   stopping-criterion for IOM
   NSW    =      0    number of steps for IOM
   NBLOCK =      1;   KBLOCK =      1    inner block; outer block 
   IBRION =     -1    ionic relax: 0-MD 1-quasi-New 2-CG
   NFREE  =      0    steps in history (QN), initial steepest desc. (CG)
   ISIF   =      2    stress and relaxation
   IWAVPR =     10    prediction:  0-non 1-charg 2-wave 3-comb
   ISYM   =      2    0-nonsym 1-usesym 2-fastsym
   LCORR  =      T    Harris-Foulkes like correction to forces

   POTIM  = 0.5000    time-step for ionic-motion
   TEIN   =    0.0    initial temperature
   TEBEG  =    0.0;   TEEND  =   0.0 temperature during run
   SMASS  =  -3.00    Nose mass-parameter (am)
   estimated Nose-frequenzy (Omega)   =  0.10E-29 period in steps =****** mass=  -0.154E-26a.u.
   SCALEE = 1.0000    scale energy and forces
   NPACO  =    256;   APACO  = 16.0  distance and # of slots for P.C.
   PSTRESS=    0.0 pullay stress

  Mass of Ions in am
   POMASS =  58.69 16.00
  Ionic Valenz
   ZVAL   =  10.00  6.00
  Atomic Wigner-Seitz radii
   RWIGS  =   1.15  0.73
  virtual crystal weights 
   VCA    =   1.00  1.00
   NELECT =     512.0000    total number of electrons
   NUPDOWN=      -1.0000    fix difference up-down

 DOS related values:
   EMIN   =  10.00;   EMAX   =-10.00  energy-range for DOS
   EFERMI =   0.00
   ISMEAR =     0;   SIGMA  =   0.05  broadening in eV -4-tet -1-fermi 0-gaus

 Electronic relaxation 2 (details)
   IALGO  =     38    algorithm
   LDIAG  =      T    sub-space diagonalisation (order eigenvalues)
   LSUBROT=      F    optimize rotation matrix (better conditioning)
   TURBO    =      0    0=normal 1=particle mesh
   IRESTART =      0    0=no restart 2=restart with 2 vectors
   NREBOOT  =      0    no. of reboots
   NMIN     =      0    reboot dimension
   EREF     =   0.00    reference energy to select bands
   IMIX   =      4    mixing-type and parameters
     AMIX     =   0.40;   BMIX     =  1.00
     AMIX_MAG =   1.60;   BMIX_MAG =  1.00
     AMIN     =   0.10
     WC   =   100.;   INIMIX=   1;  MIXPRE=   1;  MAXMIX= -45

 Intra band minimization:
   WEIMIN = 0.0000     energy-eigenvalue tresh-hold
   EBREAK =  0.71E-08  absolut break condition
   DEPER  =   0.30     relativ break condition  

   TIME   =   0.40     timestep for ELM

  volume/ion in A,a.u.               =       8.68        58.56
  Fermi-wavevector in a.u.,A,eV,Ry     =   1.593305  3.010909 34.540016  2.538620
  Thomas-Fermi vector in A             =   2.691555
 
 Write flags
   LWAVE        =      F    write WAVECAR
   LDOWNSAMPLE  =      F    k-point downsampling of WAVECAR
   LCHARG       =      T    write CHGCAR
   LVTOT        =      F    write LOCPOT, total local potential
   LVHAR        =      F    write LOCPOT, Hartree potential only
   LELF         =      F    write electronic localiz. function (ELF)
   LORBIT       =      0    0 simple, 1 ext, 2 COOP (PROOUT), +10 PAW based schemes


 Dipole corrections
   LMONO  =      F    monopole corrections only (constant potential shift)
   LDIPOL =      F    correct potential (dipole corrections)
   IDIPOL =      0    1-x, 2-y, 3-z, 4-all directions 
   EPSILON=  1.0000000 bulk dielectric constant

 Exchange correlation treatment:
   GGA     =    PS    GGA type
   LEXCH   =    14    internal setting for exchange type
   VOSKOWN=      1    Vosko Wilk Nusair interpolation
   LHFCALC =     F    Hartree Fock is set to
   LHFONE  =     F    Hartree Fock one center treatment
   AEXX    =    0.0000 exact exchange contribution

 Linear response parameters
   LEPSILON=     F    determine dielectric tensor
   LRPA    =     F    only Hartree local field effects (RPA)
   LNABLA  =     F    use nabla operator in PAW spheres
   LVEL    =     F    velocity operator in full k-point grid
   LINTERFAST=   F  fast interpolation
   KINTER  =     0    interpolate to denser k-point grid
   CSHIFT  =0.1000    complex shift for real part using Kramers Kronig
   OMEGAMAX=  -1.0    maximum frequency
   DEG_THRESHOLD= 0.2000000E-02 threshold for treating states as degnerate
   RTIME   =   -0.100 relaxation time in fs
  (WPLASMAI=    0.000 imaginary part of plasma frequency in eV, 0.658/RTIME)
   DFIELD  = 0.0000000 0.0000000 0.0000000 field for delta impulse in time
 
 Orbital magnetization related:
   ORBITALMAG=     F  switch on orbital magnetization
   LCHIMAG   =     F  perturbation theory with respect to B field
   DQ        =  0.001000  dq finite difference perturbation B field
   LLRAUG    =     F  two centre corrections for induced B field



--------------------------------------------------------------------------------------------------------


 Static calculation
 charge density and potential will be updated during run
 spin polarized calculation
 Variant of blocked Davidson
 Davidson routine will perform the subspace rotation
 perform sub-space diagonalisation
    after iterative eigenvector-optimisation
 modified Broyden-mixing scheme, WC =      100.0
 initial mixing is a Kerker type mixing with AMIX =  0.4000 and BMIX =      1.0000
 Hartree-type preconditioning will be used
 using additional bands           96
 real space projection scheme for non local part
 use partial core corrections
 calculate Harris-corrections to forces 
   (improved forces if not selfconsistent)
 use gradient corrections 
 use of overlap-Matrix (Vanderbilt PP)
 Gauss-broadening in eV      SIGMA  =   0.05


--------------------------------------------------------------------------------------------------------


  energy-cutoff  :      500.00
  volume of cell :      555.39
      direct lattice vectors                 reciprocal lattice vectors
     8.219890000  0.000000000  0.000000000     0.121656129  0.000000000  0.000000000
     0.000000000  8.219890000  0.000000000     0.000000000  0.121656129  0.000000000
     0.000000000  0.000000000  8.219890000     0.000000000  0.000000000  0.121656129

  length of vectors
     8.219890000  8.219890000  8.219890000     0.121656129  0.121656129  0.121656129


 
 k-points in units of 2pi/SCALE and weight: Automatic mesh                          
   0.00000000  0.00000000  0.00000000       0.016
   0.03041403  0.00000000  0.00000000       0.031
   0.06082806  0.00000000  0.00000000       0.016
   0.00000000  0.03041403  0.00000000       0.031
   0.03041403  0.03041403  0.00000000       0.031
   0.06082806  0.03041403  0.00000000       0.031
  -0.03041403  0.03041403  0.00000000       0.031
   0.00000000  0.06082806  0.00000000       0.016
   0.03041403  0.06082806  0.00000000       0.031
   0.06082806  0.06082806  0.00000000       0.016
   0.00000000  0.00000000  0.03041403       0.031
   0.03041403  0.00000000  0.03041403       0.031
   0.06082806  0.00000000  0.03041403       0.031
  -0.03041403  0.00000000  0.03041403       0.031
   0.00000000  0.03041403  0.03041403       0.031
   0.03041403  0.03041403  0.03041403       0.031
   0.06082806  0.03041403  0.03041403       0.031
  -0.03041403  0.03041403  0.03041403       0.031
   0.00000000  0.06082806  0.03041403       0.031
   0.03041403  0.06082806  0.03041403       0.031
   0.06082806  0.06082806  0.03041403       0.031
  -0.03041403  0.06082806  0.03041403       0.031
   0.00000000 -0.03041403  0.03041403       0.031
   0.03041403 -0.03041403  0.03041403       0.031
   0.06082806 -0.03041403  0.03041403       0.031
  -0.03041403 -0.03041403  0.03041403       0.031
   0.00000000  0.00000000  0.06082806       0.016
   0.03041403  0.00000000  0.06082806       0.031
   0.06082806  0.00000000  0.06082806       0.016
   0.00000000  0.03041403  0.06082806       0.031
   0.03041403  0.03041403  0.06082806       0.031
   0.06082806  0.03041403  0.06082806       0.031
  -0.03041403  0.03041403  0.06082806       0.031
   0.00000000  0.06082806  0.06082806       0.016
   0.03041403  0.06082806  0.06082806       0.031
   0.06082806  0.06082806  0.06082806       0.016
 
 k-points in reciprocal lattice and weights: Automatic mesh                          
   0.00000000  0.00000000  0.00000000       0.016
   0.25000000  0.00000000  0.00000000       0.031
   0.50000000  0.00000000  0.00000000       0.016
   0.00000000  0.25000000  0.00000000       0.031
   0.25000000  0.25000000  0.00000000       0.031
   0.50000000  0.25000000  0.00000000       0.031
  -0.25000000  0.25000000  0.00000000       0.031
   0.00000000  0.50000000  0.00000000       0.016
   0.25000000  0.50000000  0.00000000       0.031
   0.50000000  0.50000000  0.00000000       0.016
   0.00000000  0.00000000  0.25000000       0.031
   0.25000000  0.00000000  0.25000000       0.031
   0.50000000  0.00000000  0.25000000       0.031
  -0.25000000  0.00000000  0.25000000       0.031
   0.00000000  0.25000000  0.25000000       0.031
   0.25000000  0.25000000  0.25000000       0.031
   0.50000000  0.25000000  0.25000000       0.031
  -0.25000000  0.25000000  0.25000000       0.031
   0.00000000  0.50000000  0.25000000       0.031
   0.25000000  0.50000000  0.25000000       0.031
   0.50000000  0.50000000  0.25000000       0.031
  -0.25000000  0.50000000  0.25000000       0.031
   0.00000000 -0.25000000  0.25000000       0.031
   0.25000000 -0.25000000  0.25000000       0.031
   0.50000000 -0.25000000  0.25000000       0.031
  -0.25000000 -0.25000000  0.25000000       0.031
   0.00000000  0.00000000  0.50000000       0.016
   0.25000000  0.00000000  0.50000000       0.031
   0.50000000  0.00000000  0.50000000       0.016
   0.00000000  0.25000000  0.50000000       0.031
   0.25000000  0.25000000  0.50000000       0.031
   0.50000000  0.25000000  0.50000000       0.031
  -0.25000000  0.25000000  0.50000000       0.031
   0.00000000  0.50000000  0.50000000       0.016
   0.25000000  0.50000000  0.50000000       0.031
   0.50000000  0.50000000  0.50000000       0.016
 
 position of ions in fractional coordinates (direct lattice) 
   0.01622864  0.00062806  0.98107957
   0.02308142  0.26707253  0.22442590
   0.24105710  0.97232421  0.21783053
   0.29312122  0.24154590  0.01630533
   0.00586641  0.97682428  0.49668446
   0.03083370  0.25422472  0.72023671
   0.28443647  0.01113667  0.76773444
   0.29789443  0.23667165  0.48346892
   0.98976035  0.48656944  0.99705355
   0.00462637  0.76246093  0.25320049
   0.24193135  0.46028204  0.26506380
   0.22584946  0.74607424  0.02901266
   0.99388933  0.53876233  0.50415620
   0.98274298  0.74676335  0.74957768
   0.24754029  0.48627622  0.74564384
   0.27460030  0.77240896  0.54703445
   0.45807114  0.01122300  0.97359170
   0.54436503  0.21756980  0.28983974
   0.72997689  0.96111605  0.25551131
   0.75569102  0.22695292  0.96930430
   0.51096355  0.03935459  0.49166984
   0.48482981  0.20097725  0.79552114
   0.79557721  0.98779896  0.75219210
   0.74771421  0.28310226  0.46180381
   0.46755299  0.51206969  0.00032102
   0.48819424  0.75281831  0.26618258
   0.74935385  0.51516369  0.24990897
   0.75661735  0.73682126  0.01931398
   0.49418670  0.48692441  0.45696158
   0.46486981  0.75227376  0.79362596
   0.73985275  0.44897142  0.78014442
   0.75420728  0.77851124  0.48470586
   0.25784126  0.25146822  0.22461158
   0.22542688  0.01074799  0.02746696
   0.95527756  0.22715861  0.99508897
   0.02543516  0.01309414  0.26975984
   0.18902034  0.25357573  0.76474948
   0.24945160  0.00032658  0.52277269
   0.01023426  0.26001521  0.49826460
   0.99889445  0.02532603  0.74771202
   0.25610073  0.73020372  0.26712003
   0.24347577  0.48825874  0.03028290
   0.01646884  0.82755585  0.97370853
   0.00024889  0.51065293  0.28230670
   0.23064784  0.72538811  0.80233111
   0.26034418  0.51073376  0.48011070
   0.01065446  0.75242639  0.50159141
   0.02979190  0.48127471  0.75467451
   0.69185164  0.24189104  0.25835818
   0.70065966  0.00319752  0.03900865
   0.45707209  0.26378373  0.01335269
   0.48503301  0.00787226  0.22315795
   0.76645772  0.19511151  0.76590328
   0.73185346  0.03179564  0.51336539
   0.48510490  0.23207173  0.47091543
   0.54092623  0.02592304  0.73526590
   0.75379598  0.74258877  0.25461942
   0.74435356  0.49536835  0.01278324
   0.52124259  0.71031670  0.99537577
   0.50197789  0.47275287  0.26064145
   0.77101585  0.75850782  0.71962238
   0.74140639  0.50301078  0.47864594
   0.52906563  0.74025907  0.52156682
   0.49415127  0.51586383  0.76384107
 
 position of ions in cartesian coordinates  (Angst):
   0.13339764  0.00516258  8.06436615
   0.18972673  2.19530682  1.84475621
   1.98146285  7.99239805  1.79054300
   2.40942419  1.98548073  0.13402802
   0.04822124  8.02938813  4.08269163
   0.25344962  2.08969923  5.92026653
   2.33803650  0.09154220  6.31069265
   2.44865945  1.94541493  3.97406134
   8.13572120  3.99954727  8.19567051
   0.03802825  6.26734497  2.08128018
   1.98864908  3.78346774  2.17879528
   1.85645772  6.13264818  0.23848087
   8.16966096  4.42856709  4.14410851
   8.07803919  6.13831259  6.16144608
   2.03475395  3.99713704  6.12911034
   2.25718426  6.34911669  4.49656301
   3.76529438  0.09225183  8.00281668
   4.47462067  1.78839982  2.38245078
   6.00032974  7.90026821  2.10027486
   6.21169706  1.86552804  7.96757472
   4.20006418  0.32349040  4.04147200
   3.98524771  1.65201089  6.53909626
   6.53955715  8.11959879  6.18293632
   6.14612856  2.32706944  3.79597652
   3.84323415  4.20915652  0.00263875
   4.01290295  6.18808370  2.18799153
   6.15960622  4.23458886  2.05422424
   6.21931139  6.05658971  0.15875879
   4.06216031  4.00246509  3.75617392
   3.82117870  6.18360756  6.52351809
   6.08150822  3.69049569  6.41270132
   6.19950088  6.39927676  3.98422885
   2.11942679  2.06704111  1.84628248
   1.85298416  0.08834730  0.22577539
   7.85227646  1.86721879  8.17952187
   0.20907422  0.10763239  2.21739621
   1.55372640  2.08436461  6.28615660
   2.05046471  0.00268445  4.29713401
   0.08412449  2.13729642  4.09568020
   8.21080250  0.20817718  6.14611056
   2.10511983  6.00219426  2.19569726
   2.00134405  4.01343313  0.24892211
   0.13537205  6.80241806  8.00377701
   0.00204585  4.19751091  2.32053002
   1.89589987  5.96261047  6.59507347
   2.14000052  4.19817533  3.94645714
   0.08757849  6.18486216  4.12302622
   0.24488614  3.95602518  6.20334146
   5.68694438  1.98831774  2.12367582
   5.75934533  0.02628326  0.32064681
   3.75708230  2.16827324  0.10975764
   3.98691799  0.06470911  1.83433380
   6.30019815  1.60379515  6.29564071
   6.01575494  0.26135666  4.21980704
   3.98750892  1.90760409  3.87087303
   4.44635411  0.21308454  6.04380482
   6.19612004  6.10399800  2.09294362
   6.11850438  4.07187335  0.10507683
   4.28455675  5.83872514  8.18187934
   4.12620304  3.88597659  2.14244405
   6.33766548  6.23485084  5.91521681
   6.09427897  4.13469328  3.93441698
   4.34886128  6.08484813  4.28722189
   4.06186908  4.24034394  6.27868957
 


--------------------------------------------------------------------------------------------------------


 k-point  1 :   0.0000 0.0000 0.0000  plane waves:   13997
 k-point  2 :   0.2500 0.0000 0.0000  plane waves:   14098
 k-point  3 :   0.5000 0.0000 0.0000  plane waves:   14094
 k-point  4 :   0.0000 0.2500 0.0000  plane waves:   14098
 k-point  5 :   0.2500 0.2500 0.0000  plane waves:   14039
 k-point  6 :   0.5000 0.2500 0.0000  plane waves:   14082
 k-point  7 :  -0.2500 0.2500 0.0000  plane waves:   14039
 k-point  8 :   0.0000 0.5000 0.0000  plane waves:   14094
 k-point  9 :   0.2500 0.5000 0.0000  plane waves:   14082
 k-point 10 :   0.5000 0.5000 0.0000  plane waves:   14108
 k-point 11 :   0.0000 0.0000 0.2500  plane waves:   14098
 k-point 12 :   0.2500 0.0000 0.2500  plane waves:   14039
 k-point 13 :   0.5000 0.0000 0.2500  plane waves:   14082
 k-point 14 :  -0.2500 0.0000 0.2500  plane waves:   14039
 k-point 15 :   0.0000 0.2500 0.2500  plane waves:   14039
 k-point 16 :   0.2500 0.2500 0.2500  plane waves:   14114
 k-point 17 :   0.5000 0.2500 0.2500  plane waves:   14146
 k-point 18 :  -0.2500 0.2500 0.2500  plane waves:   14114
 k-point 19 :   0.0000 0.5000 0.2500  plane waves:   14082
 k-point 20 :   0.2500 0.5000 0.2500  plane waves:   14146
 k-point 21 :   0.5000 0.5000 0.2500  plane waves:   14128
 k-point 22 :  -0.2500 0.5000 0.2500  plane waves:   14146
 k-point 23 :   0.0000-0.2500 0.2500  plane waves:   14039
 k-point 24 :   0.2500-0.2500 0.2500  plane waves:   14114
 k-point 25 :   0.5000-0.2500 0.2500  plane waves:   14146
 k-point 26 :  -0.2500-0.2500 0.2500  plane waves:   14114
 k-point 27 :   0.0000 0.0000 0.5000  plane waves:   14094
 k-point 28 :   0.2500 0.0000 0.5000  plane waves:   14082
 k-point 29 :   0.5000 0.0000 0.5000  plane waves:   14108
 k-point 30 :   0.0000 0.2500 0.5000  plane waves:   14082
 k-point 31 :   0.2500 0.2500 0.5000  plane waves:   14146
 k-point 32 :   0.5000 0.2500 0.5000  plane waves:   14128
 k-point 33 :  -0.2500 0.2500 0.5000  plane waves:   14146
 k-point 34 :   0.0000 0.5000 0.5000  plane waves:   14108
 k-point 35 :   0.2500 0.5000 0.5000  plane waves:   14128
 k-point 36 :   0.5000 0.5000 0.5000  plane waves:   13992

 maximum and minimum number of plane-waves per node :     14146    13992

 maximum number of plane-waves:     14146
 maximum index in each direction: 
   IXMAX=   15   IYMAX=   15   IZMAX=   14
   IXMIN=  -15   IYMIN=  -15   IZMIN=  -15

 The following grids will avoid any aliasing or wrap around errors in the Hartre
 e energy
  - symmetry arguments have not been applied
  - exchange correlation energies might require even more grid points
  - we recommend to set PREC=Normal or Accurate and rely on VASP defaults
 WARNING: aliasing errors must be expected set NGX to    64 to avoid them
 WARNING: aliasing errors must be expected set NGY to    64 to avoid them
 NGZ is ok and might be reduce to    60

 serial   3D FFT for wavefunctions
 parallel 3D FFT for charge:
    minimum data exchange during FFTs selected (reduces bandwidth)


 total amount of memory used by VASP MPI-rank0   479564. kBytes
=======================================================================

   base      :      30000. kBytes
   nonlr-proj:      36132. kBytes
   fftplans  :       4751. kBytes
   grid      :      26734. kBytes
   one-center:       1990. kBytes
   wavefun   :     379957. kBytes
 
     INWAV:  cpu time    0.0000: real time    0.0000
 Broyden mixing: mesh for mixing (old mesh)
   NGX = 29   NGY = 29   NGZ = 29
  (NGX  =120   NGY  =120   NGZ  =120)
  gives a total of  24389 points

 initial charge density was supplied:
 charge density of overlapping atoms calculated
 number of electron     512.0000000 magnetization      80.0000000
 keeping initial charge density in first step


--------------------------------------------------------------------------------------------------------


 Maximum index for non-local projection operator         5098
 Maximum index for augmentation-charges         1158 (set IRDMAX)


--------------------------------------------------------------------------------------------------------


 First call to EWALD:  gamma=   0.216
 Maximum number of real-space cells 3x 3x 3
 Maximum number of reciprocal cells 3x 3x 3

    FEWALD:  cpu time    0.0031: real time    0.0031


--------------------------------------- Iteration      1(   1)  ---------------------------------------


    POTLOK:  cpu time    0.1331: real time    0.1344
    SETDIJ:  cpu time    0.0233: real time    0.0234
     EDDAV:  cpu time  114.0648: real time  114.3539
    --------------------------------------------
      LOOP:  cpu time  114.2256: real time  114.5162

 eigenvalue-minimisations  : 50688
 total energy-change (2. order) : 0.6444699E+04  (-0.2068646E+05)
 number of electron     512.0000000 magnetization      80.0000000
 augmentation part      512.0000000 magnetization      80.0000000

 Free energy of the ion-electron system (eV)
  ---------------------------------------------------
  alpha Z        PSCENC =      2187.67459796
  Ewald energy   TEWEN  =    -40625.92759878
  -Hartree energ DENC   =    -11568.37980716
  -exchange      EXHF   =         0.00000000
  -V(xc)+E(xc)   XCENC  =      1969.60918807
  PAW double counting   =     41846.49563633   -44035.77946198
  entropy T*S    EENTRO =        -0.00828479
  eigenvalues    EBANDS =      8423.93310896
  atomic energy  EATOM  =     48247.08154143
  Solvation  Ediel_sol  =         0.00000000
  ---------------------------------------------------
  free energy    TOTEN  =      6444.69892004 eV

  energy without entropy =     6444.70720483  energy(sigma->0) =     6444.70306244


--------------------------------------------------------------------------------------------------------




--------------------------------------- Iteration      1(   2)  ---------------------------------------


     EDDAV:  cpu time  114.0617: real time  114.3319
    --------------------------------------------
      LOOP:  cpu time  114.0619: real time  114.3321

 eigenvalue-minimisations  : 50688
 total energy-change (2. order) :-0.5421903E+04  (-0.4891544E+04)
 number of electron     512.0000000 magnetization      80.0000000
 augmentation part      512.0000000 magnetization      80.0000000

 Free energy of the ion-electron system (eV)
  ---------------------------------------------------
  alpha Z        PSCENC =      2187.67459796
  Ewald energy   TEWEN  =    -40625.92759878
  -Hartree energ DENC   =    -11568.37980716
  -exchange      EXHF   =         0.00000000
  -V(xc)+E(xc)   XCENC  =      1969.60918807
  PAW double counting   =     41846.49563633   -44035.77946198
  entropy T*S    EENTRO =        -0.02795780
  eigenvalues    EBANDS =      3002.04978653
  atomic energy  EATOM  =     48247.08154143
  Solvation  Ediel_sol  =         0.00000000
  ---------------------------------------------------
  free energy    TOTEN  =      1022.79592460 eV

  energy without entropy =     1022.82388240  energy(sigma->0) =     1022.80990350


--------------------------------------------------------------------------------------------------------




--------------------------------------- Iteration      1(   3)  ---------------------------------------


     EDDAV:  cpu time  115.7543: real time  116.0286
    --------------------------------------------
      LOOP:  cpu time  115.7545: real time  116.0288

 eigenvalue-minimisations  : 51648
 total energy-change (2. order) :-0.1299952E+04  (-0.1156596E+04)
 number of electron     512.0000000 magnetization      80.0000000
 augmentation part      512.0000000 magnetization      80.0000000

 Free energy of the ion-electron system (eV)
  ---------------------------------------------------
  alpha Z        PSCENC =      2187.67459796
  Ewald energy   TEWEN  =    -40625.92759878
  -Hartree energ DENC   =    -11568.37980716
  -exchange      EXHF   =         0.00000000
  -V(xc)+E(xc)   XCENC  =      1969.60918807
  PAW double counting   =     41846.49563633   -44035.77946198
  entropy T*S    EENTRO =        -0.09644111
  eigenvalues    EBANDS =      1702.16599742
  atomic energy  EATOM  =     48247.08154143
  Solvation  Ediel_sol  =         0.00000000
  ---------------------------------------------------
  free energy    TOTEN  =      -277.15634781 eV

  energy without entropy =     -277.05990670  energy(sigma->0) =     -277.10812726


--------------------------------------------------------------------------------------------------------




--------------------------------------- Iteration      1(   4)  ---------------------------------------


     EDDAV:  cpu time  125.8647: real time  126.1627
    --------------------------------------------
      LOOP:  cpu time  125.8648: real time  126.1629

 eigenvalue-minimisations  : 57680
 total energy-change (2. order) :-0.1568168E+03  (-0.1484357E+03)
 number of electron     512.0000000 magnetization      80.0000000
 augmentation part      512.0000000 magnetization      80.0000000

 Free energy of the ion-electron system (eV)
  ---------------------------------------------------
  alpha Z        PSCENC =      2187.67459796
  Ewald energy   TEWEN  =    -40625.92759878
  -Hartree energ DENC   =    -11568.37980716
  -exchange      EXHF   =         0.00000000
  -V(xc)+E(xc)   XCENC  =      1969.60918807
  PAW double counting   =     41846.49563633   -44035.77946198
  entropy T*S    EENTRO =        -0.10152818
  eigenvalues    EBANDS =      1545.35430285
  atomic energy  EATOM  =     48247.08154143
  Solvation  Ediel_sol  =         0.00000000
  ---------------------------------------------------
  free energy    TOTEN  =      -433.97312946 eV

  energy without entropy =     -433.87160128  energy(sigma->0) =     -433.92236537


--------------------------------------------------------------------------------------------------------




--------------------------------------- Iteration      1(   5)  ---------------------------------------


     EDDAV:  cpu time  125.2882: real time  125.5847
    CHARGE:  cpu time    3.5226: real time    3.5310
    MIXING:  cpu time    0.0029: real time    0.0030
    --------------------------------------------
      LOOP:  cpu time  128.8088: real time  129.1137

 eigenvalue-minimisations  : 57360
 total energy-change (2. order) :-0.4343126E+01  (-0.4301894E+01)
 number of electron     512.0000013 magnetization      70.6187951
 augmentation part      203.2084852 magnetization      55.9284303

 Broyden mixing:
  rms(total) = 0.14363E+02    rms(broyden)= 0.14360E+02
  rms(prec ) = 0.16347E+02
  weight for this iteration     100.00

 Free energy of the ion-electron system (eV)
  ---------------------------------------------------
  alpha Z        PSCENC =      2187.67459796
  Ewald energy   TEWEN  =    -40625.92759878
  -Hartree energ DENC   =    -11568.37980716
  -exchange      EXHF   =         0.00000000
  -V(xc)+E(xc)   XCENC  =      1969.60918807
  PAW double counting   =     41846.49563633   -44035.77946198
  entropy T*S    EENTRO =        -0.10208777
  eigenvalues    EBANDS =      1541.01173678
  atomic energy  EATOM  =     48247.08154143
  Solvation  Ediel_sol  =         0.00000000
  ---------------------------------------------------
  free energy    TOTEN  =      -438.31625512 eV

  energy without entropy =     -438.21416735  energy(sigma->0) =     -438.26521123


--------------------------------------------------------------------------------------------------------




--------------------------------------- Iteration      1(   6)  ---------------------------------------


    POTLOK:  cpu time    0.1162: real time    0.1165
    SETDIJ:  cpu time    0.0239: real time    0.0239
     EDDAV:  cpu time  152.1815: real time  152.5417
    CHARGE:  cpu time    3.4341: real time    3.4423
    MIXING:  cpu time    0.0030: real time    0.0030
    --------------------------------------------
      LOOP:  cpu time  155.7587: real time  156.1274

 eigenvalue-minimisations  : 73216
 total energy-change (2. order) :-0.2777196E+02  (-0.5049067E+02)
 number of electron     511.9999967 magnetization      59.1593340
 augmentation part      230.6604896 magnetization      53.3073603

 Broyden mixing:
  rms(total) = 0.16526E+02    rms(broyden)= 0.16525E+02
  rms(prec ) = 0.21446E+02
  weight for this iteration     100.00

 eigenvalues of (default mixing * dielectric matrix)
  average eigenvalue GAMMA=   0.3426
  0.3426

 Free energy of the ion-electron system (eV)
  ---------------------------------------------------
  alpha Z        PSCENC =      2187.67459796
  Ewald energy   TEWEN  =    -40625.92759878
  -Hartree energ DENC   =    -11134.77774175
  -exchange      EXHF   =         0.00000000
  -V(xc)+E(xc)   XCENC  =      1961.27061395
  PAW double counting   =     47009.98394572   -49031.55472659
  entropy T*S    EENTRO =        -0.04395661
  eigenvalues    EBANDS =       920.20510985
  atomic energy  EATOM  =     48247.08154143
  Solvation  Ediel_sol  =         0.00000000
  ---------------------------------------------------
  free energy    TOTEN  =      -466.08821482 eV

  energy without entropy =     -466.04425821  energy(sigma->0) =     -466.06623652


--------------------------------------------------------------------------------------------------------




--------------------------------------- Iteration      1(   7)  ---------------------------------------


    POTLOK:  cpu time    0.1163: real time    0.1166
    SETDIJ:  cpu time    0.0238: real time    0.0238
     EDDAV:  cpu time  130.2181: real time  130.5262
    CHARGE:  cpu time    3.4399: real time    3.4480
    MIXING:  cpu time    0.0030: real time    0.0030
    --------------------------------------------
      LOOP:  cpu time  133.8011: real time  134.1177

 eigenvalue-minimisations  : 60048
 total energy-change (2. order) : 0.4048098E+02  (-0.4927919E+02)
 number of electron     512.0000032 magnetization      51.2920691
 augmentation part      222.8128814 magnetization      42.2108487

 Broyden mixing:
  rms(total) = 0.15568E+02    rms(broyden)= 0.15567E+02
  rms(prec ) = 0.19198E+02
  weight for this iteration     100.00

 eigenvalues of (default mixing * dielectric matrix)
  average eigenvalue GAMMA=   0.3367
  0.4435  0.2299

 Free energy of the ion-electron system (eV)
  ---------------------------------------------------
  alpha Z        PSCENC =      2187.67459796
  Ewald energy   TEWEN  =    -40625.92759878
  -Hartree energ DENC   =    -11211.06678830
  -exchange      EXHF   =         0.00000000
  -V(xc)+E(xc)   XCENC  =      1952.44255583
  PAW double counting   =     48854.94839042   -50993.29867176
  entropy T*S    EENTRO =        -0.06911427
  eigenvalues    EBANDS =      1162.60785004
  atomic energy  EATOM  =     48247.08154143
  Solvation  Ediel_sol  =         0.00000000
  ---------------------------------------------------
  free energy    TOTEN  =      -425.60723743 eV

  energy without entropy =     -425.53812316  energy(sigma->0) =     -425.57268030


--------------------------------------------------------------------------------------------------------




--------------------------------------- Iteration      1(   8)  ---------------------------------------


    POTLOK:  cpu time    0.1164: real time    0.1167
    SETDIJ:  cpu time    0.0238: real time    0.0239
     EDDAV:  cpu time  142.5350: real time  142.8722
    CHARGE:  cpu time    3.4924: real time    3.5007
    MIXING:  cpu time    0.0038: real time    0.0038
    --------------------------------------------
      LOOP:  cpu time  146.1714: real time  146.5172

 eigenvalue-minimisations  : 67344
 total energy-change (2. order) : 0.2195934E+02  (-0.1309143E+02)
 number of electron     512.0000022 magnetization      45.7222559
 augmentation part      217.7074486 magnetization      37.6047718

 Broyden mixing:
  rms(total) = 0.13037E+02    rms(broyden)= 0.13036E+02
  rms(prec ) = 0.18454E+02
  weight for this iteration     100.00

 eigenvalues of (default mixing * dielectric matrix)
  average eigenvalue GAMMA=   0.3817
  0.5876  0.3251  0.2326

 Free energy of the ion-electron system (eV)
  ---------------------------------------------------
  alpha Z        PSCENC =      2187.67459796
  Ewald energy   TEWEN  =    -40625.92759878
  -Hartree energ DENC   =    -11284.63826263
  -exchange      EXHF   =         0.00000000
  -V(xc)+E(xc)   XCENC  =      1950.68323138
  PAW double counting   =     50587.44929672   -52806.47599564
  entropy T*S    EENTRO =        -0.08081359
  eigenvalues    EBANDS =      1340.58610712
  atomic energy  EATOM  =     48247.08154143
  Solvation  Ediel_sol  =         0.00000000
  ---------------------------------------------------
  free energy    TOTEN  =      -403.64789603 eV

  energy without entropy =     -403.56708245  energy(sigma->0) =     -403.60748924


--------------------------------------------------------------------------------------------------------




--------------------------------------- Iteration      1(   9)  ---------------------------------------


    POTLOK:  cpu time    0.1389: real time    0.1393
    SETDIJ:  cpu time    0.0238: real time    0.0239
     EDDAV:  cpu time  140.5362: real time  140.8687
    CHARGE:  cpu time    3.5055: real time    3.5138
    MIXING:  cpu time    0.0032: real time    0.0032
    --------------------------------------------
      LOOP:  cpu time  144.2076: real time  144.5488

 eigenvalue-minimisations  : 66352
 total energy-change (2. order) : 0.2789671E+01  (-0.1943762E+02)
 number of electron     512.0000039 magnetization      34.7636579
 augmentation part      216.6333529 magnetization      27.2741449

 Broyden mixing:
  rms(total) = 0.10159E+02    rms(broyden)= 0.10157E+02
  rms(prec ) = 0.14953E+02
  weight for this iteration     100.00

 eigenvalues of (default mixing * dielectric matrix)
  average eigenvalue GAMMA=   0.5072
  1.0626  0.5900  0.2527  0.1237

 Free energy of the ion-electron system (eV)
  ---------------------------------------------------
  alpha Z        PSCENC =      2187.67459796
  Ewald energy   TEWEN  =    -40625.92759878
  -Hartree energ DENC   =    -11314.15282516
  -exchange      EXHF   =         0.00000000
  -V(xc)+E(xc)   XCENC  =      1949.22064236
  PAW double counting   =     51730.91588541   -53985.69984740
  entropy T*S    EENTRO =        -0.07923336
  eigenvalues    EBANDS =      1410.10861211
  atomic energy  EATOM  =     48247.08154143
  Solvation  Ediel_sol  =         0.00000000
  ---------------------------------------------------
  free energy    TOTEN  =      -400.85822543 eV

  energy without entropy =     -400.77899207  energy(sigma->0) =     -400.81860875


--------------------------------------------------------------------------------------------------------




--------------------------------------- Iteration      1(  10)  ---------------------------------------


    POTLOK:  cpu time    0.1159: real time    0.1162
    SETDIJ:  cpu time    0.0239: real time    0.0239
     EDDAV:  cpu time  136.2779: real time  136.6012
    CHARGE:  cpu time    3.4356: real time    3.4438
    MIXING:  cpu time    0.0034: real time    0.0034
    --------------------------------------------
      LOOP:  cpu time  139.8567: real time  140.1884

 eigenvalue-minimisations  : 63616
 total energy-change (2. order) :-0.1256695E+03  (-0.2434473E+02)
 number of electron     511.9999963 magnetization      21.5007639
 augmentation part      216.9091009 magnetization      16.7109479

 Broyden mixing:
  rms(total) = 0.13568E+02    rms(broyden)= 0.13566E+02
  rms(prec ) = 0.21428E+02
  weight for this iteration     100.00

 eigenvalues of (default mixing * dielectric matrix)
  average eigenvalue GAMMA=   0.5423
  1.5844  0.5862  0.2080  0.2080  0.1248

 Free energy of the ion-electron system (eV)
  ---------------------------------------------------
  alpha Z        PSCENC =      2187.67459796
  Ewald energy   TEWEN  =    -40625.92759878
  -Hartree energ DENC   =    -11296.07640406
  -exchange      EXHF   =         0.00000000
  -V(xc)+E(xc)   XCENC  =      1946.62768329
  PAW double counting   =     53759.03686041   -56050.26072104
  entropy T*S    EENTRO =        -0.06257685
  eigenvalues    EBANDS =      1305.37891109
  atomic energy  EATOM  =     48247.08154143
  Solvation  Ediel_sol  =         0.00000000
  ---------------------------------------------------
  free energy    TOTEN  =      -526.52770656 eV

  energy without entropy =     -526.46512971  energy(sigma->0) =     -526.49641813


--------------------------------------------------------------------------------------------------------




--------------------------------------- Iteration      1(  11)  ---------------------------------------


    POTLOK:  cpu time    0.1166: real time    0.1168
    SETDIJ:  cpu time    0.0237: real time    0.0238
     EDDAV:  cpu time  128.9091: real time  129.2141
    CHARGE:  cpu time    3.4333: real time    3.4414
    MIXING:  cpu time    0.0036: real time    0.0036
    --------------------------------------------
      LOOP:  cpu time  132.4862: real time  132.7996

 eigenvalue-minimisations  : 59472
 total energy-change (2. order) : 0.9433932E+02  (-0.1495823E+02)
 number of electron     512.0000013 magnetization      18.2907796
 augmentation part      218.5488680 magnetization      15.7554903

 Broyden mixing:
  rms(total) = 0.10190E+02    rms(broyden)= 0.10188E+02
  rms(prec ) = 0.16197E+02
  weight for this iteration     100.00

 eigenvalues of (default mixing * dielectric matrix)
  average eigenvalue GAMMA=   0.5149
  1.7337  0.5785  0.2554  0.2554  0.1330  0.1330

 Free energy of the ion-electron system (eV)
  ---------------------------------------------------
  alpha Z        PSCENC =      2187.67459796
  Ewald energy   TEWEN  =    -40625.92759878
  -Hartree energ DENC   =    -11256.13855273
  -exchange      EXHF   =         0.00000000
  -V(xc)+E(xc)   XCENC  =      1944.75749909
  PAW double counting   =     56151.68852342   -58478.46412637
  entropy T*S    EENTRO =        -0.04956337
  eigenvalues    EBANDS =      1397.18929445
  atomic energy  EATOM  =     48247.08154143
  Solvation  Ediel_sol  =         0.00000000
  ---------------------------------------------------
  free energy    TOTEN  =      -432.18838490 eV

  energy without entropy =     -432.13882154  energy(sigma->0) =     -432.16360322


--------------------------------------------------------------------------------------------------------




--------------------------------------- Iteration      1(  12)  ---------------------------------------


    POTLOK:  cpu time    0.1166: real time    0.1168
    SETDIJ:  cpu time    0.0238: real time    0.0238
     EDDAV:  cpu time  129.3129: real time  129.6189
    CHARGE:  cpu time    3.4407: real time    3.4488
    MIXING:  cpu time    0.0036: real time    0.0036
    --------------------------------------------
      LOOP:  cpu time  132.8976: real time  133.2120

 eigenvalue-minimisations  : 59648
 total energy-change (2. order) : 0.3341378E+02  (-0.9129404E+01)
 number of electron     511.9999995 magnetization      16.1074275
 augmentation part      219.1146566 magnetization      12.8083491

 Broyden mixing:
  rms(total) = 0.84211E+01    rms(broyden)= 0.84199E+01
  rms(prec ) = 0.14418E+02
  weight for this iteration     100.00

 eigenvalues of (default mixing * dielectric matrix)
  average eigenvalue GAMMA=   0.4860
  1.8424  0.5680  0.2920  0.2920  0.1457  0.1457  0.1162

 Free energy of the ion-electron system (eV)
  ---------------------------------------------------
  alpha Z        PSCENC =      2187.67459796
  Ewald energy   TEWEN  =    -40625.92759878
  -Hartree energ DENC   =    -11238.96702850
  -exchange      EXHF   =         0.00000000
  -V(xc)+E(xc)   XCENC  =      1944.36191964
  PAW double counting   =     56659.22484819   -58995.17902793
  entropy T*S    EENTRO =        -0.05977843
  eigenvalues    EBANDS =      1423.01592453
  atomic energy  EATOM  =     48247.08154143
  Solvation  Ediel_sol  =         0.00000000
  ---------------------------------------------------
  free energy    TOTEN  =      -398.77460188 eV

  energy without entropy =     -398.71482345  energy(sigma->0) =     -398.74471267


--------------------------------------------------------------------------------------------------------




--------------------------------------- Iteration      1(  13)  ---------------------------------------


    POTLOK:  cpu time    0.1167: real time    0.1170
    SETDIJ:  cpu time    0.0237: real time    0.0238
     EDDAV:  cpu time  135.2903: real time  135.6104
    CHARGE:  cpu time    3.4388: real time    3.4469
    MIXING:  cpu time    0.0039: real time    0.0039
    --------------------------------------------
      LOOP:  cpu time  138.8734: real time  139.2020

 eigenvalue-minimisations  : 63232
 total energy-change (2. order) : 0.2641882E+02  (-0.4436529E+01)
 number of electron     511.9999993 magnetization      16.2609810
 augmentation part      220.1238286 magnetization      13.3401024

 Broyden mixing:
  rms(total) = 0.51610E+01    rms(broyden)= 0.51595E+01
  rms(prec ) = 0.76371E+01
  weight for this iteration     100.00

 eigenvalues of (default mixing * dielectric matrix)
  average eigenvalue GAMMA=   0.4535
  1.7294  0.6318  0.3507  0.2739  0.2739  0.1343  0.1343  0.0998

 Free energy of the ion-electron system (eV)
  ---------------------------------------------------
  alpha Z        PSCENC =      2187.67459796
  Ewald energy   TEWEN  =    -40625.92759878
  -Hartree energ DENC   =    -11233.23610941
  -exchange      EXHF   =         0.00000000
  -V(xc)+E(xc)   XCENC  =      1943.63732516
  PAW double counting   =     57054.70243889   -59398.71899384
  entropy T*S    EENTRO =        -0.06667161
  eigenvalues    EBANDS =      1452.49769141
  atomic energy  EATOM  =     48247.08154143
  Solvation  Ediel_sol  =         0.00000000
  ---------------------------------------------------
  free energy    TOTEN  =      -372.35577879 eV

  energy without entropy =     -372.28910718  energy(sigma->0) =     -372.32244299


--------------------------------------------------------------------------------------------------------




--------------------------------------- Iteration      1(  14)  ---------------------------------------


    POTLOK:  cpu time    0.1163: real time    0.1165
    SETDIJ:  cpu time    0.0238: real time    0.0238
     EDDAV:  cpu time  137.3212: real time  137.6460
    CHARGE:  cpu time    3.4471: real time    3.4553
    MIXING:  cpu time    0.0041: real time    0.0041
    --------------------------------------------
      LOOP:  cpu time  140.9124: real time  141.2458

 eigenvalue-minimisations  : 64352
 total energy-change (2. order) : 0.6639594E+01  (-0.3228919E+01)
 number of electron     512.0000029 magnetization      16.2327586
 augmentation part      219.2106306 magnetization      13.6673139

 Broyden mixing:
  rms(total) = 0.56835E+01    rms(broyden)= 0.56818E+01
  rms(prec ) = 0.89355E+01
  weight for this iteration     100.00

 eigenvalues of (default mixing * dielectric matrix)
  average eigenvalue GAMMA=   0.4305
  1.6928  0.6826  0.4155  0.3043  0.3043  0.1332  0.1332  0.1046  0.1046

 Free energy of the ion-electron system (eV)
  ---------------------------------------------------
  alpha Z        PSCENC =      2187.67459796
  Ewald energy   TEWEN  =    -40625.92759878
  -Hartree energ DENC   =    -11230.24901672
  -exchange      EXHF   =         0.00000000
  -V(xc)+E(xc)   XCENC  =      1943.09341610
  PAW double counting   =     56880.88269607   -59221.59427605
  entropy T*S    EENTRO =        -0.07704662
  eigenvalues    EBANDS =      1453.39950159
  atomic energy  EATOM  =     48247.08154143
  Solvation  Ediel_sol  =         0.00000000
  ---------------------------------------------------
  free energy    TOTEN  =      -365.71618503 eV

  energy without entropy =     -365.63913841  energy(sigma->0) =     -365.67766172


--------------------------------------------------------------------------------------------------------




--------------------------------------- Iteration      1(  15)  ---------------------------------------


    POTLOK:  cpu time    0.1166: real time    0.1168
    SETDIJ:  cpu time    0.0238: real time    0.0239
     EDDAV:  cpu time  144.5162: real time  144.8582
    CHARGE:  cpu time    3.4510: real time    3.4592
    MIXING:  cpu time    0.0042: real time    0.0042
    --------------------------------------------
      LOOP:  cpu time  148.1119: real time  148.4623

 eigenvalue-minimisations  : 68640
 total energy-change (2. order) : 0.3211973E+01  (-0.3644672E+01)
 number of electron     512.0000001 magnetization      16.0683860
 augmentation part      218.9581693 magnetization      12.7522229

 Broyden mixing:
  rms(total) = 0.44977E+01    rms(broyden)= 0.44958E+01
  rms(prec ) = 0.67722E+01
  weight for this iteration     100.00

 eigenvalues of (default mixing * dielectric matrix)
  average eigenvalue GAMMA=   0.3994
  1.6790  0.6430  0.4346  0.3161  0.3161  0.1421  0.1421  0.1271  0.1082  0.0860

 Free energy of the ion-electron system (eV)
  ---------------------------------------------------
  alpha Z        PSCENC =      2187.67459796
  Ewald energy   TEWEN  =    -40625.92759878
  -Hartree energ DENC   =    -11234.61739752
  -exchange      EXHF   =         0.00000000
  -V(xc)+E(xc)   XCENC  =      1942.62664136
  PAW double counting   =     56689.76652520   -59024.83793081
  entropy T*S    EENTRO =        -0.07947033
  eigenvalues    EBANDS =      1455.80887915
  atomic energy  EATOM  =     48247.08154143
  Solvation  Ediel_sol  =         0.00000000
  ---------------------------------------------------
  free energy    TOTEN  =      -362.50421235 eV

  energy without entropy =     -362.42474201  energy(sigma->0) =     -362.46447718


--------------------------------------------------------------------------------------------------------




--------------------------------------- Iteration      1(  16)  ---------------------------------------


    POTLOK:  cpu time    0.1165: real time    0.1168
    SETDIJ:  cpu time    0.0237: real time    0.0238
     EDDAV:  cpu time  138.3528: real time  138.6800
    CHARGE:  cpu time    3.5013: real time    3.5096
    MIXING:  cpu time    0.0048: real time    0.0230
    --------------------------------------------
      LOOP:  cpu time  141.9991: real time  142.3532

 eigenvalue-minimisations  : 64912
 total energy-change (2. order) : 0.4407731E+01  (-0.1299892E+01)
 number of electron     512.0000010 magnetization      15.4872604
 augmentation part      218.9994157 magnetization      12.4577014

 Broyden mixing:
  rms(total) = 0.30232E+01    rms(broyden)= 0.30220E+01
  rms(prec ) = 0.44288E+01
  weight for this iteration     100.00

 eigenvalues of (default mixing * dielectric matrix)
  average eigenvalue GAMMA=   0.3848
  1.6556  0.5686  0.3935  0.3935  0.3147  0.3147  0.1392  0.1392  0.1212  0.0962
  0.0962

 Free energy of the ion-electron system (eV)
  ---------------------------------------------------
  alpha Z        PSCENC =      2187.67459796
  Ewald energy   TEWEN  =    -40625.92759878
  -Hartree energ DENC   =    -11236.91319530
  -exchange      EXHF   =         0.00000000
  -V(xc)+E(xc)   XCENC  =      1942.49490333
  PAW double counting   =     56645.37297717   -58978.22726978
  entropy T*S    EENTRO =        -0.07258061
  eigenvalues    EBANDS =      1460.42014358
  atomic energy  EATOM  =     48247.08154143
  Solvation  Ediel_sol  =         0.00000000
  ---------------------------------------------------
  free energy    TOTEN  =      -358.09648100 eV

  energy without entropy =     -358.02390040  energy(sigma->0) =     -358.06019070


--------------------------------------------------------------------------------------------------------




--------------------------------------- Iteration      1(  17)  ---------------------------------------


    POTLOK:  cpu time    0.1176: real time    0.1179
    SETDIJ:  cpu time    0.0239: real time    0.0239
     EDDAV:  cpu time  131.8827: real time  132.1947
    CHARGE:  cpu time    3.5126: real time    3.5210
    MIXING:  cpu time    0.0044: real time    0.0044
    --------------------------------------------
      LOOP:  cpu time  135.5412: real time  135.8618

 eigenvalue-minimisations  : 61088
 total energy-change (2. order) : 0.1082087E+01  (-0.5412762E+00)
 number of electron     512.0000016 magnetization      14.5542810
 augmentation part      218.9298315 magnetization      11.4569603

 Broyden mixing:
  rms(total) = 0.26388E+01    rms(broyden)= 0.26383E+01
  rms(prec ) = 0.39401E+01
  weight for this iteration     100.00

 eigenvalues of (default mixing * dielectric matrix)
  average eigenvalue GAMMA=   0.3921
  1.6071  0.5962  0.5962  0.5447  0.3009  0.3009  0.1997  0.1319  0.1319  0.1036
  0.1036  0.0881

 Free energy of the ion-electron system (eV)
  ---------------------------------------------------
  alpha Z        PSCENC =      2187.67459796
  Ewald energy   TEWEN  =    -40625.92759878
  -Hartree energ DENC   =    -11236.77558581
  -exchange      EXHF   =         0.00000000
  -V(xc)+E(xc)   XCENC  =      1942.42867793
  PAW double counting   =     56688.01567670   -59018.66356553
  entropy T*S    EENTRO =        -0.08199831
  eigenvalues    EBANDS =      1459.23386081
  atomic energy  EATOM  =     48247.08154143
  Solvation  Ediel_sol  =         0.00000000
  ---------------------------------------------------
  free energy    TOTEN  =      -357.01439359 eV

  energy without entropy =     -356.93239528  energy(sigma->0) =     -356.97339443


--------------------------------------------------------------------------------------------------------




--------------------------------------- Iteration      1(  18)  ---------------------------------------


    POTLOK:  cpu time    0.1158: real time    0.1161
    SETDIJ:  cpu time    0.0239: real time    0.0239
     EDDAV:  cpu time  140.0185: real time  140.3497
    CHARGE:  cpu time    3.5162: real time    3.5245
    MIXING:  cpu time    0.0046: real time    0.0046
    --------------------------------------------
      LOOP:  cpu time  143.6790: real time  144.0189

 eigenvalue-minimisations  : 65952
 total energy-change (2. order) : 0.1790577E+01  (-0.4247660E+00)
 number of electron     512.0000008 magnetization      13.7450087
 augmentation part      218.8653780 magnetization      10.8223587

 Broyden mixing:
  rms(total) = 0.19382E+01    rms(broyden)= 0.19373E+01
  rms(prec ) = 0.25973E+01
  weight for this iteration     100.00

 eigenvalues of (default mixing * dielectric matrix)
  average eigenvalue GAMMA=   0.4292
  1.6205  0.8300  0.8300  0.6163  0.3981  0.3009  0.3009  0.1368  0.1368  0.1166
  0.1036  0.1036  0.0852

 Free energy of the ion-electron system (eV)
  ---------------------------------------------------
  alpha Z        PSCENC =      2187.67459796
  Ewald energy   TEWEN  =    -40625.92759878
  -Hartree energ DENC   =    -11237.36757822
  -exchange      EXHF   =         0.00000000
  -V(xc)+E(xc)   XCENC  =      1942.34504480
  PAW double counting   =     56741.49840340   -59066.72904005
  entropy T*S    EENTRO =        -0.07575969
  eigenvalues    EBANDS =      1456.27657291
  atomic energy  EATOM  =     48247.08154143
  Solvation  Ediel_sol  =         0.00000000
  ---------------------------------------------------
  free energy    TOTEN  =      -355.22381624 eV

  energy without entropy =     -355.14805655  energy(sigma->0) =     -355.18593639


--------------------------------------------------------------------------------------------------------




--------------------------------------- Iteration      1(  19)  ---------------------------------------


    POTLOK:  cpu time    0.1159: real time    0.1162
    SETDIJ:  cpu time    0.0240: real time    0.0240
     EDDAV:  cpu time  141.1547: real time  141.4886
    CHARGE:  cpu time    3.5166: real time    3.5250
    MIXING:  cpu time    0.0048: real time    0.0048
    --------------------------------------------
      LOOP:  cpu time  144.8159: real time  145.1585

 eigenvalue-minimisations  : 66592
 total energy-change (2. order) :-0.1031624E+01  (-0.5176666E+00)
 number of electron     512.0000008 magnetization      12.5199259
 augmentation part      218.6857941 magnetization       9.6081188

 Broyden mixing:
  rms(total) = 0.23772E+01    rms(broyden)= 0.23761E+01
  rms(prec ) = 0.34284E+01
  weight for this iteration     100.00

 eigenvalues of (default mixing * dielectric matrix)
  average eigenvalue GAMMA=   0.4552
  1.6516  1.0935  1.0935  0.6726  0.4492  0.3013  0.3013  0.1371  0.1371  0.1283
  0.1283  0.0979  0.0979  0.0839

 Free energy of the ion-electron system (eV)
  ---------------------------------------------------
  alpha Z        PSCENC =      2187.67459796
  Ewald energy   TEWEN  =    -40625.92759878
  -Hartree energ DENC   =    -11239.54922912
  -exchange      EXHF   =         0.00000000
  -V(xc)+E(xc)   XCENC  =      1942.31767107
  PAW double counting   =     56788.22249109   -59108.67970932
  entropy T*S    EENTRO =        -0.08303892
  eigenvalues    EBANDS =      1452.68783390
  atomic energy  EATOM  =     48247.08154143
  Solvation  Ediel_sol  =         0.00000000
  ---------------------------------------------------
  free energy    TOTEN  =      -356.25544069 eV

  energy without entropy =     -356.17240177  energy(sigma->0) =     -356.21392123


--------------------------------------------------------------------------------------------------------




--------------------------------------- Iteration      1(  20)  ---------------------------------------


    POTLOK:  cpu time    0.1161: real time    0.1164
    SETDIJ:  cpu time    0.0239: real time    0.0240
     EDDAV:  cpu time  120.1388: real time  120.4246
    CHARGE:  cpu time    2.9136: real time    2.9220
    MIXING:  cpu time    0.0042: real time    0.0042
    --------------------------------------------
      LOOP:  cpu time  123.1966: real time  123.4911

 eigenvalue-minimisations  : 65776
 total energy-change (2. order) : 0.7201775E+00  (-0.4506089E+00)
 number of electron     512.0000023 magnetization      11.7363820
 augmentation part      218.6797817 magnetization       9.0488199

 Broyden mixing:
  rms(total) = 0.17739E+01    rms(broyden)= 0.17725E+01
  rms(prec ) = 0.26956E+01
  weight for this iteration     100.00

 eigenvalues of (default mixing * dielectric matrix)
  average eigenvalue GAMMA=   0.4784
  1.6427  1.3248  1.3248  0.6387  0.4811  0.3638  0.3026  0.3026  0.1369  0.1369
  0.1319  0.1056  0.1003  0.1003  0.0833

 Free energy of the ion-electron system (eV)
  ---------------------------------------------------
  alpha Z        PSCENC =      2187.67459796
  Ewald energy   TEWEN  =    -40625.92759878
  -Hartree energ DENC   =    -11243.60572374
  -exchange      EXHF   =         0.00000000
  -V(xc)+E(xc)   XCENC  =      1942.36027393
  PAW double counting   =     56852.62580448   -59165.23954654
  entropy T*S    EENTRO =        -0.07719164
  eigenvalues    EBANDS =      1449.57257973
  atomic energy  EATOM  =     48247.08154143
  Solvation  Ediel_sol  =         0.00000000
  ---------------------------------------------------
  free energy    TOTEN  =      -355.53526316 eV

  energy without entropy =     -355.45807152  energy(sigma->0) =     -355.49666734


--------------------------------------------------------------------------------------------------------




--------------------------------------- Iteration      1(  21)  ---------------------------------------


    POTLOK:  cpu time    0.0970: real time    0.0972
    SETDIJ:  cpu time    0.0210: real time    0.0211
     EDDAV:  cpu time  120.0709: real time  120.3618
    CHARGE:  cpu time    3.0107: real time    3.0178
    MIXING:  cpu time    0.0047: real time    0.0047
    --------------------------------------------
      LOOP:  cpu time  123.2042: real time  123.5025

 eigenvalue-minimisations  : 65984
 total energy-change (2. order) :-0.2701507E+00  (-0.4715949E+00)
 number of electron     512.0000006 magnetization       9.8553553
 augmentation part      218.5506701 magnetization       7.2312403

 Broyden mixing:
  rms(total) = 0.19114E+01    rms(broyden)= 0.19103E+01
  rms(prec ) = 0.30508E+01
  weight for this iteration     100.00

 eigenvalues of (default mixing * dielectric matrix)
  average eigenvalue GAMMA=   0.5001
  1.7012  1.5101  1.5101  0.6778  0.6778  0.4219  0.3040  0.3040  0.1366  0.1366
  0.1355  0.1115  0.1014  0.1014  0.0896  0.0826

 Free energy of the ion-electron system (eV)
  ---------------------------------------------------
  alpha Z        PSCENC =      2187.67459796
  Ewald energy   TEWEN  =    -40625.92759878
  -Hartree energ DENC   =    -11244.38505041
  -exchange      EXHF   =         0.00000000
  -V(xc)+E(xc)   XCENC  =      1942.42809751
  PAW double counting   =     56906.11818170   -59214.51989203
  entropy T*S    EENTRO =        -0.07958990
  eigenvalues    EBANDS =      1445.80429869
  atomic energy  EATOM  =     48247.08154143
  Solvation  Ediel_sol  =         0.00000000
  ---------------------------------------------------
  free energy    TOTEN  =      -355.80541382 eV

  energy without entropy =     -355.72582392  energy(sigma->0) =     -355.76561887


--------------------------------------------------------------------------------------------------------




--------------------------------------- Iteration      1(  22)  ---------------------------------------


    POTLOK:  cpu time    0.1058: real time    0.1061
    SETDIJ:  cpu time    0.0211: real time    0.0212
     EDDAV:  cpu time  122.8399: real time  123.1306
    CHARGE:  cpu time    2.9392: real time    2.9462
    MIXING:  cpu time    0.0045: real time    0.0045
    --------------------------------------------
      LOOP:  cpu time  125.9106: real time  126.2085

 eigenvalue-minimisations  : 67008
[...]
   -.188E+03 0.242E+03 -.370E+02   0.193E+03 -.247E+03 0.409E+02   -.353E+01 0.207E+01 -.134E+01   -.118E+00 0.458E-02 -.396E-01
   0.184E+03 -.176E+01 0.210E+03   -.230E+03 -.553E+01 -.216E+03   0.225E+01 0.401E+00 0.706E+01   -.129E+00 0.463E-01 -.768E-02
   -.168E+03 -.812E+02 -.148E+01   0.168E+03 0.831E+02 -.218E+01   0.524E+00 0.486E+00 0.381E+01   0.377E-01 0.784E-02 -.258E-01
   0.113E+03 -.105E+03 -.162E+03   -.114E+03 0.103E+03 0.163E+03   -.376E+01 0.225E+01 0.902E+00   0.547E-01 0.603E-01 0.157E-01
   0.518E+02 0.341E+03 -.110E+03   -.485E+02 -.353E+03 0.116E+03   -.372E+01 0.340E+01 -.282E+01   -.142E+00 0.182E-01 0.733E-01
   -.848E+02 -.367E+03 0.223E+03   0.863E+02 0.373E+03 -.225E+03   -.152E+01 0.187E+01 0.281E+01   -.230E+00 0.212E+00 -.416E-01
   0.155E+03 0.147E+03 -.348E+02   -.159E+03 -.149E+03 0.328E+02   -.202E+00 0.415E-01 0.160E+01   0.130E-01 -.105E-01 0.211E-01
   -.247E+03 -.697E+01 -.256E+03   0.256E+03 0.790E+01 0.262E+03   -.542E+01 -.213E+01 -.241E+01   0.117E+00 0.636E-01 0.234E-01
   -.122E+03 0.372E+02 0.304E+02   0.123E+03 -.381E+02 -.310E+02   0.760E+00 -.340E+01 0.165E+01   -.352E+00 -.164E-01 -.255E+00
   -.600E+01 0.183E+02 -.186E+02   0.324E+01 -.178E+02 0.205E+02   0.321E+01 -.654E+00 -.185E+01   -.157E+00 -.493E-01 -.242E-01
   -.793E+02 0.595E+02 0.889E+02   0.798E+02 -.598E+02 -.892E+02   -.421E+00 -.130E+01 -.503E+00   0.101E+00 -.404E-01 -.119E-01
   -.657E+02 -.203E+02 0.182E+03   0.629E+02 0.194E+02 -.183E+03   0.276E+01 0.154E+01 -.303E+00   0.322E-02 -.588E-01 -.561E-01
   -.324E+02 -.150E+03 -.375E+03   0.324E+02 0.156E+03 0.381E+03   0.476E+00 -.377E+01 0.219E+01   -.307E+00 0.712E-02 0.221E+00
   -.176E+03 -.170E+02 0.192E+03   0.177E+03 0.156E+02 -.193E+03   -.405E+00 0.274E+01 -.156E+01   -.249E+00 -.246E+00 -.145E-01
   0.193E+02 -.142E+03 0.190E+03   -.230E+02 0.143E+03 -.189E+03   0.295E+01 -.639E+00 -.161E+01   -.464E-02 0.181E-01 -.117E-01
   0.397E+02 0.763E+02 -.114E+03   -.436E+02 -.775E+02 0.119E+03   0.384E+01 0.285E+00 -.316E+01   0.162E-01 -.917E-01 0.622E-01
   0.440E+02 0.758E+02 -.110E+03   -.380E+02 -.896E+02 0.119E+03   -.677E+01 0.121E+02 -.663E+01   -.176E+00 0.519E-01 0.638E-02
   0.131E+02 0.900E+01 0.834E+02   -.121E+02 -.629E+01 -.973E+02   0.574E+00 -.165E+01 0.825E+01   -.256E-02 0.113E-01 0.543E-01
   -.625E+02 -.619E+02 -.471E+02   0.761E+02 0.646E+02 0.425E+02   -.891E+01 -.241E+01 0.660E+01   0.145E+00 0.802E-01 0.870E-01
   0.128E+03 -.813E+02 -.191E+02   -.137E+03 0.885E+02 0.157E+02   0.719E+01 -.757E+01 0.299E+01   0.109E+00 0.145E+00 -.651E-01
   -.219E+03 -.224E+02 -.123E+02   0.264E+03 0.184E+02 0.264E+02   -.174E+02 0.327E+01 -.650E+01   0.123E+00 0.447E+00 -.249E-01
   0.253E+02 0.123E+02 0.394E+02   -.280E+02 -.957E+01 -.443E+02   0.287E+01 -.263E+01 0.510E+01   0.552E-02 0.315E-01 -.520E-02
   0.277E+02 -.155E+01 0.841E+02   -.268E+02 0.706E+00 -.932E+02   -.133E+01 0.762E+00 0.769E+01   0.136E+00 0.122E+00 -.361E-01
   -.887E+02 0.264E+02 0.775E+02   0.104E+03 -.277E+02 -.809E+02   -.119E+02 0.969E+00 0.196E+01   0.876E-01 0.483E-01 0.180E-01
   0.453E+01 0.501E+02 -.926E+02   -.746E+01 -.583E+02 0.103E+03   0.249E+01 0.798E+01 -.106E+02   -.234E-01 -.479E-01 -.175E-01
   0.981E+02 -.590E+02 0.579E+02   -.105E+03 0.587E+02 -.618E+02   0.433E+01 0.149E+01 0.412E+01   -.278E-01 -.470E-02 -.339E+00
   0.123E+03 0.258E+03 -.173E+02   -.127E+03 -.291E+03 0.165E+02   0.233E+01 0.146E+02 0.737E+00   0.979E-01 -.775E-01 -.143E-01
   0.261E+02 0.162E+02 0.590E+02   -.266E+02 -.155E+02 -.631E+02   -.726E-01 -.564E+00 0.205E+01   0.132E+00 -.148E+00 0.106E-01
   0.300E+02 0.166E+02 0.756E+02   -.366E+02 -.158E+02 -.776E+02   0.583E+01 -.634E+00 0.559E+00   0.504E-01 -.427E+00 -.516E-01
   0.387E+02 -.511E+02 -.125E+03   -.444E+02 0.562E+02 0.132E+03   0.555E+01 -.522E+01 -.506E+01   -.110E+00 -.772E-01 0.396E+00
   -.459E+02 0.949E+01 -.214E+02   0.510E+02 -.792E+01 0.203E+02   -.497E+01 -.342E+00 0.122E+01   0.103E+00 -.135E+00 0.595E-01
   0.135E+03 -.833E+02 0.120E+02   -.145E+03 0.894E+02 -.121E+02   0.705E+01 -.482E+01 0.941E-02   0.559E+00 0.263E-02 -.322E-01
   -.416E+03 -.385E+02 0.214E+03   0.485E+03 0.474E+02 -.244E+03   -.225E+02 -.180E+01 0.170E+02   0.101E+00 0.420E-01 -.253E-01
   -.561E+02 0.556E+02 0.610E+02   0.566E+02 -.574E+02 -.678E+02   0.100E+00 0.938E+00 0.567E+01   -.537E-02 0.844E-02 -.429E-01
   -.318E+03 -.121E+03 -.223E+02   0.368E+03 0.130E+03 0.341E+02   -.230E+02 -.319E+01 -.126E+02   -.108E+00 0.946E-01 -.968E-01
   0.123E+02 0.110E+03 0.136E+00   -.118E+02 -.113E+03 -.453E+01   -.205E+01 0.708E+00 0.436E+01   -.129E+00 -.812E-02 -.261E-01
   0.317E+02 -.138E+03 0.162E+03   -.346E+02 0.144E+03 -.180E+03   0.339E+01 -.220E+01 0.158E+02   0.110E-01 0.477E-01 -.422E-02
   -.109E+03 -.133E+02 -.135E+02   0.116E+03 0.175E+02 0.189E+02   -.567E+01 -.437E+01 -.720E+01   0.492E-02 0.208E-01 0.192E-01
   -.557E+02 -.156E+03 -.259E+03   0.685E+02 0.174E+03 0.283E+03   -.855E+01 -.121E+02 -.169E+02   -.145E+00 0.690E-01 0.102E+00
   -.969E+02 0.188E+03 0.747E+02   0.110E+03 -.207E+03 -.832E+02   -.117E+02 0.126E+02 0.644E+01   -.704E-01 0.313E-01 0.220E-01
   -.584E+01 0.295E+02 0.262E+02   0.484E+01 -.342E+02 -.264E+02   0.108E+01 0.447E+01 0.156E+00   0.155E-01 -.457E-01 -.515E-02
   0.648E+01 0.116E+02 0.403E+02   -.139E+02 -.159E+02 -.389E+02   0.816E+01 0.455E+01 -.143E+01   0.285E-02 -.529E-02 -.108E-01
   -.655E+02 -.962E+02 -.367E+02   0.693E+02 0.108E+03 0.469E+02   -.252E+01 -.795E+01 -.741E+01   -.119E+00 -.642E-01 -.657E-01
   -.116E+02 -.773E+02 0.143E+03   0.116E+02 0.743E+02 -.163E+03   0.287E+00 0.415E+01 0.131E+02   -.124E+00 0.991E-02 -.696E-01
   0.165E+03 0.154E+03 -.639E+02   -.183E+03 -.165E+03 0.661E+02   0.166E+02 0.105E+02 -.170E+01   0.387E-02 -.547E-01 0.264E-02
   -.169E+02 -.669E+02 -.204E+03   0.161E+02 0.785E+02 0.216E+03   0.822E+00 -.108E+02 -.106E+02   0.684E-01 0.673E-04 0.457E-01
   0.257E+02 0.238E+02 -.996E+02   -.255E+02 -.262E+02 0.107E+03   -.175E+01 0.303E+01 -.804E+01   -.962E-01 -.514E-01 0.719E-01
   -.920E+02 0.488E+02 0.151E+03   0.973E+02 -.510E+02 -.161E+03   -.518E+01 0.881E+00 0.871E+01   -.440E+00 -.418E-01 -.214E-02
 -----------------------------------------------------------------------------------------------
   0.609E+02 -.158E+02 -.312E+02   -.142E-12 0.426E-12 -.256E-12   -.610E+02 0.158E+02 0.311E+02   0.121E+00 -.286E-02 0.614E-01
 
 
 POSITION                                       TOTAL-FORCE (eV/Angst)
 -----------------------------------------------------------------------------------
      0.13340      0.00516      8.06437        -3.610916     18.845326      0.454436
      0.18973      2.19531      1.84476        -1.178803     -0.787382      0.668857
      1.98146      7.99240      1.79054         1.643286     -0.620386      7.224472
      2.40942      1.98548      0.13403       -26.304252     -3.010408     -1.672755
      0.04822      8.02939      4.08269         0.030433      2.675042      0.533217
      0.25345      2.08970      5.92027       -27.850718     -0.540878     -6.870592
      2.33804      0.09154      6.31069        -1.275212     -0.577385     -1.863434
      2.44866      1.94541      3.97406        -9.964720      0.450340      1.244821
      8.13572      3.99955      8.19567         0.303485      0.011514      0.122514
      0.03803      6.26734      2.08128         0.119384     -0.564991     -0.286088
      1.98865      3.78347      2.17880         0.331713      3.889213     -0.925649
      1.85646      6.13265      0.23848         0.687525     -1.844936      0.444954
      8.16966      4.42857      4.14411         0.173751     -3.504302      1.428315
      8.07804      6.13831      6.16145         2.408038     -0.972495      0.472058
      2.03475      3.99714      6.12911         2.308661      0.607831      0.175659
      2.25718      6.34912      4.49656         0.390376     -1.168554     -0.710902
      3.76529      0.09225      8.00282         2.186198     -2.837619      2.513505
      4.47462      1.78840      2.38245       -43.771917     -6.842107      0.836258
      6.00033      7.90027      2.10027         0.473082      2.365870      0.126769
      6.21170      1.86553      7.96757        -4.400848     -0.009957      2.386152
      4.20006      0.32349      4.04147        -0.509731     -8.459673      2.770305
      3.98525      1.65201      6.53910        -0.278273      7.473809      0.638388
      6.53956      8.11960      6.18294        -4.293517     -1.849621     -0.336819
      6.14613      2.32707      3.79598         3.206882     -1.139215      3.136997
      3.84323      4.20916      0.00264         1.331921     -4.264303      0.811604
      4.01290      6.18808      2.18799         0.300012     -0.186029      0.058992
      6.15961      4.23459      2.05422         0.126238     -1.605205     -0.796966
      6.21931      6.05659      0.15876        -0.022252      0.573302     -1.480862
      4.06216      4.00247      3.75617         0.158648      2.457000      8.069977
      3.82118      6.18361      6.52352         0.511501      1.119767     -2.833778
      6.08151      3.69050      6.41270        -0.704098      0.621171     -0.721871
      6.19950      6.39928      3.98423        -0.085263     -0.921837      1.870084
      2.11943      2.06704      1.84628        -0.917650     -1.763614      2.383675
      1.85298      0.08835      0.22578         1.521215      1.062670     -5.572626
      7.85228      1.86722      8.17952         4.881252      0.376758      2.045876
      0.20907      0.10763      2.21740        -1.151329     -0.204024     -0.542862
      1.55373      2.08436      6.28616        27.256512     -0.261465      7.626999
      2.05046      0.00268      4.29713         0.143633      0.099459      0.161504
      0.08412      2.13730      4.09568        -0.275272      0.039750     -1.404808
      8.21080      0.20818      6.14611         3.684889     -0.327359     -1.405727
      2.10512      6.00219      2.19570        -0.463535     -0.246429     -0.254612
      2.00134      4.01343      0.24892        -2.136432      1.163102     -0.132011
      0.13537      6.80242      8.00378        -1.692154    -18.895502     -0.155861
      0.00205      4.19751      2.32053        -0.475612      0.046936     -2.060079
      1.89590      5.96261      6.59507        -0.643820     -0.243610     -1.504716
      2.14000      4.19818      3.94646        -0.289573     -0.172113      2.173680
      0.08758      6.18486      4.12303         0.217744      1.099204      0.258563
      0.24489      3.95603      6.20334        -1.999984      1.280549     -0.125463
      5.68694      1.98832      2.12368        47.096834      7.184646    -12.752457
      5.75935      0.02628      0.32065         0.540188     -0.770564     -1.235831
      3.75708      2.16827      0.10976        27.092622      5.426709     -0.868742
      3.98692      0.06471      1.83433        -1.704094     -2.068237     -0.062156
      6.30020      1.60380      6.29564         0.507274      3.246064     -2.934289
      6.01575      0.26136      4.21981         1.815949     -0.118321     -1.758447
      3.98751      1.90760      3.87087         4.093620      6.269434      7.281801
      4.44635      0.21308      6.04380         1.155479     -6.561620     -2.105204
      6.19612      6.10400      2.09294         0.100059     -0.256163     -0.080485
      6.11850      4.07187      0.10508         0.727408      0.302770     -0.086551
      4.28456      5.83873      8.18188         1.236148      3.529056      2.743373
      4.12620      3.88598      2.14244         0.165268      1.135135     -6.832751
      6.33767      6.23485      5.91522        -1.144545      0.238556      0.507986
      6.09428      4.13469      3.93442         0.168593      0.767226      0.820472
      4.34886      6.08485      4.28722        -1.626219      0.625002     -0.817769
      4.06187      4.24034      6.27869        -0.325081     -1.386905     -0.799101
 -----------------------------------------------------------------------------------
    total drift:                               -0.004283      0.009741      0.011401


--------------------------------------------------------------------------------------------------------



  FREE ENERGIE OF THE ION-ELECTRON SYSTEM (eV)
  ---------------------------------------------------
  free  energy   TOTEN  =      -355.1350423466 eV

  energy  without entropy=     -355.0709751830  energy(sigma->0) =     -355.10300876
 


--------------------------------------------------------------------------------------------------------


    POTLOK:  cpu time    0.1472: real time    0.1476


--------------------------------------------------------------------------------------------------------


     LOOP+:  cpu time12214.1312: real time12243.8663
    4ORBIT:  cpu time    0.0000: real time    0.0000

volume of typ            1:    36.7 %

volume of typ            2:     9.4 %
 
total charge     
 
# of ion       s       p       d       tot
------------------------------------------
    1        0.350   0.494   8.128   8.971
    2        0.199   0.212   8.007   8.417
    3        0.281   0.341   8.060   8.683
    4        0.393   0.539   8.205   9.137
    5        0.216   0.245   7.983   8.444
    6        0.391   0.539   8.133   9.063
    7        0.219   0.212   8.055   8.486
    8        0.262   0.308   8.123   8.693
    9        0.189   0.184   7.997   8.370
   10        0.196   0.204   8.014   8.414
   11        0.261   0.324   7.989   8.575
   12        0.232   0.253   8.017   8.502
   13        0.230   0.265   7.982   8.477
   14        0.234   0.257   8.022   8.513
   15        0.226   0.250   7.973   8.450
   16        0.194   0.194   7.981   8.368
   17        0.240   0.267   8.058   8.565
   18        0.495   0.753   8.328   9.576
   19        0.231   0.262   8.045   8.538
   20        0.289   0.354   8.028   8.671
   21        0.269   0.341   8.083   8.693
   22        0.307   0.343   8.115   8.765
   23        0.282   0.362   8.006   8.650
   24        0.232   0.269   8.062   8.563
   25        0.260   0.317   7.983   8.560
   26        0.192   0.193   7.988   8.373
   27        0.227   0.267   8.010   8.505
   28        0.197   0.207   7.993   8.398
   29        0.261   0.311   8.034   8.606
   30        0.234   0.268   7.976   8.478
   31        0.176   0.165   8.030   8.370
   32        0.226   0.265   7.972   8.463
   33        1.280   2.806   0.015   4.100
   34        1.275   2.853   0.022   4.150
   35        1.267   2.810   0.013   4.089
   36        1.273   2.758   0.008   4.039
   37        1.303   2.879   0.033   4.215
   38        1.267   2.762   0.008   4.037
   39        1.278   2.725   0.005   4.008
   40        1.278   2.802   0.013   4.094
   41        1.271   2.754   0.008   4.033
   42        1.277   2.766   0.009   4.051
   43        1.289   2.870   0.027   4.186
   44        1.271   2.762   0.009   4.042
   45        1.268   2.766   0.009   4.042
   46        1.271   2.759   0.008   4.038
   47        1.260   2.812   0.013   4.084
   48        1.272   2.782   0.010   4.063
   49        1.310   2.956   0.048   4.314
   50        1.277   2.745   0.007   4.029
   51        1.291   2.900   0.036   4.227
   52        1.284   2.759   0.009   4.052
   53        1.279   2.803   0.015   4.096
   54        1.280   2.749   0.008   4.037
   55        1.276   2.955   0.041   4.272
   56        1.282   2.789   0.016   4.087
   57        1.255   2.826   0.014   4.095
   58        1.266   2.766   0.008   4.040
   59        1.264   2.824   0.014   4.102
   60        1.281   2.796   0.014   4.090
   61        1.270   2.768   0.010   4.048
   62        1.267   2.777   0.010   4.054
   63        1.276   2.723   0.006   4.005
   64        1.270   2.739   0.006   4.015
--------------------------------------------------
tot          49.02   99.31  257.85  406.17
 
magnetization (x)
 
# of ion       s       p       d       tot
------------------------------------------
    1       -0.003  -0.002  -0.284  -0.289
    2       -0.004  -0.005  -0.436  -0.445
    3        0.001   0.002   0.027   0.030
    4        0.004   0.002   0.131   0.137
    5       -0.001   0.003   0.912   0.914
    6       -0.000   0.002   0.157   0.159
    7       -0.001  -0.002   0.920   0.917
    8       -0.002  -0.004  -0.335  -0.341
    9        0.000  -0.000   1.065   1.064
   10       -0.000  -0.000  -0.974  -0.974
   11        0.001   0.000   0.040   0.041
   12        0.000  -0.003  -0.591  -0.593
   13        0.001  -0.002  -0.984  -0.985
   14        0.003   0.000   0.163   0.166
   15        0.002   0.002  -0.030  -0.025
   16       -0.000  -0.000   1.108   1.107
   17       -0.000  -0.001   0.728   0.727
   18       -0.003  -0.003  -0.039  -0.045
   19        0.001   0.003   0.336   0.340
   20        0.001   0.015   0.538   0.554
   21       -0.000  -0.004  -0.431  -0.435
   22        0.010   0.008   0.494   0.511
   23        0.001   0.001  -0.198  -0.196
   24        0.000   0.001   0.437   0.438
   25       -0.000  -0.003  -0.729  -0.733
   26        0.001   0.003   1.156   1.160
   27        0.000  -0.000  -0.521  -0.521
   28       -0.000   0.003   1.026   1.029
   29        0.002   0.007   0.816   0.825
   30        0.005   0.010   1.047   1.062
   31       -0.003   0.002   0.968   0.967
   32       -0.001   0.003  -0.907  -0.906
   33       -0.002  -0.047  -0.000  -0.049
   34        0.002   0.020  -0.000   0.022
   35        0.005   0.067   0.000   0.072
   36       -0.000   0.016  -0.000   0.016
   37        0.001   0.052   0.000   0.053
   38        0.005   0.111   0.000   0.117
   39        0.001   0.042   0.000   0.043
   40       -0.003  -0.011  -0.000  -0.014
   41        0.001   0.044   0.000   0.045
   42       -0.003  -0.056  -0.000  -0.059
   43       -0.003  -0.061  -0.000  -0.065
   44       -0.008  -0.062  -0.000  -0.070
   45        0.004   0.093  -0.000   0.097
   46        0.002   0.013   0.000   0.015
   47       -0.002  -0.026  -0.000  -0.028
   48        0.003   0.031  -0.000   0.033
   49        0.001   0.005  -0.000   0.006
   50        0.006   0.100   0.000   0.106
   51        0.002   0.069   0.000   0.071
   52        0.003   0.066   0.000   0.069
   53        0.004   0.092  -0.000   0.095
   54       -0.004  -0.058  -0.000  -0.061
   55        0.001  -0.031  -0.000  -0.031
   56        0.004   0.120   0.000   0.124
   57        0.001   0.006  -0.000   0.006
   58        0.006   0.115  -0.000   0.121
   59        0.008   0.100  -0.000   0.108
   60        0.004   0.079   0.000   0.083
   61       -0.002   0.006  -0.000   0.004
   62       -0.003  -0.017  -0.000  -0.020
   63        0.004   0.135  -0.000   0.139
   64        0.002   0.067   0.000   0.070
--------------------------------------------------
tot           0.05    1.11    5.61    6.78
 

 total amount of memory used by VASP MPI-rank0   479564. kBytes
=======================================================================

   base      :      30000. kBytes
   nonlr-proj:      36132. kBytes
   fftplans  :       4751. kBytes
   grid      :      26734. kBytes
   one-center:       1990. kBytes
   wavefun   :     379957. kBytes
 
  
  
 General timing and accounting informations for this job:
 ========================================================
  
                  Total CPU time used (sec):    12305.134
                            User time (sec):    12292.222
                          System time (sec):       12.911
                         Elapsed time (sec):    12338.782
  
                   Maximum memory used (kb):      609476.
                   Average memory used (kb):           0.
  
                          Minor page faults:        44594
                          Major page faults:           65
                 Voluntary context switches:         1282
