 vasp.5.4.4.18Apr17-6-g9f103f2a35 (build May 12 2020 04:58:55) complex          
  
 MD_VERSION_INFO: Compiled 2020-05-12T11:58:55-UTC in devlin.sd.materialsdesign.
 com:/home/medea2/data/build/wwolf/vasp-gpu5.4.4/13047/x86_64/src/src/build/std 
 from svn 13047
 
 This VASP executable licensed from Materials Design, Inc.
 
 executed on                        Lin64 date 2023.03.23  18:16:46
 running on   16 total cores
 distrk:  each k-point on   16 cores,    1 groups
 distr:  one band on NCORES_PER_BAND=   1 cores,   16 groups


--------------------------------------------------------------------------------------------------------


 INCAR:
 POTCAR:    PAW_PBE Ni 02Aug2007                  
 POTCAR:    PAW_PBE O 08Apr2002                   

 ----------------------------------------------------------------------------- 
|                                                                             |
|           W    W    AA    RRRRR   N    N  II  N    N   GGGG   !!!           |
|           W    W   A  A   R    R  NN   N  II  NN   N  G    G  !!!           |
|           W    W  A    A  R    R  N N  N  II  N N  N  G       !!!           |
|           W WW W  AAAAAA  RRRRR   N  N N  II  N  N N  G  GGG   !            |
|           WW  WW  A    A  R   R   N   NN  II  N   NN  G    G                |
|           W    W  A    A  R    R  N    N  II  N    N   GGGG   !!!           |
|                                                                             |
|      For optimal performance we recommend to set                            |
|        NCORE= 4 - approx SQRT( number of cores)                             |
|      NCORE specifies how many cores store one orbital (NPAR=cpu/NCORE).     |
|      This setting can  greatly improve the performance of VASP for DFT.     |
|      The default,   NCORE=1            might be grossly inefficient         |
|      on modern multi-core architectures or massively parallel machines.     |
|      Do your own testing !!!!                                               |
|      Unfortunately you need to use the default for GW and RPA calculations. |
|      (for HF NCORE is supported but not extensively tested yet)             |
|                                                                             |
 ----------------------------------------------------------------------------- 

 POTCAR:    PAW_PBE Ni 02Aug2007                  
  local pseudopotential read in
  partial core-charges read in
  partial kinetic energy density read in
  atomic valenz-charges read in
  non local Contribution for L=           2  read in
    real space projection operators read in
  non local Contribution for L=           2  read in
    real space projection operators read in
  non local Contribution for L=           0  read in
    real space projection operators read in
  non local Contribution for L=           0  read in
    real space projection operators read in
  non local Contribution for L=           1  read in
    real space projection operators read in
  non local Contribution for L=           1  read in
    real space projection operators read in
    PAW grid and wavefunctions read in
 
   number of l-projection  operators is LMAX  =           6
   number of lm-projection operators is LMMAX =          18
 
 POTCAR:    PAW_PBE O 08Apr2002                   
  local pseudopotential read in
  partial core-charges read in
  partial kinetic energy density read in
  kinetic energy density of atom read in
  atomic valenz-charges read in
  non local Contribution for L=           0  read in
    real space projection operators read in
  non local Contribution for L=           0  read in
    real space projection operators read in
  non local Contribution for L=           1  read in
    real space projection operators read in
  non local Contribution for L=           1  read in
    real space projection operators read in
    PAW grid and wavefunctions read in
 
   number of l-projection  operators is LMAX  =           4
   number of lm-projection operators is LMMAX =           8
 
 Optimization of the real space projectors (new method)

 maximal supplied QI-value         = 16.25
 optimisation between [QCUT,QGAM] = [ 11.38, 22.75] = [ 36.24,144.96] Ry 
 Optimized for a Real-space Cutoff    1.47 Angstroem

   l    n(q)    QCUT    max X(q) W(low)/X(q) W(high)/X(q)  e(spline) 
   2      9    11.376    60.317    0.17E-03    0.16E-04    0.16E-06
   2      9    11.376    55.921    0.17E-03    0.16E-04    0.17E-06
   0     10    11.376    51.690    0.45E-04    0.60E-04    0.21E-06
   0     10    11.376    30.015    0.37E-04    0.55E-04    0.19E-06
   1     10    11.376    18.849    0.83E-04    0.11E-03    0.92E-07
   1     10    11.376    14.624    0.69E-04    0.92E-04    0.82E-07
 Optimization of the real space projectors (new method)

 maximal supplied QI-value         = 24.76
 optimisation between [QCUT,QGAM] = [ 11.39, 22.77] = [ 36.31,145.25] Ry 
 Optimized for a Real-space Cutoff    1.10 Angstroem

   l    n(q)    QCUT    max X(q) W(low)/X(q) W(high)/X(q)  e(spline) 
   0      7    11.387    20.381    0.22E-03    0.48E-03    0.18E-06
   0      7    11.387    15.268    0.22E-03    0.52E-03    0.19E-06
   1      7    11.387     5.964    0.22E-03    0.73E-03    0.24E-06
   1      7    11.387     5.382    0.19E-03    0.60E-03    0.21E-06

 ----------------------------------------------------------------------------- 
|                                                                             |
|  ADVICE TO THIS USER RUNNING 'VASP/VAMP'   (HEAR YOUR MASTER'S VOICE ...):  |
|                                                                             |
|      You enforced a specific xc-type in the INCAR file,                     |
|      a different type was found on the POTCAR file                          |
|          I HOPE YOU KNOW, WHAT YOU ARE  DOING                               |
|                                                                             |
 ----------------------------------------------------------------------------- 

  PAW_PBE Ni 02Aug2007                  :
 energy of atom  1       EATOM=-1077.6739
 kinetic energy error for atom=    0.0030 (will be added to EATOM!!)
  PAW_PBE O 08Apr2002                   :
 energy of atom  2       EATOM= -432.3788
 kinetic energy error for atom=    0.0224 (will be added to EATOM!!)
 
 
 POSCAR: NiO_Fm-3m_scale_1_000_disp_0_20_round_1 
  positions in direct lattice
  No initial velocities read in
 exchange correlation table for  LEXCH =       14
   RHO(1)=    0.500       N(1)  =     2000
   RHO(2)=  100.500       N(2)  =     4000
 


--------------------------------------------------------------------------------------------------------


 ion  position               nearest neighbor table
   1  0.005  0.992  0.986-  34 1.81  40 1.86  43 2.03  50 2.10  35 2.11  36 2.46   4 2.50  12 2.74
                            23 2.75  14 2.89   2 2.92   6 2.97  10 3.03  28 3.05
   2  0.990  0.235  0.244-  36 1.69  35 1.91  44 2.03  33 2.14  39 2.20  49 2.24   4 2.69  27 2.82
                             1 2.92   8 2.94   3 2.97  11 2.99  24 3.00
   3  0.275  0.014  0.256-  33 1.75  38 1.94  36 2.01  52 2.12  41 2.23  18 2.26  34 2.34  21 2.38
                            17 2.53  16 2.62   4 2.67   8 2.73  12 2.91   2 2.97  26 3.02   5 3.05
   4  0.214  0.212  0.006-  34 1.46  35 1.68  33 2.05  51 2.41  37 2.43   1 2.50   3 2.67   2 2.69
                             7 2.77  17 2.79  15 2.89  18 2.96   6 2.97   9 3.06
   5  0.022  0.980  0.524-  47 1.86  40 1.98  38 2.00  36 2.06  39 2.22  54 2.34  16 2.60  14 2.73
                             8 2.75   7 2.86   6 2.90  10 2.94   3 3.05  24 3.08
   6  0.975  0.254  0.740-  39 1.91  53 1.94  40 2.06  48 2.11  35 2.27  37 2.38  24 2.45  31 2.53
                            20 2.60  15 2.72  23 2.86   5 2.90   8 2.92   4 2.97   1 2.97   9 2.98
   7  0.298  0.047  0.725-  56 1.55  37 1.86  38 1.96  34 2.17  22 2.18  21 2.32  45 2.43   8 2.45
                             4 2.77   5 2.86  17 2.91  30 2.91  16 3.04
   8  0.238  0.234  0.501-  38 1.75  37 1.84  39 1.87  33 2.05  55 2.09  46 2.10  21 2.44   7 2.45
                            22 2.60  18 2.71   3 2.73   5 2.75  15 2.85   6 2.92   2 2.94  29 3.08
   9  0.001  0.517  0.988-  48 1.88  43 1.88  44 1.93  42 2.18  35 2.24  58 2.37  31 2.58  12 2.61
                            14 2.66  15 2.69  11 2.71  28 2.74  10 2.89  20 2.98   6 2.98  27 3.02
  10  0.999  0.743  0.257-  57 1.91  41 2.03  43 2.12  47 2.14  44 2.18  36 2.44  11 2.47  12 2.57
                            13 2.68  16 2.80   9 2.89  19 2.93   5 2.94  28 2.99   1 3.03  27 3.03
  11  0.207  0.528  0.245-  41 1.80  42 1.88  44 1.89  46 1.91  12 2.45  10 2.47  33 2.51  29 2.63
                             9 2.71  16 2.82  13 2.84  26 2.99   2 2.99
  12  0.220  0.742  0.038-  43 1.68  41 1.73  42 1.77  59 2.14  45 2.15  11 2.45  34 2.48  10 2.57
                             9 2.61   1 2.74   3 2.91  26 2.91  14 2.99  17 2.99  30 3.02
  13  0.981  0.532  0.506-  47 1.84  46 1.97  48 2.11  62 2.17  39 2.34  44 2.39  31 2.48  14 2.59
                            10 2.68  11 2.84  27 2.91  24 2.93  15 2.98   6 2.99  16 3.08
  14  0.002  0.733  0.747-  48 1.86  47 1.89  43 2.09  45 2.21  40 2.24  61 2.27  31 2.48  13 2.59
                             9 2.66   5 2.73   1 2.89  15 2.91  28 2.96  12 2.99
  15  0.230  0.464  0.761-  37 1.65  48 1.84  64 2.09  42 2.24  46 2.37  45 2.44  22 2.67   9 2.69
                             6 2.72   8 2.85  30 2.86   4 2.89  14 2.91  13 2.98
  16  0.261  0.780  0.471-  41 1.87  63 1.92  38 2.00  47 2.23  46 2.44  21 2.56   5 2.60   3 2.62
                            26 2.79  29 2.79  10 2.80  11 2.82  30 2.84   7 3.04  13 3.08
  17  0.478  0.999  0.026-  51 1.76  52 1.93  59 2.14  34 2.17  56 2.29  50 2.29   3 2.53  18 2.63
                            19 2.72   4 2.79  26 2.85  23 2.90   7 2.91  12 2.99
  18  0.466  0.212  0.264-  51 1.78  33 1.78  52 1.96  55 2.00  49 2.09   3 2.26  21 2.39  60 2.51
                            17 2.63   8 2.71  29 2.84  19 2.91   4 2.96
  19  0.724  0.970  0.244-  52 1.60  50 1.85  57 1.99  49 2.04  54 2.28  32 2.58  26 2.65  17 2.72
                            28 2.83  18 2.91  10 2.93  21 3.05
  20  0.744  0.264  0.955-  53 1.55  58 1.74  51 2.17  35 2.26  49 2.33  23 2.54   6 2.60  25 2.63
                            31 2.68   9 2.98  27 2.98  22 2.99
  21  0.450  0.027  0.487-  38 1.57  55 1.97  63 1.98  52 2.06  56 2.17   7 2.32   3 2.38  18 2.39
                            54 2.41   8 2.44  16 2.56  22 2.63  32 2.69  19 3.05
  22  0.470  0.249  0.717-  37 1.70  55 1.79  56 1.88  64 2.15   7 2.18  53 2.28   8 2.60  21 2.63
                            15 2.67  24 2.87  20 2.99  23 3.03
  23  0.737  0.005  0.787-  53 1.93  50 1.97  40 2.03  56 2.11  61 2.13  54 2.19  20 2.54   1 2.75
                            28 2.86   6 2.86  17 2.90  24 2.93  22 3.03
  24  0.764  0.251  0.529-  62 1.87  53 1.98  39 2.04  54 2.24  55 2.26   6 2.45  49 2.47  31 2.78
                            22 2.87  13 2.93  23 2.93  27 2.96   2 3.00   5 3.08
  25  0.523  0.490  0.011-  58 1.61  60 1.96  59 2.08  42 2.16  51 2.33  64 2.44  20 2.63  28 2.68
                            27 2.68  26 2.76  30 2.94
  26  0.508  0.731  0.244-  60 1.91  59 1.94  52 2.08  63 2.11  57 2.12  41 2.17  29 2.32  32 2.38
                            19 2.65  25 2.76  28 2.79  16 2.79  17 2.85  27 2.86  12 2.91  11 2.99
  27  0.745  0.476  0.249-  60 1.59  44 1.97  62 2.02  57 2.11  49 2.14  58 2.20  25 2.68  29 2.70
                             2 2.82  26 2.86  13 2.91  28 2.93  24 2.96  20 2.98   9 3.02  10 3.03
  28  0.743  0.729  0.999-  61 1.79  50 1.91  57 2.03  58 2.13  59 2.17  43 2.27  25 2.68   9 2.74
                            26 2.79  31 2.80  19 2.83  23 2.86  27 2.93  14 2.96  10 2.99   1 3.05
  29  0.472  0.517  0.425-  60 1.62  46 2.16  62 2.19  55 2.19  63 2.32  26 2.32  64 2.41  11 2.63
                            27 2.70  32 2.70  16 2.79  18 2.84   8 3.08
  30  0.454  0.730  0.755-  45 1.56  64 1.84  59 2.11  63 2.23  61 2.27  56 2.42  32 2.84  16 2.84
                            15 2.86   7 2.91  25 2.94  12 3.02
  31  0.801  0.508  0.747-  48 1.73  61 2.07  58 2.09  62 2.19  53 2.27  13 2.48  14 2.48   6 2.53
                             9 2.58  20 2.68  24 2.78  28 2.80
  32  0.663  0.778  0.484-  63 1.40  54 1.80  57 2.19  26 2.38  61 2.52  19 2.58  21 2.69  29 2.70
                            30 2.84
  33  0.250  0.225  0.253-   3 1.75  18 1.78   4 2.05   8 2.05   2 2.14  11 2.51
  34  0.221  0.038  0.977-   4 1.46   1 1.81   7 2.17  17 2.17   3 2.34  12 2.48
  35  0.013  0.246  0.013-   4 1.68   2 1.91   1 2.11   9 2.24  20 2.26   6 2.27
  36  0.033  0.038  0.281-   2 1.69   3 2.01   5 2.06  10 2.44   1 2.46
  37  0.263  0.271  0.721-  15 1.65  22 1.70   8 1.84   7 1.86   6 2.38   4 2.43
  38  0.259  0.023  0.491-  21 1.57   8 1.75   3 1.94   7 1.96   5 2.00  16 2.00
  39  0.011  0.249  0.510-   8 1.87   6 1.91  24 2.04   2 2.20   5 2.22  13 2.34
  40  0.983  0.005  0.761-   1 1.86   5 1.98  23 2.03   6 2.06  14 2.24
  41  0.245  0.744  0.247-  12 1.73  11 1.80  16 1.87  10 2.03  26 2.17   3 2.23
  42  0.264  0.532  0.023-  12 1.77  11 1.88  25 2.16   9 2.18  15 2.24
  43  0.019  0.745  1.000-  12 1.68   9 1.88   1 2.03  14 2.09  10 2.12  28 2.27
  44  0.984  0.482  0.220-  11 1.89   9 1.93  27 1.97   2 2.03  10 2.18  13 2.39
  45  0.268  0.758  0.780-  30 1.56  12 2.15  14 2.21   7 2.43  15 2.44
  46  0.215  0.487  0.474-  11 1.91  13 1.97   8 2.10  29 2.16  15 2.37  16 2.44
  47  0.995  0.755  0.518-  13 1.84   5 1.86  14 1.89  10 2.14  16 2.23
  48  0.011  0.508  0.760-  31 1.73  15 1.84  14 1.86   9 1.88  13 2.11   6 2.11
  49  0.718  0.218  0.234-  19 2.04  18 2.09  27 2.14   2 2.24  20 2.33  24 2.47
  50  0.754  0.960  0.021-  19 1.85  28 1.91  23 1.97   1 2.10  17 2.29
  51  0.504  0.210  0.051-  17 1.76  18 1.78  20 2.17  25 2.33   4 2.41
  52  0.531  0.983  0.254-  19 1.60  17 1.93  18 1.96  21 2.06  26 2.08   3 2.12
  53  0.742  0.239  0.769-  20 1.55  23 1.93   6 1.94  24 1.98  31 2.27  22 2.28
  54  0.737  0.980  0.521-  32 1.80  23 2.19  24 2.24  19 2.28   5 2.34  21 2.41
  55  0.491  0.263  0.501-  22 1.79  21 1.97  18 2.00   8 2.09  29 2.19  24 2.26
  56  0.484  0.023  0.749-   7 1.55  22 1.88  23 2.11  21 2.17  17 2.29  30 2.42
  57  0.767  0.731  0.244-  10 1.91  19 1.99  28 2.03  27 2.11  26 2.12  32 2.19
  58  0.717  0.472  0.983-  25 1.61  20 1.74  31 2.09  28 2.13  27 2.20   9 2.37
  59  0.479  0.739  0.010-  26 1.94  25 2.08  30 2.11  17 2.14  12 2.14  28 2.17
  60  0.553  0.504  0.246-  27 1.59  29 1.62  26 1.91  25 1.96  18 2.51
  61  0.728  0.746  0.782-  28 1.79  31 2.07  23 2.13  30 2.27  14 2.27  32 2.52
  62  0.725  0.473  0.493-  24 1.87  27 2.02  13 2.17  29 2.19  31 2.19
  63  0.493  0.790  0.493-  32 1.40  16 1.92  21 1.98  26 2.11  30 2.23  29 2.32
  64  0.476  0.510  0.718-  30 1.84  15 2.09  22 2.15  29 2.41  25 2.44
 
  LATTYP: Found a simple cubic cell.
 ALAT       =     8.2198900000
  
  Lattice vectors:
  
 A1 = (   8.2198900000,   0.0000000000,   0.0000000000)
 A2 = (   0.0000000000,   8.2198900000,   0.0000000000)
 A3 = (   0.0000000000,   0.0000000000,   8.2198900000)


Analysis of symmetry for initial positions (statically):
=====================================================================
 Subroutine PRICEL returns:
 Original cell was already a primitive cell.
 

 Routine SETGRP: Setting up the symmetry group for a 
 simple cubic supercell.


 Subroutine GETGRP returns: Found  1 space group operations
 (whereof  1 operations were pure point group operations)
 out of a pool of 48 trial point group operations.


The static configuration has the point symmetry C_1 .


Analysis of symmetry for dynamics (positions and initial velocities):
=====================================================================
 Subroutine PRICEL returns:
 Original cell was already a primitive cell.
 

 Routine SETGRP: Setting up the symmetry group for a 
 simple cubic supercell.


 Subroutine GETGRP returns: Found  1 space group operations
 (whereof  1 operations were pure point group operations)
 out of a pool of 48 trial point group operations.


The dynamic configuration has the point symmetry C_1 .


Analysis of structural, dynamic, and magnetic symmetry:
=====================================================================
 Subroutine PRICEL returns:
 Original cell was already a primitive cell.
 

 Routine SETGRP: Setting up the symmetry group for a 
 simple cubic supercell.


 Subroutine GETGRP returns: Found  1 space group operations
 (whereof  1 operations were pure point group operations)
 out of a pool of 48 trial point group operations.


The magnetic configuration has the point symmetry C_1 .


 Subroutine INISYM returns: Found  1 space group operations
 (whereof  1 operations are pure point group operations),
 and found     1 'primitive' translations

 
 
 KPOINTS: Automatic mesh                          

Automatic generation of k-mesh.
Space group operators:
 irot       det(A)        alpha          n_x          n_y          n_z        tau_x        tau_y        tau_z
    1     1.000000     0.000000     1.000000     0.000000     0.000000     0.000000     0.000000     0.000000
 
 Subroutine IBZKPT returns following result:
 ===========================================
 
 Found     36 irreducible k-points:
 
 Following reciprocal coordinates:
            Coordinates               Weight
  0.000000  0.000000  0.000000      1.000000
  0.250000  0.000000  0.000000      2.000000
  0.500000  0.000000  0.000000      1.000000
  0.000000  0.250000  0.000000      2.000000
  0.250000  0.250000  0.000000      2.000000
  0.500000  0.250000  0.000000      2.000000
 -0.250000  0.250000  0.000000      2.000000
  0.000000  0.500000  0.000000      1.000000
  0.250000  0.500000  0.000000      2.000000
  0.500000  0.500000  0.000000      1.000000
  0.000000  0.000000  0.250000      2.000000
  0.250000  0.000000  0.250000      2.000000
  0.500000  0.000000  0.250000      2.000000
 -0.250000  0.000000  0.250000      2.000000
  0.000000  0.250000  0.250000      2.000000
  0.250000  0.250000  0.250000      2.000000
  0.500000  0.250000  0.250000      2.000000
 -0.250000  0.250000  0.250000      2.000000
  0.000000  0.500000  0.250000      2.000000
  0.250000  0.500000  0.250000      2.000000
  0.500000  0.500000  0.250000      2.000000
 -0.250000  0.500000  0.250000      2.000000
  0.000000 -0.250000  0.250000      2.000000
  0.250000 -0.250000  0.250000      2.000000
  0.500000 -0.250000  0.250000      2.000000
 -0.250000 -0.250000  0.250000      2.000000
  0.000000  0.000000  0.500000      1.000000
  0.250000  0.000000  0.500000      2.000000
  0.500000  0.000000  0.500000      1.000000
  0.000000  0.250000  0.500000      2.000000
  0.250000  0.250000  0.500000      2.000000
  0.500000  0.250000  0.500000      2.000000
 -0.250000  0.250000  0.500000      2.000000
  0.000000  0.500000  0.500000      1.000000
  0.250000  0.500000  0.500000      2.000000
  0.500000  0.500000  0.500000      1.000000
 
 Following cartesian coordinates:
            Coordinates               Weight
  0.000000  0.000000  0.000000      1.000000
  0.030414  0.000000  0.000000      2.000000
  0.060828  0.000000  0.000000      1.000000
  0.000000  0.030414  0.000000      2.000000
  0.030414  0.030414  0.000000      2.000000
  0.060828  0.030414  0.000000      2.000000
 -0.030414  0.030414  0.000000      2.000000
  0.000000  0.060828  0.000000      1.000000
  0.030414  0.060828  0.000000      2.000000
  0.060828  0.060828  0.000000      1.000000
  0.000000  0.000000  0.030414      2.000000
  0.030414  0.000000  0.030414      2.000000
  0.060828  0.000000  0.030414      2.000000
 -0.030414  0.000000  0.030414      2.000000
  0.000000  0.030414  0.030414      2.000000
  0.030414  0.030414  0.030414      2.000000
  0.060828  0.030414  0.030414      2.000000
 -0.030414  0.030414  0.030414      2.000000
  0.000000  0.060828  0.030414      2.000000
  0.030414  0.060828  0.030414      2.000000
  0.060828  0.060828  0.030414      2.000000
 -0.030414  0.060828  0.030414      2.000000
  0.000000 -0.030414  0.030414      2.000000
  0.030414 -0.030414  0.030414      2.000000
  0.060828 -0.030414  0.030414      2.000000
 -0.030414 -0.030414  0.030414      2.000000
  0.000000  0.000000  0.060828      1.000000
  0.030414  0.000000  0.060828      2.000000
  0.060828  0.000000  0.060828      1.000000
  0.000000  0.030414  0.060828      2.000000
  0.030414  0.030414  0.060828      2.000000
  0.060828  0.030414  0.060828      2.000000
 -0.030414  0.030414  0.060828      2.000000
  0.000000  0.060828  0.060828      1.000000
  0.030414  0.060828  0.060828      2.000000
  0.060828  0.060828  0.060828      1.000000
 


--------------------------------------------------------------------------------------------------------




 Dimension of arrays:
   k-points           NKPTS =     36   k-points in BZ     NKDIM =     36   number of bands    NBANDS=    352
   number of dos      NEDOS =    301   number of ions     NIONS =     64
   non local maximal  LDIM  =      6   non local SUM 2l+1 LMDIM =     18
   total plane-waves  NPLWV = 216000
   max r-space proj   IRMAX =   5271   max aug-charges    IRDMAX=  12805
   dimension x,y,z NGX =    60 NGY =   60 NGZ =   60
   dimension x,y,z NGXF=   120 NGYF=  120 NGZF=  120
   support grid    NGXF=   120 NGYF=  120 NGZF=  120
   ions per type =              32  32
   NGX,Y,Z   is equivalent  to a cutoff of  12.13, 12.13, 12.13 a.u.
   NGXF,Y,Z  is equivalent  to a cutoff of  24.27, 24.27, 24.27 a.u.

 SYSTEM =  unknown system                          
 POSCAR =  NiO_Fm-3m_scale_1_000_disp_0_20_round_1 

 Startparameter for this run:
   NWRITE =      1    write-flag & timer
   PREC   = accura    normal or accurate (medium, high low for compatibility)
   ISTART =      0    job   : 0-new  1-cont  2-samecut
   ICHARG =      2    charge: 1-file 2-atom 10-const
   ISPIN  =      2    spin polarized calculation?
   LNONCOLLINEAR =      F non collinear calculations
   LSORBIT =      F    spin-orbit coupling
   INIWAV =      1    electr: 0-lowe 1-rand  2-diag
   LASPH  =      F    aspherical Exc in radial PAW
   METAGGA=      F    non-selfconsistent MetaGGA calc.

 Electronic Relaxation 1
   ENCUT  =  500.0 eV  36.75 Ry    6.06 a.u.  14.99 14.99 14.99*2*pi/ulx,y,z
   ENINI  =  500.0     initial cutoff
   ENAUG  =  605.4 eV  augmentation charge cutoff
   NELM   =     80;   NELMIN=  2; NELMDL= -5     # of ELM steps 
   EDIFF  = 0.1E-04   stopping-criterion for ELM
   LREAL  =      T    real-space projection
   NLSPLINE    = F    spline interpolate recip. space projectors
   LCOMPAT=      F    compatible to vasp.4.4
   GGA_COMPAT  = T    GGA compatible to vasp.4.4-vasp.4.6
   LMAXPAW     = -100 max onsite density
   LMAXMIX     =    2 max onsite mixed and CHGCAR
   VOSKOWN=      1    Vosko Wilk Nusair interpolation
   ROPT   =   -0.00025  -0.00025
 Ionic relaxation
   EDIFFG = 0.1E-03   stopping-criterion for IOM
   NSW    =      0    number of steps for IOM
   NBLOCK =      1;   KBLOCK =      1    inner block; outer block 
   IBRION =     -1    ionic relax: 0-MD 1-quasi-New 2-CG
   NFREE  =      0    steps in history (QN), initial steepest desc. (CG)
   ISIF   =      2    stress and relaxation
   IWAVPR =     10    prediction:  0-non 1-charg 2-wave 3-comb
   ISYM   =      2    0-nonsym 1-usesym 2-fastsym
   LCORR  =      T    Harris-Foulkes like correction to forces

   POTIM  = 0.5000    time-step for ionic-motion
   TEIN   =    0.0    initial temperature
   TEBEG  =    0.0;   TEEND  =   0.0 temperature during run
   SMASS  =  -3.00    Nose mass-parameter (am)
   estimated Nose-frequenzy (Omega)   =  0.10E-29 period in steps =****** mass=  -0.154E-26a.u.
   SCALEE = 1.0000    scale energy and forces
   NPACO  =    256;   APACO  = 16.0  distance and # of slots for P.C.
   PSTRESS=    0.0 pullay stress

  Mass of Ions in am
   POMASS =  58.69 16.00
  Ionic Valenz
   ZVAL   =  10.00  6.00
  Atomic Wigner-Seitz radii
   RWIGS  =   1.15  0.73
  virtual crystal weights 
   VCA    =   1.00  1.00
   NELECT =     512.0000    total number of electrons
   NUPDOWN=      -1.0000    fix difference up-down

 DOS related values:
   EMIN   =  10.00;   EMAX   =-10.00  energy-range for DOS
   EFERMI =   0.00
   ISMEAR =     0;   SIGMA  =   0.05  broadening in eV -4-tet -1-fermi 0-gaus

 Electronic relaxation 2 (details)
   IALGO  =     38    algorithm
   LDIAG  =      T    sub-space diagonalisation (order eigenvalues)
   LSUBROT=      F    optimize rotation matrix (better conditioning)
   TURBO    =      0    0=normal 1=particle mesh
   IRESTART =      0    0=no restart 2=restart with 2 vectors
   NREBOOT  =      0    no. of reboots
   NMIN     =      0    reboot dimension
   EREF     =   0.00    reference energy to select bands
   IMIX   =      4    mixing-type and parameters
     AMIX     =   0.40;   BMIX     =  1.00
     AMIX_MAG =   1.60;   BMIX_MAG =  1.00
     AMIN     =   0.10
     WC   =   100.;   INIMIX=   1;  MIXPRE=   1;  MAXMIX= -45

 Intra band minimization:
   WEIMIN = 0.0000     energy-eigenvalue tresh-hold
   EBREAK =  0.71E-08  absolut break condition
   DEPER  =   0.30     relativ break condition  

   TIME   =   0.40     timestep for ELM

  volume/ion in A,a.u.               =       8.68        58.56
  Fermi-wavevector in a.u.,A,eV,Ry     =   1.593305  3.010909 34.540016  2.538620
  Thomas-Fermi vector in A             =   2.691555
 
 Write flags
   LWAVE        =      F    write WAVECAR
   LDOWNSAMPLE  =      F    k-point downsampling of WAVECAR
   LCHARG       =      T    write CHGCAR
   LVTOT        =      F    write LOCPOT, total local potential
   LVHAR        =      F    write LOCPOT, Hartree potential only
   LELF         =      F    write electronic localiz. function (ELF)
   LORBIT       =      0    0 simple, 1 ext, 2 COOP (PROOUT), +10 PAW based schemes


 Dipole corrections
   LMONO  =      F    monopole corrections only (constant potential shift)
   LDIPOL =      F    correct potential (dipole corrections)
   IDIPOL =      0    1-x, 2-y, 3-z, 4-all directions 
   EPSILON=  1.0000000 bulk dielectric constant

 Exchange correlation treatment:
   GGA     =    PS    GGA type
   LEXCH   =    14    internal setting for exchange type
   VOSKOWN=      1    Vosko Wilk Nusair interpolation
   LHFCALC =     F    Hartree Fock is set to
   LHFONE  =     F    Hartree Fock one center treatment
   AEXX    =    0.0000 exact exchange contribution

 Linear response parameters
   LEPSILON=     F    determine dielectric tensor
   LRPA    =     F    only Hartree local field effects (RPA)
   LNABLA  =     F    use nabla operator in PAW spheres
   LVEL    =     F    velocity operator in full k-point grid
   LINTERFAST=   F  fast interpolation
   KINTER  =     0    interpolate to denser k-point grid
   CSHIFT  =0.1000    complex shift for real part using Kramers Kronig
   OMEGAMAX=  -1.0    maximum frequency
   DEG_THRESHOLD= 0.2000000E-02 threshold for treating states as degnerate
   RTIME   =   -0.100 relaxation time in fs
  (WPLASMAI=    0.000 imaginary part of plasma frequency in eV, 0.658/RTIME)
   DFIELD  = 0.0000000 0.0000000 0.0000000 field for delta impulse in time
 
 Orbital magnetization related:
   ORBITALMAG=     F  switch on orbital magnetization
   LCHIMAG   =     F  perturbation theory with respect to B field
   DQ        =  0.001000  dq finite difference perturbation B field
   LLRAUG    =     F  two centre corrections for induced B field



--------------------------------------------------------------------------------------------------------


 Static calculation
 charge density and potential will be updated during run
 spin polarized calculation
 Variant of blocked Davidson
 Davidson routine will perform the subspace rotation
 perform sub-space diagonalisation
    after iterative eigenvector-optimisation
 modified Broyden-mixing scheme, WC =      100.0
 initial mixing is a Kerker type mixing with AMIX =  0.4000 and BMIX =      1.0000
 Hartree-type preconditioning will be used
 using additional bands           96
 real space projection scheme for non local part
 use partial core corrections
 calculate Harris-corrections to forces 
   (improved forces if not selfconsistent)
 use gradient corrections 
 use of overlap-Matrix (Vanderbilt PP)
 Gauss-broadening in eV      SIGMA  =   0.05


--------------------------------------------------------------------------------------------------------


  energy-cutoff  :      500.00
  volume of cell :      555.39
      direct lattice vectors                 reciprocal lattice vectors
     8.219890000  0.000000000  0.000000000     0.121656129  0.000000000  0.000000000
     0.000000000  8.219890000  0.000000000     0.000000000  0.121656129  0.000000000
     0.000000000  0.000000000  8.219890000     0.000000000  0.000000000  0.121656129

  length of vectors
     8.219890000  8.219890000  8.219890000     0.121656129  0.121656129  0.121656129


 
 k-points in units of 2pi/SCALE and weight: Automatic mesh                          
   0.00000000  0.00000000  0.00000000       0.016
   0.03041403  0.00000000  0.00000000       0.031
   0.06082806  0.00000000  0.00000000       0.016
   0.00000000  0.03041403  0.00000000       0.031
   0.03041403  0.03041403  0.00000000       0.031
   0.06082806  0.03041403  0.00000000       0.031
  -0.03041403  0.03041403  0.00000000       0.031
   0.00000000  0.06082806  0.00000000       0.016
   0.03041403  0.06082806  0.00000000       0.031
   0.06082806  0.06082806  0.00000000       0.016
   0.00000000  0.00000000  0.03041403       0.031
   0.03041403  0.00000000  0.03041403       0.031
   0.06082806  0.00000000  0.03041403       0.031
  -0.03041403  0.00000000  0.03041403       0.031
   0.00000000  0.03041403  0.03041403       0.031
   0.03041403  0.03041403  0.03041403       0.031
   0.06082806  0.03041403  0.03041403       0.031
  -0.03041403  0.03041403  0.03041403       0.031
   0.00000000  0.06082806  0.03041403       0.031
   0.03041403  0.06082806  0.03041403       0.031
   0.06082806  0.06082806  0.03041403       0.031
  -0.03041403  0.06082806  0.03041403       0.031
   0.00000000 -0.03041403  0.03041403       0.031
   0.03041403 -0.03041403  0.03041403       0.031
   0.06082806 -0.03041403  0.03041403       0.031
  -0.03041403 -0.03041403  0.03041403       0.031
   0.00000000  0.00000000  0.06082806       0.016
   0.03041403  0.00000000  0.06082806       0.031
   0.06082806  0.00000000  0.06082806       0.016
   0.00000000  0.03041403  0.06082806       0.031
   0.03041403  0.03041403  0.06082806       0.031
   0.06082806  0.03041403  0.06082806       0.031
  -0.03041403  0.03041403  0.06082806       0.031
   0.00000000  0.06082806  0.06082806       0.016
   0.03041403  0.06082806  0.06082806       0.031
   0.06082806  0.06082806  0.06082806       0.016
 
 k-points in reciprocal lattice and weights: Automatic mesh                          
   0.00000000  0.00000000  0.00000000       0.016
   0.25000000  0.00000000  0.00000000       0.031
   0.50000000  0.00000000  0.00000000       0.016
   0.00000000  0.25000000  0.00000000       0.031
   0.25000000  0.25000000  0.00000000       0.031
   0.50000000  0.25000000  0.00000000       0.031
  -0.25000000  0.25000000  0.00000000       0.031
   0.00000000  0.50000000  0.00000000       0.016
   0.25000000  0.50000000  0.00000000       0.031
   0.50000000  0.50000000  0.00000000       0.016
   0.00000000  0.00000000  0.25000000       0.031
   0.25000000  0.00000000  0.25000000       0.031
   0.50000000  0.00000000  0.25000000       0.031
  -0.25000000  0.00000000  0.25000000       0.031
   0.00000000  0.25000000  0.25000000       0.031
   0.25000000  0.25000000  0.25000000       0.031
   0.50000000  0.25000000  0.25000000       0.031
  -0.25000000  0.25000000  0.25000000       0.031
   0.00000000  0.50000000  0.25000000       0.031
   0.25000000  0.50000000  0.25000000       0.031
   0.50000000  0.50000000  0.25000000       0.031
  -0.25000000  0.50000000  0.25000000       0.031
   0.00000000 -0.25000000  0.25000000       0.031
   0.25000000 -0.25000000  0.25000000       0.031
   0.50000000 -0.25000000  0.25000000       0.031
  -0.25000000 -0.25000000  0.25000000       0.031
   0.00000000  0.00000000  0.50000000       0.016
   0.25000000  0.00000000  0.50000000       0.031
   0.50000000  0.00000000  0.50000000       0.016
   0.00000000  0.25000000  0.50000000       0.031
   0.25000000  0.25000000  0.50000000       0.031
   0.50000000  0.25000000  0.50000000       0.031
  -0.25000000  0.25000000  0.50000000       0.031
   0.00000000  0.50000000  0.50000000       0.016
   0.25000000  0.50000000  0.50000000       0.031
   0.50000000  0.50000000  0.50000000       0.016
 
 position of ions in fractional coordinates (direct lattice) 
   0.00537728  0.99171607  0.98594267
   0.99016942  0.23532123  0.24406678
   0.27519118  0.01413044  0.25614154
   0.21441446  0.21232696  0.00645441
   0.02210743  0.97953984  0.52446712
   0.97508959  0.25442278  0.73986164
   0.29813711  0.04665378  0.72491434
   0.23824043  0.23430441  0.50146834
   0.00096165  0.51742458  0.98827993
   0.99872283  0.74337513  0.25749366
   0.20716114  0.52798636  0.24470234
   0.22030161  0.74163942  0.03768328
   0.98138402  0.53229786  0.50598671
   0.00165049  0.73342790  0.74704662
   0.22987983  0.46393242  0.76100354
   0.26114871  0.78002466  0.47146732
   0.47802037  0.99876298  0.02563009
   0.46618723  0.21162561  0.26383801
   0.72432094  0.97003660  0.24406499
   0.74425708  0.26426619  0.95524335
   0.44973175  0.02671897  0.48749662
   0.46953796  0.24858374  0.71714374
   0.73711845  0.00500686  0.78652166
   0.76398185  0.25102443  0.52936903
   0.52320833  0.48957968  0.01075638
   0.50839197  0.73124308  0.24368997
   0.74535975  0.47627768  0.24878516
   0.74336898  0.72948015  0.99864583
   0.47170972  0.51732915  0.42481649
   0.45368246  0.73002561  0.75467616
   0.80118087  0.50762310  0.74661798
   0.66320495  0.77818536  0.48438424
   0.24997819  0.22527966  0.25272484
   0.22099835  0.03784829  0.97729167
   0.01281122  0.24635118  0.01272002
   0.03265627  0.03792073  0.28055988
   0.26333182  0.27056350  0.72062780
   0.25912032  0.02292848  0.49145332
   0.01118592  0.24881953  0.51010918
   0.98292249  0.00451258  0.76139552
   0.24493970  0.74411977  0.24696842
   0.26364773  0.53184501  0.02307225
   0.01927028  0.74536510  0.99982333
   0.98356721  0.48155899  0.21953116
   0.26759404  0.75760889  0.78032914
   0.21488494  0.48709595  0.47350501
   0.99467384  0.75495554  0.51808197
   0.01074883  0.50802829  0.75981414
   0.71843951  0.21815206  0.23387226
   0.75426696  0.95997610  0.02076089
   0.50415112  0.20959931  0.05108262
   0.53093406  0.98275036  0.25428716
   0.74186739  0.23854412  0.76864562
   0.73727770  0.98042793  0.52103310
   0.49113038  0.26287656  0.50072735
   0.48424657  0.02308941  0.74870281
   0.76682475  0.73144582  0.24389581
   0.71664312  0.47233175  0.98322785
   0.47936096  0.73916872  0.00995199
   0.55334768  0.50378553  0.24628703
   0.72777261  0.74606959  0.78198193
   0.72472679  0.47251632  0.49344568
   0.49300696  0.79026984  0.49346736
   0.47609529  0.51041917  0.71820275
 
 position of ions in cartesian coordinates  (Angst):
   0.04420065  8.15179701  8.10434029
   8.13908371  1.93431463  2.00620208
   2.26204123  0.11615066  2.10545528
   1.76246328  1.74530426  0.05305454
   0.18172064  8.05170974  4.31106204
   8.01512917  2.09132727  6.08158130
   2.45065425  0.38348894  5.95871613
   1.95831013  1.92595648  4.12201459
   0.00790466  4.25317313  8.12355231
   8.20939180  6.11046180  2.11656956
   1.70284178  4.33998980  2.01142632
   1.81085500  6.09619445  0.30975242
   8.06686869  4.37542986  4.15915510
   0.01356685  6.02869666  6.14064104
   1.88958692  3.81347346  6.25536539
   2.14661367  6.41171690  3.87540951
   3.92927486  8.20972183  0.21067652
   3.83200775  1.73953924  2.16871942
   5.95383845  7.97359415  2.00618737
   6.11771133  2.17223901  7.85199526
   3.69674551  0.21962699  4.00716859
   3.85955038  2.04333100  5.89484266
   6.05903258  0.04115584  6.46512153
   6.27984677  2.06339320  4.35135520
   4.30071492  4.02429112  0.08841626
   4.17892607  6.01073768  2.00310475
   6.12677516  3.91495014  2.04498665
   6.11041125  5.99624659  8.20875887
   3.87740201  4.25238871  3.49194482
   3.72921992  6.00073021  6.20335502
   6.58561862  4.17260604  6.13711767
   5.45147174  6.39659806  3.98158517
   2.05479322  1.85177402  2.07737039
   1.81658213  0.31110878  8.03323003
   0.10530682  2.02497960  0.10455717
   0.26843095  0.31170423  2.30617135
   2.16455859  2.22400221  5.92348125
   2.12994053  0.18846958  4.03969223
   0.09194703  2.04526917  4.19304135
   8.07951475  0.03709291  6.25858742
   2.01337739  6.11658266  2.03005325
   2.16715534  4.37170748  0.18965136
   0.15839958  6.12681913  8.21843779
   8.08481427  3.95836193  1.80452199
   2.19959357  6.22746174  6.41421969
   1.76633057  4.00387513  3.89215910
   8.17610955  6.20565149  4.25857680
   0.08835420  4.17593666  6.24558865
   5.90549374  1.79318594  1.92240425
   6.19999144  7.89089794  0.17065223
   4.14406675  1.72288327  0.41989352
   4.36421957  8.07809986  2.09021248
   6.09806834  1.96080643  6.31818245
   6.06034159  8.05900974  4.28283477
   4.03703770  2.16081641  4.11592374
   3.98045354  0.18979241  6.15425474
   6.30321509  6.01240418  2.00479673
   5.89072762  3.88251503  8.08202477
   3.94029436  6.07588557  0.08180426
   4.54845706  4.14106164  2.02445230
   5.98221080  6.13260996  6.42780545
   5.95717449  3.88403217  4.05606921
   4.05246298  6.49593116  4.05624742
   3.91345091  4.19558943  5.90354760
 


--------------------------------------------------------------------------------------------------------


 k-point  1 :   0.0000 0.0000 0.0000  plane waves:   13997
 k-point  2 :   0.2500 0.0000 0.0000  plane waves:   14098
 k-point  3 :   0.5000 0.0000 0.0000  plane waves:   14094
 k-point  4 :   0.0000 0.2500 0.0000  plane waves:   14098
 k-point  5 :   0.2500 0.2500 0.0000  plane waves:   14039
 k-point  6 :   0.5000 0.2500 0.0000  plane waves:   14082
 k-point  7 :  -0.2500 0.2500 0.0000  plane waves:   14039
 k-point  8 :   0.0000 0.5000 0.0000  plane waves:   14094
 k-point  9 :   0.2500 0.5000 0.0000  plane waves:   14082
 k-point 10 :   0.5000 0.5000 0.0000  plane waves:   14108
 k-point 11 :   0.0000 0.0000 0.2500  plane waves:   14098
 k-point 12 :   0.2500 0.0000 0.2500  plane waves:   14039
 k-point 13 :   0.5000 0.0000 0.2500  plane waves:   14082
 k-point 14 :  -0.2500 0.0000 0.2500  plane waves:   14039
 k-point 15 :   0.0000 0.2500 0.2500  plane waves:   14039
 k-point 16 :   0.2500 0.2500 0.2500  plane waves:   14114
 k-point 17 :   0.5000 0.2500 0.2500  plane waves:   14146
 k-point 18 :  -0.2500 0.2500 0.2500  plane waves:   14114
 k-point 19 :   0.0000 0.5000 0.2500  plane waves:   14082
 k-point 20 :   0.2500 0.5000 0.2500  plane waves:   14146
 k-point 21 :   0.5000 0.5000 0.2500  plane waves:   14128
 k-point 22 :  -0.2500 0.5000 0.2500  plane waves:   14146
 k-point 23 :   0.0000-0.2500 0.2500  plane waves:   14039
 k-point 24 :   0.2500-0.2500 0.2500  plane waves:   14114
 k-point 25 :   0.5000-0.2500 0.2500  plane waves:   14146
 k-point 26 :  -0.2500-0.2500 0.2500  plane waves:   14114
 k-point 27 :   0.0000 0.0000 0.5000  plane waves:   14094
 k-point 28 :   0.2500 0.0000 0.5000  plane waves:   14082
 k-point 29 :   0.5000 0.0000 0.5000  plane waves:   14108
 k-point 30 :   0.0000 0.2500 0.5000  plane waves:   14082
 k-point 31 :   0.2500 0.2500 0.5000  plane waves:   14146
 k-point 32 :   0.5000 0.2500 0.5000  plane waves:   14128
 k-point 33 :  -0.2500 0.2500 0.5000  plane waves:   14146
 k-point 34 :   0.0000 0.5000 0.5000  plane waves:   14108
 k-point 35 :   0.2500 0.5000 0.5000  plane waves:   14128
 k-point 36 :   0.5000 0.5000 0.5000  plane waves:   13992

 maximum and minimum number of plane-waves per node :     14146    13992

 maximum number of plane-waves:     14146
 maximum index in each direction: 
   IXMAX=   15   IYMAX=   15   IZMAX=   14
   IXMIN=  -15   IYMIN=  -15   IZMIN=  -15

 The following grids will avoid any aliasing or wrap around errors in the Hartre
 e energy
  - symmetry arguments have not been applied
  - exchange correlation energies might require even more grid points
  - we recommend to set PREC=Normal or Accurate and rely on VASP defaults
 WARNING: aliasing errors must be expected set NGX to    64 to avoid them
 WARNING: aliasing errors must be expected set NGY to    64 to avoid them
 NGZ is ok and might be reduce to    60

 serial   3D FFT for wavefunctions
 parallel 3D FFT for charge:
    minimum data exchange during FFTs selected (reduces bandwidth)


 total amount of memory used by VASP MPI-rank0   479538. kBytes
=======================================================================

   base      :      30000. kBytes
   nonlr-proj:      36106. kBytes
   fftplans  :       4751. kBytes
   grid      :      26734. kBytes
   one-center:       1990. kBytes
   wavefun   :     379957. kBytes
 
     INWAV:  cpu time    0.0000: real time    0.0000
 Broyden mixing: mesh for mixing (old mesh)
   NGX = 29   NGY = 29   NGZ = 29
  (NGX  =120   NGY  =120   NGZ  =120)
  gives a total of  24389 points

 initial charge density was supplied:
 charge density of overlapping atoms calculated
 number of electron     512.0000000 magnetization      80.0000000
 keeping initial charge density in first step


--------------------------------------------------------------------------------------------------------


 Maximum index for non-local projection operator         5080
 Maximum index for augmentation-charges         1179 (set IRDMAX)


--------------------------------------------------------------------------------------------------------


 First call to EWALD:  gamma=   0.216
 Maximum number of real-space cells 3x 3x 3
 Maximum number of reciprocal cells 3x 3x 3

    FEWALD:  cpu time    0.0031: real time    0.0031


--------------------------------------- Iteration      1(   1)  ---------------------------------------


    POTLOK:  cpu time    0.1409: real time    0.1868
    SETDIJ:  cpu time    0.0234: real time    0.0235
     EDDAV:  cpu time  113.8232: real time  114.1114
    --------------------------------------------
      LOOP:  cpu time  113.9918: real time  114.3261

 eigenvalue-minimisations  : 50688
 total energy-change (2. order) : 0.6439696E+04  (-0.2066039E+05)
 number of electron     512.0000000 magnetization      80.0000000
 augmentation part      512.0000000 magnetization      80.0000000

 Free energy of the ion-electron system (eV)
  ---------------------------------------------------
  alpha Z        PSCENC =      2187.67459796
  Ewald energy   TEWEN  =    -40591.50047134
  -Hartree energ DENC   =    -11624.53468803
  -exchange      EXHF   =         0.00000000
  -V(xc)+E(xc)   XCENC  =      1969.16044300
  PAW double counting   =     41846.49563633   -44035.77946198
  entropy T*S    EENTRO =        -0.00848439
  eigenvalues    EBANDS =      8441.10698284
  atomic energy  EATOM  =     48247.08154143
  Solvation  Ediel_sol  =         0.00000000
  ---------------------------------------------------
  free energy    TOTEN  =      6439.69609582 eV

  energy without entropy =     6439.70458020  energy(sigma->0) =     6439.70033801


--------------------------------------------------------------------------------------------------------




--------------------------------------- Iteration      1(   2)  ---------------------------------------


     EDDAV:  cpu time  113.8609: real time  114.1302
    --------------------------------------------
      LOOP:  cpu time  113.8611: real time  114.1304

 eigenvalue-minimisations  : 50688
 total energy-change (2. order) :-0.5431132E+04  (-0.4902827E+04)
 number of electron     512.0000000 magnetization      80.0000000
 augmentation part      512.0000000 magnetization      80.0000000

 Free energy of the ion-electron system (eV)
  ---------------------------------------------------
  alpha Z        PSCENC =      2187.67459796
  Ewald energy   TEWEN  =    -40591.50047134
  -Hartree energ DENC   =    -11624.53468803
  -exchange      EXHF   =         0.00000000
  -V(xc)+E(xc)   XCENC  =      1969.16044300
  PAW double counting   =     41846.49563633   -44035.77946198
  entropy T*S    EENTRO =        -0.02875351
  eigenvalues    EBANDS =      3009.99560837
  atomic energy  EATOM  =     48247.08154143
  Solvation  Ediel_sol  =         0.00000000
  ---------------------------------------------------
  free energy    TOTEN  =      1008.56445222 eV

  energy without entropy =     1008.59320573  energy(sigma->0) =     1008.57882898


--------------------------------------------------------------------------------------------------------




--------------------------------------- Iteration      1(   3)  ---------------------------------------


     EDDAV:  cpu time  115.5112: real time  115.7844
    --------------------------------------------
      LOOP:  cpu time  115.5116: real time  115.7847

 eigenvalue-minimisations  : 51632
 total energy-change (2. order) :-0.1296487E+04  (-0.1154608E+04)
 number of electron     512.0000000 magnetization      80.0000000
 augmentation part      512.0000000 magnetization      80.0000000

 Free energy of the ion-electron system (eV)
  ---------------------------------------------------
  alpha Z        PSCENC =      2187.67459796
  Ewald energy   TEWEN  =    -40591.50047134
  -Hartree energ DENC   =    -11624.53468803
  -exchange      EXHF   =         0.00000000
  -V(xc)+E(xc)   XCENC  =      1969.16044300
  PAW double counting   =     41846.49563633   -44035.77946198
  entropy T*S    EENTRO =        -0.09995205
  eigenvalues    EBANDS =      1713.57960176
  atomic energy  EATOM  =     48247.08154143
  Solvation  Ediel_sol  =         0.00000000
  ---------------------------------------------------
  free energy    TOTEN  =      -287.92275293 eV

  energy without entropy =     -287.82280087  energy(sigma->0) =     -287.87277690


--------------------------------------------------------------------------------------------------------




--------------------------------------- Iteration      1(   4)  ---------------------------------------


     EDDAV:  cpu time  125.7491: real time  126.0466
    --------------------------------------------
      LOOP:  cpu time  125.7491: real time  126.0466

 eigenvalue-minimisations  : 57760
 total energy-change (2. order) :-0.1551053E+03  (-0.1470884E+03)
 number of electron     512.0000000 magnetization      80.0000000
 augmentation part      512.0000000 magnetization      80.0000000

 Free energy of the ion-electron system (eV)
  ---------------------------------------------------
  alpha Z        PSCENC =      2187.67459796
  Ewald energy   TEWEN  =    -40591.50047134
  -Hartree energ DENC   =    -11624.53468803
  -exchange      EXHF   =         0.00000000
  -V(xc)+E(xc)   XCENC  =      1969.16044300
  PAW double counting   =     41846.49563633   -44035.77946198
  entropy T*S    EENTRO =        -0.10179718
  eigenvalues    EBANDS =      1558.47614764
  atomic energy  EATOM  =     48247.08154143
  Solvation  Ediel_sol  =         0.00000000
  ---------------------------------------------------
  free energy    TOTEN  =      -443.02805218 eV

  energy without entropy =     -442.92625500  energy(sigma->0) =     -442.97715359


--------------------------------------------------------------------------------------------------------




--------------------------------------- Iteration      1(   5)  ---------------------------------------


     EDDAV:  cpu time  125.3549: real time  125.6515
    CHARGE:  cpu time    3.4981: real time    3.5064
    MIXING:  cpu time    0.0027: real time    0.0028
    --------------------------------------------
      LOOP:  cpu time  128.8509: real time  129.1558

 eigenvalue-minimisations  : 57392
 total energy-change (2. order) :-0.4290183E+01  (-0.4248214E+01)
 number of electron     511.9999971 magnetization      70.8316327
 augmentation part      204.2759732 magnetization      56.0511734

 Broyden mixing:
  rms(total) = 0.12392E+02    rms(broyden)= 0.12390E+02
  rms(prec ) = 0.14446E+02
  weight for this iteration     100.00

 Free energy of the ion-electron system (eV)
  ---------------------------------------------------
  alpha Z        PSCENC =      2187.67459796
  Ewald energy   TEWEN  =    -40591.50047134
  -Hartree energ DENC   =    -11624.53468803
  -exchange      EXHF   =         0.00000000
  -V(xc)+E(xc)   XCENC  =      1969.16044300
  PAW double counting   =     41846.49563633   -44035.77946198
  entropy T*S    EENTRO =        -0.10197185
  eigenvalues    EBANDS =      1554.18613972
  atomic energy  EATOM  =     48247.08154143
  Solvation  Ediel_sol  =         0.00000000
  ---------------------------------------------------
  free energy    TOTEN  =      -447.31823476 eV

  energy without entropy =     -447.21626291  energy(sigma->0) =     -447.26724884


--------------------------------------------------------------------------------------------------------




--------------------------------------- Iteration      1(   6)  ---------------------------------------


    POTLOK:  cpu time    0.1158: real time    0.1160
    SETDIJ:  cpu time    0.0239: real time    0.0240
     EDDAV:  cpu time  152.6270: real time  152.9880
    CHARGE:  cpu time    3.4386: real time    3.4468
    MIXING:  cpu time    0.0031: real time    0.0031
    --------------------------------------------
      LOOP:  cpu time  156.2084: real time  156.5779

 eigenvalue-minimisations  : 73664
 total energy-change (2. order) : 0.1074415E+02  (-0.4944678E+02)
 number of electron     511.9999956 magnetization      59.0346578
 augmentation part      233.8326237 magnetization      52.5773073

 Broyden mixing:
  rms(total) = 0.14623E+02    rms(broyden)= 0.14621E+02
  rms(prec ) = 0.17850E+02
  weight for this iteration     100.00

 eigenvalues of (default mixing * dielectric matrix)
  average eigenvalue GAMMA=   0.3147
  0.3147

 Free energy of the ion-electron system (eV)
  ---------------------------------------------------
  alpha Z        PSCENC =      2187.67459796
  Ewald energy   TEWEN  =    -40591.50047134
  -Hartree energ DENC   =    -11196.86109043
  -exchange      EXHF   =         0.00000000
  -V(xc)+E(xc)   XCENC  =      1961.54782643
  PAW double counting   =     46801.59498823   -48824.89236462
  entropy T*S    EENTRO =        -0.05396061
  eigenvalues    EBANDS =       978.83484659
  atomic energy  EATOM  =     48247.08154143
  Solvation  Ediel_sol  =         0.00000000
  ---------------------------------------------------
  free energy    TOTEN  =      -436.57408636 eV

  energy without entropy =     -436.52012575  energy(sigma->0) =     -436.54710605


--------------------------------------------------------------------------------------------------------




--------------------------------------- Iteration      1(   7)  ---------------------------------------


    POTLOK:  cpu time    0.1162: real time    0.1165
    SETDIJ:  cpu time    0.0239: real time    0.0239
     EDDAV:  cpu time  131.4879: real time  131.7989
    CHARGE:  cpu time    3.4754: real time    3.4836
    MIXING:  cpu time    0.0030: real time    0.0030
    --------------------------------------------
      LOOP:  cpu time  135.1064: real time  135.4259

 eigenvalue-minimisations  : 61184
 total energy-change (2. order) : 0.2355134E+02  (-0.3495893E+02)
 number of electron     511.9999965 magnetization      51.8197999
 augmentation part      220.6710139 magnetization      42.7385302

 Broyden mixing:
  rms(total) = 0.12156E+02    rms(broyden)= 0.12154E+02
  rms(prec ) = 0.16764E+02
  weight for this iteration     100.00

 eigenvalues of (default mixing * dielectric matrix)
  average eigenvalue GAMMA=   0.3873
  0.3873  0.3873

 Free energy of the ion-electron system (eV)
  ---------------------------------------------------
  alpha Z        PSCENC =      2187.67459796
  Ewald energy   TEWEN  =    -40591.50047134
  -Hartree energ DENC   =    -11339.11641928
  -exchange      EXHF   =         0.00000000
  -V(xc)+E(xc)   XCENC  =      1953.52341941
  PAW double counting   =     48770.81220151   -50933.05316378
  entropy T*S    EENTRO =        -0.07134520
  eigenvalues    EBANDS =      1291.62688838
  atomic energy  EATOM  =     48247.08154143
  Solvation  Ediel_sol  =         0.00000000
  ---------------------------------------------------
  free energy    TOTEN  =      -413.02275090 eV

  energy without entropy =     -412.95140570  energy(sigma->0) =     -412.98707830


--------------------------------------------------------------------------------------------------------




--------------------------------------- Iteration      1(   8)  ---------------------------------------


    POTLOK:  cpu time    0.1162: real time    0.1165
    SETDIJ:  cpu time    0.0239: real time    0.0239
     EDDAV:  cpu time  133.0540: real time  133.3686
    CHARGE:  cpu time    3.4488: real time    3.4570
    MIXING:  cpu time    0.0031: real time    0.0031
    --------------------------------------------
      LOOP:  cpu time  136.6459: real time  136.9691

 eigenvalue-minimisations  : 62096
 total energy-change (2. order) : 0.7240564E+01  (-0.1212310E+02)
 number of electron     511.9999985 magnetization      45.0576373
 augmentation part      217.8539912 magnetization      37.2155179

 Broyden mixing:
  rms(total) = 0.10109E+02    rms(broyden)= 0.10106E+02
  rms(prec ) = 0.15124E+02
  weight for this iteration     100.00

 eigenvalues of (default mixing * dielectric matrix)
  average eigenvalue GAMMA=   0.4497
  0.6854  0.5044  0.1594

 Free energy of the ion-electron system (eV)
  ---------------------------------------------------
  alpha Z        PSCENC =      2187.67459796
  Ewald energy   TEWEN  =    -40591.50047134
  -Hartree energ DENC   =    -11396.00692512
  -exchange      EXHF   =         0.00000000
  -V(xc)+E(xc)   XCENC  =      1951.70200935
  PAW double counting   =     50286.11529677   -52513.43274418
  entropy T*S    EENTRO =        -0.07747529
  eigenvalues    EBANDS =      1422.66198370
  atomic energy  EATOM  =     48247.08154143
  Solvation  Ediel_sol  =         0.00000000
  ---------------------------------------------------
  free energy    TOTEN  =      -405.78218671 eV

  energy without entropy =     -405.70471143  energy(sigma->0) =     -405.74344907


--------------------------------------------------------------------------------------------------------




--------------------------------------- Iteration      1(   9)  ---------------------------------------


    POTLOK:  cpu time    0.1165: real time    0.1167
    SETDIJ:  cpu time    0.0238: real time    0.0239
     EDDAV:  cpu time  136.9920: real time  137.3161
    CHARGE:  cpu time    3.4476: real time    3.4557
    MIXING:  cpu time    0.0032: real time    0.0032
    --------------------------------------------
      LOOP:  cpu time  140.5831: real time  140.9156

 eigenvalue-minimisations  : 64240
 total energy-change (2. order) :-0.8355482E+01  (-0.1553623E+02)
 number of electron     511.9999991 magnetization      33.1919603
 augmentation part      216.7552342 magnetization      26.9542209

 Broyden mixing:
  rms(total) = 0.10259E+02    rms(broyden)= 0.10257E+02
  rms(prec ) = 0.16040E+02
  weight for this iteration     100.00

 eigenvalues of (default mixing * dielectric matrix)
  average eigenvalue GAMMA=   0.5162
  1.2131  0.5318  0.1600  0.1600

 Free energy of the ion-electron system (eV)
  ---------------------------------------------------
  alpha Z        PSCENC =      2187.67459796
  Ewald energy   TEWEN  =    -40591.50047134
  -Hartree energ DENC   =    -11402.56892176
  -exchange      EXHF   =         0.00000000
  -V(xc)+E(xc)   XCENC  =      1949.90705381
  PAW double counting   =     51610.54696928   -53871.29855466
  entropy T*S    EENTRO =        -0.07919407
  eigenvalues    EBANDS =      1456.09931107
  atomic energy  EATOM  =     48247.08154143
  Solvation  Ediel_sol  =         0.00000000
  ---------------------------------------------------
  free energy    TOTEN  =      -414.13766827 eV

  energy without entropy =     -414.05847421  energy(sigma->0) =     -414.09807124


--------------------------------------------------------------------------------------------------------




--------------------------------------- Iteration      1(  10)  ---------------------------------------


    POTLOK:  cpu time    0.1162: real time    0.1164
    SETDIJ:  cpu time    0.0239: real time    0.0240
     EDDAV:  cpu time  137.1849: real time  137.5096
    CHARGE:  cpu time    3.4510: real time    3.4591
    MIXING:  cpu time    0.0034: real time    0.0034
    --------------------------------------------
      LOOP:  cpu time  140.7793: real time  141.1125

 eigenvalue-minimisations  : 64352
 total energy-change (2. order) :-0.1117935E+02  (-0.1639052E+02)
 number of electron     511.9999939 magnetization      24.9823571
 augmentation part      216.7872332 magnetization      20.1279618

 Broyden mixing:
  rms(total) = 0.10483E+02    rms(broyden)= 0.10481E+02
  rms(prec ) = 0.16554E+02
  weight for this iteration     100.00

 eigenvalues of (default mixing * dielectric matrix)
  average eigenvalue GAMMA=   0.5290
  1.5470  0.5605  0.2675  0.1350  0.1350

 Free energy of the ion-electron system (eV)
  ---------------------------------------------------
  alpha Z        PSCENC =      2187.67459796
  Ewald energy   TEWEN  =    -40591.50047134
  -Hartree energ DENC   =    -11347.85762969
  -exchange      EXHF   =         0.00000000
  -V(xc)+E(xc)   XCENC  =      1947.19296118
  PAW double counting   =     53787.25307363   -56084.40316977
  entropy T*S    EENTRO =        -0.08375165
  eigenvalues    EBANDS =      1429.32583451
  atomic energy  EATOM  =     48247.08154143
  Solvation  Ediel_sol  =         0.00000000
  ---------------------------------------------------
  free energy    TOTEN  =      -425.31701375 eV

  energy without entropy =     -425.23326209  energy(sigma->0) =     -425.27513792


--------------------------------------------------------------------------------------------------------




--------------------------------------- Iteration      1(  11)  ---------------------------------------


    POTLOK:  cpu time    0.1163: real time    0.1166
    SETDIJ:  cpu time    0.0239: real time    0.0240
     EDDAV:  cpu time  132.8366: real time  133.1507
    CHARGE:  cpu time    3.4535: real time    3.4617
    MIXING:  cpu time    0.0034: real time    0.0034
    --------------------------------------------
      LOOP:  cpu time  136.4337: real time  136.7564

 eigenvalue-minimisations  : 61728
 total energy-change (2. order) : 0.7538145E+01  (-0.2335015E+02)
 number of electron     511.9999987 magnetization      20.4124581
 augmentation part      217.5598207 magnetization      15.3693438

 Broyden mixing:
  rms(total) = 0.90086E+01    rms(broyden)= 0.90063E+01
  rms(prec ) = 0.14279E+02
  weight for this iteration     100.00

 eigenvalues of (default mixing * dielectric matrix)
  average eigenvalue GAMMA=   0.5224
  1.7778  0.5660  0.3773  0.1496  0.1496  0.1138

 Free energy of the ion-electron system (eV)
  ---------------------------------------------------
  alpha Z        PSCENC =      2187.67459796
  Ewald energy   TEWEN  =    -40591.50047134
  -Hartree energ DENC   =    -11311.53610698
  -exchange      EXHF   =         0.00000000
  -V(xc)+E(xc)   XCENC  =      1945.12734637
  PAW double counting   =     55192.09843298   -57507.02976232
  entropy T*S    EENTRO =        -0.08286235
  eigenvalues    EBANDS =      1420.38841551
  atomic energy  EATOM  =     48247.08154143
  Solvation  Ediel_sol  =         0.00000000
  ---------------------------------------------------
  free energy    TOTEN  =      -417.77886875 eV

  energy without entropy =     -417.69600640  energy(sigma->0) =     -417.73743757


--------------------------------------------------------------------------------------------------------




--------------------------------------- Iteration      1(  12)  ---------------------------------------


    POTLOK:  cpu time    0.1163: real time    0.1166
    SETDIJ:  cpu time    0.0239: real time    0.0240
     EDDAV:  cpu time  128.9054: real time  129.2102
    CHARGE:  cpu time    3.4494: real time    3.4576
    MIXING:  cpu time    0.0035: real time    0.0035
    --------------------------------------------
      LOOP:  cpu time  132.4986: real time  132.8119

 eigenvalue-minimisations  : 59552
 total energy-change (2. order) : 0.1705530E+02  (-0.9901302E+01)
 number of electron     511.9999973 magnetization      18.2974451
 augmentation part      218.1327200 magnetization      14.4977184

 Broyden mixing:
  rms(total) = 0.93573E+01    rms(broyden)= 0.93556E+01
  rms(prec ) = 0.14865E+02
  weight for this iteration     100.00

 eigenvalues of (default mixing * dielectric matrix)
  average eigenvalue GAMMA=   0.4894
  1.8927  0.5490  0.4517  0.1484  0.1484  0.1179  0.1179

 Free energy of the ion-electron system (eV)
  ---------------------------------------------------
  alpha Z        PSCENC =      2187.67459796
  Ewald energy   TEWEN  =    -40591.50047134
  -Hartree energ DENC   =    -11295.08160544
  -exchange      EXHF   =         0.00000000
  -V(xc)+E(xc)   XCENC  =      1943.92200040
  PAW double counting   =     55933.82254180   -58258.43092148
  entropy T*S    EENTRO =        -0.06987371
  eigenvalues    EBANDS =      1431.85861752
  atomic energy  EATOM  =     48247.08154143
  Solvation  Ediel_sol  =         0.00000000
  ---------------------------------------------------
  free energy    TOTEN  =      -400.72357286 eV

  energy without entropy =     -400.65369915  energy(sigma->0) =     -400.68863601


--------------------------------------------------------------------------------------------------------




--------------------------------------- Iteration      1(  13)  ---------------------------------------


    POTLOK:  cpu time    0.1164: real time    0.1167
    SETDIJ:  cpu time    0.0239: real time    0.0240
     EDDAV:  cpu time  140.0664: real time  140.3979
    CHARGE:  cpu time    3.4823: real time    3.4906
    MIXING:  cpu time    0.0036: real time    0.0036
    --------------------------------------------
      LOOP:  cpu time  143.6927: real time  144.0327

 eigenvalue-minimisations  : 66096
 total energy-change (2. order) : 0.2044758E+02  (-0.9166199E+01)
 number of electron     511.9999962 magnetization      16.6328371
 augmentation part      219.3716568 magnetization      13.5811316

 Broyden mixing:
  rms(total) = 0.59152E+01    rms(broyden)= 0.59133E+01
  rms(prec ) = 0.92804E+01
  weight for this iteration     100.00

 eigenvalues of (default mixing * dielectric matrix)
  average eigenvalue GAMMA=   0.4640
  1.9234  0.5954  0.3875  0.3068  0.1510  0.1510  0.0985  0.0985

 Free energy of the ion-electron system (eV)
  ---------------------------------------------------
  alpha Z        PSCENC =      2187.67459796
  Ewald energy   TEWEN  =    -40591.50047134
  -Hartree energ DENC   =    -11295.30954932
  -exchange      EXHF   =         0.00000000
  -V(xc)+E(xc)   XCENC  =      1943.42850331
  PAW double counting   =     56221.64552952   -58550.61668635
  entropy T*S    EENTRO =        -0.07390273
  eigenvalues    EBANDS =      1457.39444949
  atomic energy  EATOM  =     48247.08154143
  Solvation  Ediel_sol  =         0.00000000
  ---------------------------------------------------
  free energy    TOTEN  =      -380.27598803 eV

  energy without entropy =     -380.20208530  energy(sigma->0) =     -380.23903667


--------------------------------------------------------------------------------------------------------




--------------------------------------- Iteration      1(  14)  ---------------------------------------


    POTLOK:  cpu time    0.1165: real time    0.1167
    SETDIJ:  cpu time    0.0238: real time    0.0239
     EDDAV:  cpu time  128.4416: real time  128.7455
    CHARGE:  cpu time    3.4707: real time    3.4789
    MIXING:  cpu time    0.0039: real time    0.0039
    --------------------------------------------
      LOOP:  cpu time  132.0565: real time  132.3689

 eigenvalue-minimisations  : 59120
 total energy-change (2. order) : 0.6922657E+01  (-0.8802004E+01)
 number of electron     511.9999963 magnetization      15.7345713
 augmentation part      219.4704787 magnetization      12.7554697

 Broyden mixing:
  rms(total) = 0.42355E+01    rms(broyden)= 0.42332E+01
  rms(prec ) = 0.63390E+01
  weight for this iteration     100.00

 eigenvalues of (default mixing * dielectric matrix)
  average eigenvalue GAMMA=   0.4520
  1.8117  0.6928  0.4604  0.4604  0.1566  0.1566  0.1379  0.0959  0.0959

 Free energy of the ion-electron system (eV)
  ---------------------------------------------------
  alpha Z        PSCENC =      2187.67459796
  Ewald energy   TEWEN  =    -40591.50047134
  -Hartree energ DENC   =    -11296.23977269
  -exchange      EXHF   =         0.00000000
  -V(xc)+E(xc)   XCENC  =      1942.91589965
  PAW double counting   =     56347.17144250   -58677.90105750
  entropy T*S    EENTRO =        -0.07457736
  eigenvalues    EBANDS =      1467.51906629
  atomic energy  EATOM  =     48247.08154143
  Solvation  Ediel_sol  =         0.00000000
  ---------------------------------------------------
  free energy    TOTEN  =      -373.35333106 eV

  energy without entropy =     -373.27875370  energy(sigma->0) =     -373.31604238


--------------------------------------------------------------------------------------------------------




--------------------------------------- Iteration      1(  15)  ---------------------------------------


    POTLOK:  cpu time    0.1165: real time    0.1167
    SETDIJ:  cpu time    0.0239: real time    0.0240
     EDDAV:  cpu time  138.0321: real time  138.3586
    CHARGE:  cpu time    3.4574: real time    3.4656
    MIXING:  cpu time    0.0040: real time    0.0040
    --------------------------------------------
      LOOP:  cpu time  141.6340: real time  141.9690

 eigenvalue-minimisations  : 64816
 total energy-change (2. order) :-0.4402600E+01  (-0.4388837E+01)
 number of electron     511.9999984 magnetization      15.4331856
 augmentation part      219.0541710 magnetization      12.3768557

 Broyden mixing:
  rms(total) = 0.49773E+01    rms(broyden)= 0.49749E+01
  rms(prec ) = 0.81765E+01
  weight for this iteration     100.00

 eigenvalues of (default mixing * dielectric matrix)
  average eigenvalue GAMMA=   0.4246
  1.7577  0.7494  0.4789  0.4789  0.1585  0.1585  0.1584  0.1009  0.1009  0.1041

 Free energy of the ion-electron system (eV)
  ---------------------------------------------------
  alpha Z        PSCENC =      2187.67459796
  Ewald energy   TEWEN  =    -40591.50047134
  -Hartree energ DENC   =    -11293.15255097
  -exchange      EXHF   =         0.00000000
  -V(xc)+E(xc)   XCENC  =      1942.33561417
  PAW double counting   =     56247.48993486   -58572.89115685
  entropy T*S    EENTRO =        -0.07857547
  eigenvalues    EBANDS =      1455.28513530
  atomic energy  EATOM  =     48247.08154143
  Solvation  Ediel_sol  =         0.00000000
  ---------------------------------------------------
  free energy    TOTEN  =      -377.75593090 eV

  energy without entropy =     -377.67735544  energy(sigma->0) =     -377.71664317


--------------------------------------------------------------------------------------------------------




--------------------------------------- Iteration      1(  16)  ---------------------------------------


    POTLOK:  cpu time    0.1165: real time    0.1167
    SETDIJ:  cpu time    0.0238: real time    0.0239
     EDDAV:  cpu time  137.8519: real time  138.1778
    CHARGE:  cpu time    3.4552: real time    3.4634
    MIXING:  cpu time    0.0047: real time    0.0329
    --------------------------------------------
      LOOP:  cpu time  141.4520: real time  141.8147

 eigenvalue-minimisations  : 65104
 total energy-change (2. order) : 0.9404328E+01  (-0.2454154E+01)
 number of electron     511.9999982 magnetization      15.3496643
 augmentation part      219.3993368 magnetization      12.2450906

 Broyden mixing:
  rms(total) = 0.24237E+01    rms(broyden)= 0.24209E+01
  rms(prec ) = 0.37895E+01
  weight for this iteration     100.00

 eigenvalues of (default mixing * dielectric matrix)
  average eigenvalue GAMMA=   0.4059
  1.6941  0.7762  0.4708  0.4708  0.3251  0.1453  0.1453  0.1458  0.1007  0.1007
  0.0902

 Free energy of the ion-electron system (eV)
  ---------------------------------------------------
  alpha Z        PSCENC =      2187.67459796
  Ewald energy   TEWEN  =    -40591.50047134
  -Hartree energ DENC   =    -11294.89148452
  -exchange      EXHF   =         0.00000000
  -V(xc)+E(xc)   XCENC  =      1942.07578820
  PAW double counting   =     56159.29037777   -58481.74097777
  entropy T*S    EENTRO =        -0.07484771
  eigenvalues    EBANDS =      1463.73387277
  atomic energy  EATOM  =     48247.08154143
  Solvation  Ediel_sol  =         0.00000000
  ---------------------------------------------------
  free energy    TOTEN  =      -368.35160321 eV

  energy without entropy =     -368.27675550  energy(sigma->0) =     -368.31417935


--------------------------------------------------------------------------------------------------------




--------------------------------------- Iteration      1(  17)  ---------------------------------------


    POTLOK:  cpu time    0.1173: real time    0.1176
    SETDIJ:  cpu time    0.0238: real time    0.0239
     EDDAV:  cpu time  141.1154: real time  141.4491
    CHARGE:  cpu time    3.4564: real time    3.4646
    MIXING:  cpu time    0.0045: real time    0.0045
    --------------------------------------------
      LOOP:  cpu time  144.7174: real time  145.0596

 eigenvalue-minimisations  : 67056
 total energy-change (2. order) : 0.1618882E+01  (-0.6293659E+00)
 number of electron     511.9999971 magnetization      14.7410763
 augmentation part      219.2444560 magnetization      11.6898941

 Broyden mixing:
  rms(total) = 0.19449E+01    rms(broyden)= 0.19437E+01
  rms(prec ) = 0.27658E+01
  weight for this iteration     100.00

 eigenvalues of (default mixing * dielectric matrix)
  average eigenvalue GAMMA=   0.4026
  1.6930  0.6925  0.5816  0.5816  0.4422  0.1521  0.1521  0.1269  0.1269  0.0979
  0.0979  0.0870

 Free energy of the ion-electron system (eV)
  ---------------------------------------------------
  alpha Z        PSCENC =      2187.67459796
  Ewald energy   TEWEN  =    -40591.50047134
  -Hartree energ DENC   =    -11297.26490413
  -exchange      EXHF   =         0.00000000
  -V(xc)+E(xc)   XCENC  =      1942.01036561
  PAW double counting   =     56115.03574658   -58435.38661233
  entropy T*S    EENTRO =        -0.07569622
  eigenvalues    EBANDS =      1465.69271127
  atomic energy  EATOM  =     48247.08154143
  Solvation  Ediel_sol  =         0.00000000
  ---------------------------------------------------
  free energy    TOTEN  =      -366.73272116 eV

  energy without entropy =     -366.65702494  energy(sigma->0) =     -366.69487305


--------------------------------------------------------------------------------------------------------




--------------------------------------- Iteration      1(  18)  ---------------------------------------


    POTLOK:  cpu time    0.1161: real time    0.1164
    SETDIJ:  cpu time    0.0239: real time    0.0239
     EDDAV:  cpu time  137.3610: real time  137.6859
    CHARGE:  cpu time    2.9382: real time    2.9452
    MIXING:  cpu time    0.0037: real time    0.0037
    --------------------------------------------
      LOOP:  cpu time  140.4429: real time  140.7751

 eigenvalue-minimisations  : 64688
 total energy-change (2. order) :-0.9450349E-01  (-0.4830323E+00)
 number of electron     511.9999970 magnetization      14.0740778
 augmentation part      218.9942030 magnetization      11.1314189

 Broyden mixing:
  rms(total) = 0.19862E+01    rms(broyden)= 0.19851E+01
  rms(prec ) = 0.29842E+01
  weight for this iteration     100.00

 eigenvalues of (default mixing * dielectric matrix)
  average eigenvalue GAMMA=   0.3944
  1.6954  0.6674  0.6674  0.6484  0.4495  0.1738  0.1738  0.1362  0.1362  0.1004
  0.1004  0.0970  0.0808

 Free energy of the ion-electron system (eV)
  ---------------------------------------------------
  alpha Z        PSCENC =      2187.67459796
  Ewald energy   TEWEN  =    -40591.50047134
  -Hartree energ DENC   =    -11298.17510223
  -exchange      EXHF   =         0.00000000
  -V(xc)+E(xc)   XCENC  =      1941.92309410
  PAW double counting   =     56154.82978435   -58472.26002463
  entropy T*S    EENTRO =        -0.07696844
  eigenvalues    EBANDS =      1463.67632415
  atomic energy  EATOM  =     48247.08154143
  Solvation  Ediel_sol  =         0.00000000
  ---------------------------------------------------
  free energy    TOTEN  =      -366.82722465 eV

  energy without entropy =     -366.75025622  energy(sigma->0) =     -366.78874044


--------------------------------------------------------------------------------------------------------




--------------------------------------- Iteration      1(  19)  ---------------------------------------


    POTLOK:  cpu time    0.0997: real time    0.1000
    SETDIJ:  cpu time    0.0199: real time    0.0200
     EDDAV:  cpu time  118.3424: real time  118.6290
    CHARGE:  cpu time    2.9056: real time    2.9124
    MIXING:  cpu time    0.0040: real time    0.0041
    --------------------------------------------
      LOOP:  cpu time  121.3717: real time  121.6655

 eigenvalue-minimisations  : 64096
 total energy-change (2. order) : 0.1103954E+00  (-0.4506159E+00)
 number of electron     511.9999977 magnetization      13.3333179
 augmentation part      218.9847625 magnetization      10.3824411

 Broyden mixing:
  rms(total) = 0.15908E+01    rms(broyden)= 0.15894E+01
  rms(prec ) = 0.24309E+01
  weight for this iteration     100.00

 eigenvalues of (default mixing * dielectric matrix)
  average eigenvalue GAMMA=   0.3883
  1.6591  0.7309  0.7309  0.6562  0.3845  0.2735  0.2237  0.1460  0.1460  0.1188
  0.1013  0.1013  0.0822  0.0822

 Free energy of the ion-electron system (eV)
  ---------------------------------------------------
  alpha Z        PSCENC =      2187.67459796
  Ewald energy   TEWEN  =    -40591.50047134
  -Hartree energ DENC   =    -11298.77202649
  -exchange      EXHF   =         0.00000000
  -V(xc)+E(xc)   XCENC  =      1941.87476986
  PAW double counting   =     56221.01538198   -58536.39563508
  entropy T*S    EENTRO =        -0.07740357
  eigenvalues    EBANDS =      1462.38241599
  atomic energy  EATOM  =     48247.08154143
  Solvation  Ediel_sol  =         0.00000000
  ---------------------------------------------------
  free energy    TOTEN  =      -366.71682926 eV

  energy without entropy =     -366.63942570  energy(sigma->0) =     -366.67812748


--------------------------------------------------------------------------------------------------------




--------------------------------------- Iteration      1(  20)  ---------------------------------------


    POTLOK:  cpu time    0.0994: real time    0.0996
    SETDIJ:  cpu time    0.0203: real time    0.0204
     EDDAV:  cpu time  119.0426: real time  119.3341
    CHARGE:  cpu time    3.0629: real time    3.1060
    MIXING:  cpu time    0.0052: real time    0.0065
    --------------------------------------------
      LOOP:  cpu time  122.2304: real time  122.5666

 eigenvalue-minimisations  : 64128
 total energy-change (2. order) : 0.2579039E+00  (-0.1601643E+00)
 number of electron     511.9999969 magnetization      12.6395640
 augmentation part      218.9259008 magnetization       9.8788679

 Broyden mixing:
  rms(total) = 0.14691E+01    rms(broyden)= 0.14684E+01
  rms(prec ) = 0.21160E+01
  weight for this iteration     100.00

 eigenvalues of (default mixing * dielectric matrix)
  average eigenvalue GAMMA=   0.3919
  1.6573  0.8067  0.8067  0.6520  0.3645  0.3645  0.2995  0.1458  0.1458  0.1465
  0.1221  0.1006  0.1006  0.0887  0.0777

 Free energy of the ion-electron system (eV)
  ---------------------------------------------------
  alpha Z        PSCENC =      2187.67459796
  Ewald energy   TEWEN  =    -40591.50047134
  -Hartree energ DENC   =    -11301.81803177
  -exchange      EXHF   =         0.00000000
  -V(xc)+E(xc)   XCENC  =      1941.88975123
  PAW double counting   =     56262.06674705   -58573.55122717
  entropy T*S    EENTRO =        -0.07575363
  eigenvalues    EBANDS =      1461.77392089
  atomic energy  EATOM  =     48247.08154143
  Solvation  Ediel_sol  =         0.00000000
  ---------------------------------------------------
  free energy    TOTEN  =      -366.45892535 eV

  energy without entropy =     -366.38317172  energy(sigma->0) =     -366.42104854


--------------------------------------------------------------------------------------------------------




--------------------------------------- Iteration      1(  21)  ---------------------------------------


    POTLOK:  cpu time    0.1124: real time    0.1127
    SETDIJ:  cpu time    0.0235: real time    0.0235
     EDDAV:  cpu time  151.1802: real time  151.5382
    CHARGE:  cpu time    3.8095: real time    3.8346
    MIXING:  cpu time    0.0064: real time    0.0228
    --------------------------------------------
      LOOP:  cpu time  155.1321: real time  155.5319

 eigenvalue-minimisations  : 64384
 total energy-change (2. order) : 0.2042422E+00  (-0.2287471E+00)
 number of electron     511.9999974 magnetization      11.0125386
 augmentation part      218.9455496 magnetization       8.3375022

 Broyden mixing:
  rms(total) = 0.11849E+01    rms(broyden)= 0.11838E+01
  rms(prec ) = 0.17452E+01
  weight for this iteration     100.00

 eigenvalues of (default mixing * dielectric matrix)
  average eigenvalue GAMMA=   0.4503
  1.6435  1.2403  1.2403  0.5030  0.5030  0.5535  0.4762  0.1601  0.1456  0.1456
  0.1300  0.1013  0.1013  0.0996  0.0851  0.0757

 Free energy of the ion-electron system (eV)
  ---------------------------------------------------
  alpha Z        PSCENC =      2187.67459796
  Ewald energy   TEWEN  =    -40591.50047134
  -Hartree energ DENC   =    -11303.59250496
  -exchange      EXHF   =         0.00000000
  -V(xc)+E(xc)   XCENC  =      1941.90082677
  PAW double counting   =     56306.87293958   -58615.07097410
  entropy T*S    EENTRO =        -0.07375135
  eigenvalues    EBANDS =      1460.45311285
  atomic energy  EATOM  =     48247.08154143
  Solvation  Ediel_sol  =         0.00000000
  ---------------------------------------------------
  free energy    TOTEN  =      -366.25468317 eV

  energy without entropy =     -366.18093182  energy(sigma->0) =     -366.21780750


--------------------------------------------------------------------------------------------------------




--------------------------------------- Iteration      1(  22)  ---------------------------------------


    POTLOK:  cpu time    0.1244: real time    0.1247
    SETDIJ:  cpu time    0.0244: real time    0.0245
     EDDAV:  cpu time  161.7887: real time  162.1714
    CHARGE:  cpu time    3.8969: real time    3.9061
    MIXING:  cpu time    0.0055: real time    0.0055
    --------------------------------------------
      LOOP:  cpu time  165.8400: real time  166.2322

 eigenvalue-minimisations  : 67360
 total energy-change (2. order) :-0.1014524E+01  (-0.3623840E+00)
 number of electron     511.9999976 magnetization       9.4935761
[...]
   -.389E+02 0.108E+03 0.241E+03   0.400E+02 -.109E+03 -.243E+03   -.100E+01 -.193E+01 -.520E-01   0.561E-01 -.117E+00 -.109E-01
   -.170E+03 -.291E+03 0.185E+02   0.175E+03 0.296E+03 -.200E+02   -.155E+01 -.190E+01 0.273E+01   0.647E-01 0.236E-01 -.496E+00
   -.366E+03 -.924E+02 -.935E+02   0.373E+03 0.955E+02 0.928E+02   0.117E+01 -.199E+01 0.181E+01   0.764E-01 -.186E-01 -.370E+00
   0.103E+02 0.107E+03 -.196E+03   -.118E+02 -.107E+03 0.206E+03   0.142E+01 -.162E+01 -.128E+01   0.435E-02 0.206E+00 0.170E+00
   -.375E+03 0.590E+02 -.948E+02   0.388E+03 -.594E+02 0.950E+02   -.343E+01 -.444E+00 0.489E+00   0.979E-01 0.150E-01 -.843E-01
   -.297E+03 -.243E+03 -.230E+03   0.304E+03 0.248E+03 0.230E+03   -.147E+01 -.242E+01 0.278E+01   0.116E+00 0.286E+00 0.513E+00
   0.379E+02 0.119E+03 0.833E+02   -.371E+02 -.122E+03 -.856E+02   -.126E+01 0.205E+01 0.367E+00   0.980E-01 0.947E-01 0.384E+00
   0.271E+02 0.772E+02 0.128E+03   -.287E+02 -.752E+02 -.132E+03   0.557E+00 -.293E+01 0.171E+01   0.180E+00 0.534E-01 0.596E-01
   0.229E+03 0.101E+03 0.165E+03   -.237E+03 -.100E+03 -.166E+03   0.962E-01 -.732E+00 0.291E+00   -.118E+00 -.553E-02 -.800E-01
   0.132E+02 0.193E+02 0.570E+02   -.134E+02 -.191E+02 -.605E+02   0.258E+00 0.702E+00 0.357E+01   0.174E-01 -.821E-01 -.628E+00
   -.200E+03 0.947E+02 -.599E+02   0.208E+03 -.970E+02 0.635E+02   -.539E+00 0.105E+01 -.272E+01   0.308E-01 0.165E-01 -.510E+00
   -.129E+02 0.142E+02 0.405E+02   0.121E+02 -.105E+02 -.419E+02   0.102E+01 -.396E+01 0.261E+01   -.113E-01 -.215E+00 0.872E-01
   0.600E+02 0.475E+02 -.282E+03   -.627E+02 -.510E+02 0.289E+03   0.279E+00 0.229E+01 -.749E+00   0.814E-01 0.786E-01 -.240E+00
   -.195E+03 0.240E+02 0.296E+02   0.201E+03 -.284E+02 -.292E+02   0.249E+01 0.424E+01 -.163E+01   0.869E-02 -.279E+00 0.578E+00
   0.286E+03 -.646E+02 0.128E+03   -.292E+03 0.678E+02 -.130E+03   0.148E+01 -.255E+01 0.973E+00   0.223E+00 -.341E-01 0.448E+00
   -.415E+03 0.179E+03 -.202E+03   0.437E+03 -.179E+03 0.205E+03   -.268E+01 -.330E+01 -.232E+01   0.217E+00 -.519E-01 -.224E+00
   0.883E+02 -.235E+03 0.567E+02   -.993E+02 0.251E+03 -.578E+02   0.103E+02 -.126E+02 0.212E+01   -.311E+00 0.249E-01 -.277E+00
   -.508E+02 0.218E+03 0.796E+02   0.590E+02 -.253E+03 -.880E+02   -.652E+01 0.191E+02 0.537E+01   -.370E-01 -.374E-01 0.121E+00
   0.132E+03 -.532E+02 0.218E+02   -.147E+03 0.589E+02 -.251E+02   0.118E+02 -.500E+01 0.265E+01   -.733E-01 0.152E+00 0.826E-01
   0.165E+03 0.133E+03 0.103E+02   -.166E+03 -.145E+03 -.960E+01   0.805E+00 0.766E+01 -.737E+00   -.129E+00 0.159E+00 -.305E+00
   0.898E+02 -.590E+02 -.126E+03   -.103E+03 0.542E+02 0.133E+03   0.104E+02 0.190E+01 -.647E+01   -.782E-01 0.310E+00 0.288E+00
   0.202E+03 0.123E+03 -.511E+02   -.224E+03 -.131E+03 0.491E+02   0.134E+02 0.469E+01 0.244E+01   -.195E-01 0.370E-01 -.541E-01
   0.106E+03 -.319E+02 0.730E+02   -.108E+03 0.340E+02 -.800E+02   0.352E+00 -.241E+01 0.629E+01   -.487E-01 0.146E+00 -.819E-01
   -.902E+01 0.587E+02 0.501E+02   0.121E+02 -.595E+02 -.536E+02   -.301E+01 0.667E+00 0.226E+01   -.784E-01 -.316E-01 0.309E+00
   -.133E+02 -.544E+02 -.473E+02   0.196E+02 0.621E+02 0.527E+02   -.613E+01 -.548E+01 -.233E+01   0.426E-01 0.121E+00 -.455E+00
   -.103E+03 0.177E+03 0.969E+02   0.110E+03 -.188E+03 -.105E+03   -.632E+01 0.743E+01 0.822E+01   0.590E-01 0.541E-01 -.322E+00
   0.121E+03 -.811E+02 0.381E+02   -.135E+03 0.867E+02 -.400E+02   0.101E+02 -.442E+01 0.122E+01   0.131E+00 -.213E+00 -.219E-01
   0.606E+02 0.499E+02 -.683E+02   -.637E+02 -.507E+02 0.720E+02   0.178E+01 -.103E+00 -.338E+01   -.124E+00 -.854E-01 -.354E+00
   0.131E+03 -.193E+02 0.335E+02   -.152E+03 0.247E+02 -.311E+02   0.131E+02 -.418E+01 -.199E+01   -.341E+00 -.179E+00 0.373E+00
   -.286E+02 -.423E+02 -.759E+02   0.316E+02 0.413E+02 0.840E+02   -.251E+01 0.127E+01 -.833E+01   -.206E+00 -.256E-01 0.233E+00
   0.975E+02 -.192E+02 0.168E+02   -.104E+03 0.219E+02 -.209E+02   0.704E+01 -.249E+01 0.321E+01   -.722E-01 -.232E+00 0.623E-01
   -.588E+02 0.137E+02 0.515E+02   0.664E+02 -.180E+02 -.556E+02   -.569E+01 0.356E+01 0.394E+01   0.150E+00 0.283E-01 0.312E+00
   -.976E+02 -.163E+02 -.319E+02   0.970E+02 0.163E+02 0.308E+02   0.140E+01 0.519E+00 0.201E+01   0.229E+00 -.347E-02 -.283E+00
   -.344E+02 -.674E+02 0.278E+02   0.336E+02 0.728E+02 -.287E+02   0.152E+01 -.534E+01 -.504E-01   -.901E-02 0.105E+00 0.148E-01
   -.231E+02 -.155E+03 0.156E+03   0.281E+02 0.167E+03 -.165E+03   -.643E+01 -.982E+01 0.732E+01   0.895E-01 0.144E+00 -.299E+00
   -.139E+02 0.259E+02 0.165E+01   0.351E+01 -.277E+02 0.443E+01   0.370E+01 0.430E+00 -.576E+01   0.831E-01 -.228E+00 -.358E+00
   0.978E+02 -.142E+02 0.121E+03   -.108E+03 0.154E+02 -.140E+03   0.886E+01 -.243E+01 0.102E+02   0.119E-01 0.521E-01 0.333E+00
   -.112E+03 -.582E+02 -.303E+02   0.116E+03 0.663E+02 0.322E+02   -.381E+01 -.601E+01 -.165E+01   0.639E-01 0.481E-01 0.204E-02
   -.164E+03 -.154E+03 0.233E+02   0.173E+03 0.166E+03 -.284E+02   -.848E+01 -.107E+02 0.248E+01   0.414E-01 0.433E-01 0.140E+00
   -.223E+03 0.143E+03 -.109E+03   0.248E+03 -.156E+03 0.113E+03   -.155E+02 0.105E+02 -.152E+01   0.169E+00 0.100E+00 0.326E+00
   -.793E+02 0.138E+02 -.634E+02   0.788E+02 -.185E+02 0.675E+02   0.830E+00 0.449E+01 -.458E+01   0.731E-03 0.459E-02 -.187E+00
   -.679E+02 -.378E+02 0.352E+02   0.831E+02 0.450E+02 -.343E+02   -.963E+01 -.475E+01 -.852E+00   -.310E+00 -.735E-01 0.649E-01
   -.715E+01 -.137E+02 0.116E+03   0.481E+01 0.133E+02 -.123E+03   0.237E+01 0.210E+01 0.614E+01   -.575E-01 -.283E+00 0.243E+00
   0.861E+02 0.101E+03 0.674E+02   -.971E+02 -.109E+03 -.788E+02   0.658E+01 0.788E+01 0.763E+01   -.610E-01 0.171E+00 -.671E+00
   0.486E+02 -.151E+02 0.151E+03   -.521E+02 0.185E+02 -.164E+03   0.289E+01 -.308E+01 0.111E+02   0.181E+00 -.372E-01 0.173E+00
   0.178E+02 -.779E+02 -.683E+02   -.253E+02 0.851E+02 0.710E+02   0.887E+01 -.631E+01 -.243E+01   0.158E+00 0.395E-01 0.221E-01
   0.105E+03 0.936E+02 -.149E+03   -.137E+03 -.933E+02 0.157E+03   0.120E+02 0.704E+00 -.550E+01   -.201E-01 -.290E-01 -.201E+00
   -.958E+02 0.156E+02 0.170E+02   0.103E+03 -.211E+02 -.223E+02   -.773E+01 0.487E+01 0.516E+01   -.513E-01 -.223E+00 0.435E+00
 -----------------------------------------------------------------------------------------------
   -.569E+02 0.114E+02 -.590E+02   0.109E-11 -.330E-12 0.295E-12   0.577E+02 -.117E+02 0.600E+02   -.809E+00 0.228E+00 -.979E+00
 
 
 POSITION                                       TOTAL-FORCE (eV/Angst)
 -----------------------------------------------------------------------------------
      0.04420      8.15180      8.10434        -1.564834     -0.724456      1.661303
      8.13908      1.93431      2.00620        -1.332392      3.980577      0.938061
      2.26204      0.11615      2.10546        -1.819552     -3.942908     -1.512371
      1.76246      1.74530      0.05305         3.815768     15.472407      2.184032
      0.18172      8.05171      4.31106        -1.766365      1.376639     -0.466771
      8.01513      2.09133      6.08158         0.176840     -0.320294      0.998086
      2.45065      0.38349      5.95872        -9.737991     -2.650850      0.992837
      1.95831      1.92596      4.12201        -0.636382      5.273111     -2.497956
      0.00790      4.25317      8.12355        -0.301093     -2.050569      0.590832
      8.20939      6.11046      2.11657        -0.677355      0.872060      0.770480
      1.70284      4.33999      2.01143         1.383459     -3.018275      1.432032
      1.81086      6.09619      0.30975         5.152791      3.175773     -4.221666
      8.06687      4.37543      4.15916        -0.302998     -1.819067     -0.727394
      0.01357      6.02870      6.14064         0.436817      2.253964      0.275872
      1.88959      3.81347      6.25537         1.165932      4.832366      0.971079
      2.14661      6.41172      3.87541        -0.659822     -1.254023      1.569732
      3.92927      8.20972      0.21068         0.196749     -2.666809     -1.497902
      3.83201      1.73954      2.16872         3.610086      3.287327      0.678147
      5.95384      7.97359      2.00619         8.106150      1.098510      0.802270
      6.11771      2.17224      7.85200        -0.029041     -1.856527      9.283128
      3.69675      0.21963      4.00717         9.591512     -0.844562      0.578730
      3.85955      2.04333      5.89484         4.795566      3.055752      2.745839
      6.05903      0.04116      6.46512        -0.388249     -1.127098     -1.570489
      6.27985      2.06339      4.35136        -0.851524     -0.900186     -1.363119
      4.30071      4.02429      0.08842        -7.584940      0.195226     -0.617281
      4.17893      6.01074      2.00310         0.002807      0.808188     -0.544132
      6.12678      3.91495      2.04499         6.929006     -1.223037      0.404663
      6.11041      5.99625      8.20876         0.175027     -0.513577      1.318187
      3.87740      4.25239      3.49194        -2.366982     -1.201470      5.777559
      3.72922      6.00073      6.20336         8.458623     -0.411896     -0.632553
      6.58562      4.17261      6.13712        -3.756396      0.671866     -1.027986
      5.45147      6.39660      3.98159        19.747012     -2.782415     -0.403605
      2.05479      1.85177      2.07737        -0.914648      3.199347      0.712923
      1.81658      0.31111      8.03323         1.613347    -15.161286     -2.935907
      0.10531      2.02498      0.10456        -3.844396      0.822338     -0.570850
      0.26843      0.31170      2.30617        -0.311348     -4.551428     -0.338150
      2.16456      2.22400      5.92348        -2.896752     -2.572558      0.281304
      2.12994      0.18847      4.03969        -8.158799     -2.654244      0.434780
      0.09195      2.04527      4.19304        -1.247493     -0.148851     -0.821968
      8.07951      0.03709      6.25859        -0.040325     -0.214134     -0.894790
      2.01338      6.11658      2.03005         0.247138      2.318483      2.569521
      2.16716      4.37171      0.18965         1.056351     -3.709927     -0.697242
      0.15840      6.12682      8.21844        -4.390719      0.917968     -0.705981
      8.08481      3.95836      1.80452        -1.416052     -1.031698      0.006830
      2.19959      6.22746      6.41422        -8.341792      1.005843      0.791453
      1.76633      4.00388      3.89216         0.281728      0.245861     -0.009235
      8.17611      6.20565      4.25858         0.391730      0.021928     -0.833113
      0.08835      4.17594      6.24559         2.002014     -0.690584      0.123042
      5.90549      1.79319      1.92240         1.019260      0.552679      0.614600
      6.19999      7.89090      0.17065         0.687045      0.140821     -0.874742
      4.14407      1.72288      0.41989        -1.262502      2.172033     -2.250937
      4.36422      8.07810      2.09021        -6.567320     -1.589201     -0.037652
      6.09807      1.96081      6.31818        -0.997282     -1.226048     -8.354363
      6.06034      8.05901      4.28283         0.990743      2.114237      0.228108
      4.03704      2.16082      4.11592         0.610870      0.457944     -2.549091
      3.98045      0.18979      6.15425         9.353585     -2.532368      2.876907
      6.30322      6.01240      2.00480         0.401974     -0.158599     -0.722899
      5.89073      3.88252      8.08202         5.189809      2.374093      0.057517
      3.94029      6.07589      0.08180        -0.023915      1.445879     -0.044595
      4.54846      4.14106      2.02445        -4.434114      0.149152     -4.415049
      5.98221      6.13261      6.42781        -0.448397      0.273609     -1.168496
      5.95717      3.88403      4.05607         1.465998      0.878549      0.251799
      4.05246      6.49593      4.05625       -19.682960      0.982772      2.060341
      3.91345      4.19559      5.90355        -0.301008     -0.878358      0.326292
 -----------------------------------------------------------------------------------
    total drift:                                0.031650     -0.015397      0.024981


--------------------------------------------------------------------------------------------------------



  FREE ENERGIE OF THE ION-ELECTRON SYSTEM (eV)
  ---------------------------------------------------
  free  energy   TOTEN  =      -366.2866474366 eV

  energy  without entropy=     -366.2193018403  energy(sigma->0) =     -366.25297464
 


--------------------------------------------------------------------------------------------------------


    POTLOK:  cpu time    0.1399: real time    0.1403


--------------------------------------------------------------------------------------------------------


     LOOP+:  cpu time12875.6264: real time12906.6514
    4ORBIT:  cpu time    0.0000: real time    0.0000

volume of typ            1:    36.7 %

volume of typ            2:     9.4 %
 
total charge     
 
# of ion       s       p       d       tot
------------------------------------------
    1        0.225   0.259   7.989   8.473
    2        0.245   0.283   7.981   8.508
    3        0.243   0.289   8.092   8.624
    4        0.358   0.425   8.147   8.930
    5        0.208   0.233   7.987   8.427
    6        0.208   0.230   8.053   8.491
    7        0.287   0.376   8.149   8.812
    8        0.260   0.341   8.031   8.632
    9        0.224   0.253   8.031   8.508
   10        0.195   0.206   8.028   8.429
   11        0.255   0.312   8.035   8.602
   12        0.296   0.388   8.022   8.705
   13        0.210   0.223   7.995   8.428
   14        0.207   0.232   8.021   8.460
   15        0.248   0.285   8.036   8.569
   16        0.194   0.215   8.085   8.494
   17        0.227   0.248   8.016   8.490
   18        0.270   0.338   8.036   8.644
   19        0.271   0.334   8.014   8.620
   20        0.292   0.362   8.082   8.736
   21        0.287   0.375   8.138   8.799
   22        0.264   0.332   8.054   8.650
   23        0.208   0.233   7.952   8.393
   24        0.201   0.214   7.988   8.403
   25        0.244   0.284   8.031   8.558
   26        0.225   0.260   8.036   8.522
   27        0.262   0.326   8.014   8.602
   28        0.236   0.265   7.985   8.487
   29        0.247   0.276   8.062   8.585
   30        0.282   0.327   8.012   8.621
   31        0.221   0.253   8.061   8.534
   32        0.353   0.433   8.164   8.951
   33        1.281   2.793   0.014   4.088
   34        1.284   2.858   0.026   4.168
   35        1.277   2.785   0.012   4.074
   36        1.276   2.769   0.009   4.054
   37        1.269   2.872   0.023   4.165
   38        1.265   2.888   0.028   4.181
   39        1.270   2.764   0.008   4.042
   40        1.266   2.769   0.008   4.043
   41        1.259   2.835   0.016   4.111
   42        1.269   2.777   0.010   4.056
   43        1.266   2.818   0.014   4.098
   44        1.257   2.793   0.009   4.058
   45        1.281   2.784   0.013   4.078
   46        1.273   2.741   0.006   4.020
   47        1.258   2.794   0.011   4.062
   48        1.253   2.844   0.019   4.117
   49        1.284   2.702   0.005   3.991
   50        1.271   2.772   0.009   4.052
   51        1.281   2.768   0.011   4.060
   52        1.280   2.832   0.019   4.131
   53        1.265   2.847   0.021   4.134
   54        1.273   2.737   0.006   4.015
   55        1.273   2.780   0.010   4.063
   56        1.271   2.829   0.019   4.119
   57        1.269   2.770   0.008   4.048
   58        1.270   2.836   0.018   4.124
   59        1.278   2.743   0.007   4.028
   60        1.271   2.878   0.025   4.174
   61        1.272   2.745   0.007   4.024
   62        1.279   2.725   0.007   4.011
   63        1.284   2.879   0.032   4.194
   64        1.278   2.719   0.006   4.002
--------------------------------------------------
tot          48.65   98.85  257.76  405.27
 
magnetization (x)
 
# of ion       s       p       d       tot
------------------------------------------
    1        0.000  -0.002  -0.909  -0.911
    2        0.000   0.000   0.040   0.040
    3       -0.001  -0.000   0.203   0.202
    4        0.002  -0.002   0.123   0.123
    5       -0.002  -0.001   0.980   0.977
    6        0.002   0.004   0.685   0.691
    7        0.001  -0.009  -0.325  -0.332
    8        0.001   0.000  -0.452  -0.451
    9        0.000  -0.001   0.694   0.693
   10       -0.000   0.002  -0.839  -0.838
   11        0.001   0.002  -0.015  -0.011
   12        0.001  -0.008  -0.548  -0.555
   13       -0.001  -0.003  -0.988  -0.992
   14        0.001  -0.000   0.317   0.318
   15        0.001   0.004   0.594   0.598
   16       -0.003   0.002   0.746   0.744
   17        0.003   0.001   0.534   0.538
   18       -0.000   0.002  -0.231  -0.230
   19        0.000  -0.005  -0.608  -0.613
   20        0.005   0.001   0.174   0.179
   21        0.002  -0.002  -0.167  -0.167
   22        0.002   0.012   0.647   0.662
   23       -0.000  -0.001   1.011   1.010
   24        0.002   0.002   0.916   0.920
   25        0.001  -0.001  -0.136  -0.136
   26        0.002  -0.001   0.700   0.701
   27        0.003   0.002   0.510   0.516
   28        0.006   0.002   0.593   0.601
   29        0.001   0.000   0.130   0.130
   30       -0.003  -0.005  -0.559  -0.567
   31        0.002  -0.003  -0.693  -0.694
   32       -0.000  -0.011  -0.284  -0.294
   33        0.001  -0.013   0.000  -0.012
   34       -0.002  -0.002   0.000  -0.004
   35       -0.000   0.001  -0.000   0.001
   36        0.002   0.002   0.000   0.004
   37        0.004   0.054   0.000   0.057
   38        0.005   0.018  -0.000   0.023
   39        0.002   0.038  -0.000   0.040
   40        0.004   0.061   0.000   0.065
   41        0.002   0.027  -0.000   0.029
   42       -0.003  -0.000  -0.000  -0.003
   43       -0.000  -0.029  -0.000  -0.029
   44       -0.001  -0.021   0.000  -0.022
   45       -0.003  -0.063  -0.000  -0.066
   46       -0.004  -0.025  -0.000  -0.029
   47        0.001   0.014   0.000   0.015
   48       -0.000  -0.025   0.000  -0.025
   49        0.001   0.037  -0.000   0.037
   50        0.003   0.028  -0.000   0.031
   51        0.001   0.027   0.000   0.028
   52       -0.002  -0.012  -0.000  -0.013
   53        0.012   0.108  -0.000   0.120
   54        0.000   0.024  -0.000   0.025
   55        0.003   0.059   0.000   0.063
   56        0.004   0.007  -0.000   0.011
   57        0.003   0.008   0.000   0.010
   58        0.003  -0.004   0.000  -0.001
   59        0.002   0.041   0.000   0.043
   60        0.004   0.062  -0.000   0.066
   61        0.002   0.014   0.000   0.016
   62        0.003   0.028   0.000   0.032
   63        0.002  -0.033  -0.001  -0.032
   64        0.001  -0.003  -0.000  -0.003
--------------------------------------------------
tot           0.08    0.41    2.84    3.33
 

 total amount of memory used by VASP MPI-rank0   479538. kBytes
=======================================================================

   base      :      30000. kBytes
   nonlr-proj:      36106. kBytes
   fftplans  :       4751. kBytes
   grid      :      26734. kBytes
   one-center:       1990. kBytes
   wavefun   :     379957. kBytes
 
  
  
 General timing and accounting informations for this job:
 ========================================================
  
                  Total CPU time used (sec):    12965.999
                            User time (sec):    12954.370
                          System time (sec):       11.630
                         Elapsed time (sec):    13000.973
  
                   Maximum memory used (kb):      609848.
                   Average memory used (kb):           0.
  
                          Minor page faults:        44395
                          Major page faults:           68
                 Voluntary context switches:         1284
