 vasp.5.4.4.18Apr17-6-g9f103f2a35 (build May 12 2020 04:58:55) complex          
  
 MD_VERSION_INFO: Compiled 2020-05-12T11:58:55-UTC in devlin.sd.materialsdesign.
 com:/home/medea2/data/build/wwolf/vasp-gpu5.4.4/13047/x86_64/src/src/build/std 
 from svn 13047
 
 This VASP executable licensed from Materials Design, Inc.
 
 executed on                        Lin64 date 2023.03.23  22:52:40
 running on   16 total cores
 distrk:  each k-point on   16 cores,    1 groups
 distr:  one band on NCORES_PER_BAND=   1 cores,   16 groups


--------------------------------------------------------------------------------------------------------


 INCAR:
 POTCAR:    PAW_PBE Ni 02Aug2007                  
 POTCAR:    PAW_PBE O 08Apr2002                   

 ----------------------------------------------------------------------------- 
|                                                                             |
|           W    W    AA    RRRRR   N    N  II  N    N   GGGG   !!!           |
|           W    W   A  A   R    R  NN   N  II  NN   N  G    G  !!!           |
|           W    W  A    A  R    R  N N  N  II  N N  N  G       !!!           |
|           W WW W  AAAAAA  RRRRR   N  N N  II  N  N N  G  GGG   !            |
|           WW  WW  A    A  R   R   N   NN  II  N   NN  G    G                |
|           W    W  A    A  R    R  N    N  II  N    N   GGGG   !!!           |
|                                                                             |
|      For optimal performance we recommend to set                            |
|        NCORE= 4 - approx SQRT( number of cores)                             |
|      NCORE specifies how many cores store one orbital (NPAR=cpu/NCORE).     |
|      This setting can  greatly improve the performance of VASP for DFT.     |
|      The default,   NCORE=1            might be grossly inefficient         |
|      on modern multi-core architectures or massively parallel machines.     |
|      Do your own testing !!!!                                               |
|      Unfortunately you need to use the default for GW and RPA calculations. |
|      (for HF NCORE is supported but not extensively tested yet)             |
|                                                                             |
 ----------------------------------------------------------------------------- 

 POTCAR:    PAW_PBE Ni 02Aug2007                  
  local pseudopotential read in
  partial core-charges read in
  partial kinetic energy density read in
  atomic valenz-charges read in
  non local Contribution for L=           2  read in
    real space projection operators read in
  non local Contribution for L=           2  read in
    real space projection operators read in
  non local Contribution for L=           0  read in
    real space projection operators read in
  non local Contribution for L=           0  read in
    real space projection operators read in
  non local Contribution for L=           1  read in
    real space projection operators read in
  non local Contribution for L=           1  read in
    real space projection operators read in
    PAW grid and wavefunctions read in
 
   number of l-projection  operators is LMAX  =           6
   number of lm-projection operators is LMMAX =          18
 
 POTCAR:    PAW_PBE O 08Apr2002                   
  local pseudopotential read in
  partial core-charges read in
  partial kinetic energy density read in
  kinetic energy density of atom read in
  atomic valenz-charges read in
  non local Contribution for L=           0  read in
    real space projection operators read in
  non local Contribution for L=           0  read in
    real space projection operators read in
  non local Contribution for L=           1  read in
    real space projection operators read in
  non local Contribution for L=           1  read in
    real space projection operators read in
    PAW grid and wavefunctions read in
 
   number of l-projection  operators is LMAX  =           4
   number of lm-projection operators is LMMAX =           8
 
 Optimization of the real space projectors (new method)

 maximal supplied QI-value         = 16.25
 optimisation between [QCUT,QGAM] = [ 11.38, 22.75] = [ 36.24,144.96] Ry 
 Optimized for a Real-space Cutoff    1.47 Angstroem

   l    n(q)    QCUT    max X(q) W(low)/X(q) W(high)/X(q)  e(spline) 
   2      9    11.376    60.317    0.17E-03    0.16E-04    0.16E-06
   2      9    11.376    55.921    0.17E-03    0.16E-04    0.17E-06
   0     10    11.376    51.690    0.45E-04    0.60E-04    0.21E-06
   0     10    11.376    30.015    0.37E-04    0.55E-04    0.19E-06
   1     10    11.376    18.849    0.83E-04    0.11E-03    0.92E-07
   1     10    11.376    14.624    0.69E-04    0.92E-04    0.82E-07
 Optimization of the real space projectors (new method)

 maximal supplied QI-value         = 24.76
 optimisation between [QCUT,QGAM] = [ 11.39, 22.77] = [ 36.31,145.25] Ry 
 Optimized for a Real-space Cutoff    1.10 Angstroem

   l    n(q)    QCUT    max X(q) W(low)/X(q) W(high)/X(q)  e(spline) 
   0      7    11.387    20.381    0.22E-03    0.48E-03    0.18E-06
   0      7    11.387    15.268    0.22E-03    0.52E-03    0.19E-06
   1      7    11.387     5.964    0.22E-03    0.73E-03    0.24E-06
   1      7    11.387     5.382    0.19E-03    0.60E-03    0.21E-06

 ----------------------------------------------------------------------------- 
|                                                                             |
|  ADVICE TO THIS USER RUNNING 'VASP/VAMP'   (HEAR YOUR MASTER'S VOICE ...):  |
|                                                                             |
|      You enforced a specific xc-type in the INCAR file,                     |
|      a different type was found on the POTCAR file                          |
|          I HOPE YOU KNOW, WHAT YOU ARE  DOING                               |
|                                                                             |
 ----------------------------------------------------------------------------- 

  PAW_PBE Ni 02Aug2007                  :
 energy of atom  1       EATOM=-1077.6739
 kinetic energy error for atom=    0.0030 (will be added to EATOM!!)
  PAW_PBE O 08Apr2002                   :
 energy of atom  2       EATOM= -432.3788
 kinetic energy error for atom=    0.0224 (will be added to EATOM!!)
 
 
 POSCAR: NiO_Fm-3m_scale_0_950_disp_0_15_round_2 
  positions in direct lattice
  No initial velocities read in
 exchange correlation table for  LEXCH =       14
   RHO(1)=    0.500       N(1)  =     2000
   RHO(2)=  100.500       N(2)  =     4000
 


--------------------------------------------------------------------------------------------------------


 ion  position               nearest neighbor table
   1  0.994  0.014  0.004-  50 1.42  40 1.81  43 1.94  36 2.00  35 2.07  28 2.11  34 2.12  19 2.36
                             6 2.50  23 2.52  20 2.55   7 2.56  14 2.59  12 2.62   2 2.67  10 2.77
   2  0.983  0.215  0.281-  49 1.68  36 1.94  39 1.97  35 2.21  33 2.21  19 2.36  24 2.48   1 2.67
                            20 2.75   5 2.86  27 2.93   3 3.04   8 3.04   4 3.09
   3  0.285  0.971  0.295-  41 1.56  38 1.79  52 1.86  36 1.98  26 2.30  34 2.34  33 2.49  10 2.54
                            12 2.55  16 2.59  21 2.66  18 2.83   8 2.92   5 2.93  17 3.01   2 3.04
   4  0.255  0.314  0.012-  42 1.75  37 1.89  35 1.92  33 1.99  51 2.28  15 2.37  34 2.44   6 2.54
                             9 2.56  25 2.65  22 2.79  18 2.92  11 2.97  17 3.05   2 3.09
   5  0.016  0.977  0.556-  47 1.59  54 1.75  40 1.76  38 2.03  14 2.19  36 2.36  39 2.40  32 2.44
                            23 2.60   7 2.68  10 2.70  16 2.76  24 2.85   2 2.86   6 2.91   3 2.93
   6  0.014  0.260  0.800-  35 1.62  37 1.64  53 1.68  40 1.88  39 2.17  20 2.32  48 2.37   1 2.50
                             9 2.52   4 2.54  31 2.69  24 2.82  15 2.84  23 2.86   5 2.91   7 2.92
   7  0.252  0.972  0.806-  45 1.31  34 1.51  56 2.10  12 2.13  37 2.17  40 2.22  38 2.31  14 2.53
                             1 2.56  17 2.67   5 2.68  30 2.71  16 2.72   6 2.92  22 3.05
   8  0.281  0.265  0.526-  38 1.87  55 1.99  37 2.05  33 2.05  46 2.19  39 2.32  29 2.73  22 2.75
                            18 2.76  21 2.84  15 2.91   3 2.92   6 2.99  11 3.01  13 3.03   2 3.04
   9  0.989  0.506  0.007-  48 1.66  58 1.71  35 1.79  44 2.09  43 2.10  42 2.27  31 2.36  20 2.46
                             6 2.52   4 2.56  15 2.71  28 2.79  27 2.79  14 2.92  10 2.99  12 3.07
  10  0.021  0.782  0.271-  36 1.51  57 1.75  44 1.86  47 1.93  41 1.96  19 2.42  43 2.44  11 2.46
                             3 2.54  28 2.64  12 2.68  13 2.69   5 2.70   1 2.77  27 2.81  32 2.82
  11  0.254  0.571  0.292-  41 1.62  46 1.73  44 1.98  33 2.23  60 2.30  16 2.40  42 2.43  10 2.46
                            13 2.58  12 2.79  26 2.79  29 2.80   4 2.97   8 3.01   9 3.08
  12  0.252  0.800  0.018-  34 1.59  45 1.76  41 1.91  43 1.97  59 2.03  42 2.09   7 2.13   3 2.55
                             1 2.62  10 2.68  26 2.77  15 2.78  11 2.79  17 2.81  25 2.82  14 2.88
  13  0.028  0.560  0.533-  46 1.69  47 1.71  44 2.05  62 2.07  48 2.12  39 2.20  16 2.48  14 2.54
                            11 2.58  10 2.69  15 2.75  31 2.77  27 2.78  32 2.81   8 3.03  24 3.07
  14  0.988  0.789  0.762-  61 1.48  43 1.56  48 1.79  40 1.84  47 1.92  45 2.09   5 2.19  23 2.34
                            28 2.38   7 2.53  13 2.54  32 2.58   1 2.59  31 2.67  12 2.88  16 2.90
  15  0.262  0.525  0.793-  42 1.50  48 2.06  45 2.19  37 2.19  46 2.20  64 2.24   4 2.37  25 2.39
                            16 2.64   9 2.71  13 2.75  12 2.78   6 2.84   8 2.91  22 2.94  29 2.96
  16  0.284  0.749  0.541-  46 1.65  45 2.03  63 2.04  47 2.16  38 2.18  41 2.20  11 2.40  13 2.48
                             3 2.59  29 2.62  15 2.64   7 2.72   5 2.76  21 2.76  30 2.83  14 2.90
  17  0.526  0.032  0.001-  56 1.76  51 1.78  59 1.88  34 2.05  52 2.10  50 2.29  22 2.42  30 2.51
                            23 2.59  26 2.64  18 2.66   7 2.67  20 2.73  19 2.75  28 2.79  12 2.81
  18  0.521  0.245  0.266-  51 1.74  52 1.92  49 1.96  33 2.09  55 2.13  60 2.25  17 2.66   8 2.76
                            21 2.79   3 2.83  24 2.86  29 2.90   4 2.92  27 2.93  19 2.94  20 2.99
  19  0.792  0.987  0.226-  57 1.43  36 1.91  49 2.01  50 2.03  52 2.14  28 2.17  54 2.32   1 2.36
                             2 2.36  10 2.42  26 2.56  32 2.73  17 2.75  20 2.84  18 2.94
  20  0.787  0.265  0.992-  53 1.57  35 1.77  51 1.98  49 2.05  50 2.07  58 2.16   6 2.32   9 2.46
                            31 2.53   1 2.55  22 2.64  17 2.73  23 2.74   2 2.75  19 2.84  18 2.99
  21  0.532  0.001  0.527-  55 1.79  63 1.87  52 2.04  54 2.05  38 2.07  56 2.20  32 2.37  30 2.55
                             3 2.66  23 2.68  26 2.68  16 2.76  24 2.78  18 2.79  22 2.80   8 2.84
  22  0.522  0.253  0.782-  55 1.91  51 2.06  53 2.16  64 2.19  37 2.34  17 2.42  20 2.64   8 2.75
                            25 2.76   4 2.79  21 2.80  23 2.80  24 2.86  31 2.89  29 2.90  15 2.94
  23  0.767  0.990  0.777-  61 1.46  50 1.55  40 1.64  54 1.99  56 2.01  53 2.11  30 2.26  28 2.28
                            14 2.34  32 2.48   1 2.52  17 2.59   5 2.60  21 2.68  20 2.74  22 2.80
  24  0.781  0.255  0.524-  39 1.61  62 1.95  55 1.95  54 2.04  53 2.09  49 2.11   2 2.48  21 2.78
                            27 2.79   6 2.82   5 2.85  29 2.85  22 2.86  18 2.86  23 2.86  31 2.89
  25  0.503  0.543  0.981-  64 1.25  42 1.77  59 1.95  58 2.12  60 2.16  51 2.33  15 2.39  30 2.55
                             4 2.65  31 2.68  22 2.76  12 2.82  26 2.91
  26  0.522  0.802  0.248-  52 1.54  59 1.95  41 1.97  63 2.06  60 2.12  57 2.17   3 2.30  19 2.56
                            17 2.64  21 2.68  12 2.77  11 2.79  32 2.83  25 2.91  27 2.93  28 2.93
  27  0.770  0.524  0.289-  60 1.80  44 1.83  62 1.98  49 2.22  57 2.25  58 2.34  29 2.63  13 2.78
                            24 2.79   9 2.79  10 2.81  32 2.82   2 2.93  26 2.93  18 2.93  20 3.08
  28  0.811  0.816  0.007-  50 1.49  43 1.63  61 1.66  57 2.09   1 2.11  58 2.17  19 2.17  23 2.28
                            59 2.35  14 2.38  10 2.64  30 2.69  17 2.79   9 2.79  31 2.93  26 2.93
  29  0.525  0.515  0.520-  62 1.92  63 1.94  60 2.08  46 2.21  55 2.23  64 2.42  16 2.62  27 2.63
                             8 2.73  11 2.80  24 2.85  31 2.89  32 2.89  18 2.90  22 2.90  15 2.96
  30  0.551  0.797  0.782-  56 1.07  59 1.72  61 1.97  64 2.14  63 2.16  23 2.26  45 2.33  17 2.51
                            25 2.55  21 2.55  32 2.62  28 2.69   7 2.71  16 2.83  31 2.86  12 2.97
  31  0.783  0.515  0.786-  58 1.61  48 1.75  64 1.88  62 1.91  53 2.02  61 2.29   9 2.36  20 2.53
                            14 2.67  25 2.68   6 2.69  13 2.77  30 2.86  24 2.89  22 2.89  29 2.89
  32  0.761  0.801  0.521-  54 1.53  63 1.74  57 1.95  47 1.95  61 2.17  62 2.34  21 2.37   5 2.44
                            23 2.48  14 2.58  30 2.62  19 2.73  13 2.81  10 2.82  27 2.82  26 2.83
  33  0.257  0.287  0.265-   4 1.99   8 2.05  18 2.09   2 2.21  11 2.23   3 2.49
  34  0.266  0.001  0.997-   7 1.51  12 1.59  17 2.05   1 2.12   3 2.34   4 2.44
  35  0.012  0.279  0.007-   6 1.62  20 1.77   9 1.79   4 1.92   1 2.07   2 2.21
  36  0.035  0.974  0.254-  10 1.51  19 1.91   2 1.94   3 1.98   1 2.00   5 2.36
  37  0.222  0.247  0.781-   6 1.64   4 1.89   8 2.05   7 2.17  15 2.19  22 2.34
  38  0.268  0.027  0.516-   3 1.79   8 1.87   5 2.03  21 2.07  16 2.18   7 2.31
  39  0.985  0.282  0.524-  24 1.61   2 1.97   6 2.17  13 2.20   8 2.32   5 2.40
  40  0.974  0.023  0.773-  23 1.64   5 1.76   1 1.81  14 1.84   6 1.88   7 2.22
  41  0.271  0.775  0.260-   3 1.56  11 1.62  12 1.91  10 1.96  26 1.97  16 2.20
  42  0.277  0.535  0.984-  15 1.50   4 1.75  25 1.77  12 2.09   9 2.27  11 2.43
  43  0.009  0.770  0.959-  14 1.56  28 1.63   1 1.94  12 1.97   9 2.10  10 2.44
  44  0.003  0.545  0.272-  27 1.83  10 1.86  11 1.98  13 2.05   9 2.09
  45  0.253  0.805  0.793-   7 1.31  12 1.76  16 2.03  14 2.09  15 2.19  30 2.33
  46  0.243  0.543  0.512-  16 1.65  13 1.69  11 1.73   8 2.19  15 2.20  29 2.21
  47  0.010  0.778  0.517-   5 1.59  13 1.71  14 1.92  10 1.93  32 1.95  16 2.16
  48  0.002  0.563  0.803-   9 1.66  31 1.75  14 1.79  15 2.06  13 2.12   6 2.37
  49  0.771  0.243  0.254-   2 1.68  18 1.96  19 2.01  20 2.05  24 2.11  27 2.22
  50  0.816  0.003  0.969-   1 1.42  28 1.49  23 1.55  19 2.03  20 2.07  17 2.29
  51  0.539  0.255  0.045-  18 1.74  17 1.78  20 1.98  22 2.06   4 2.28  25 2.33
  52  0.520  0.999  0.267-  26 1.54   3 1.86  18 1.92  21 2.04  17 2.10  19 2.14
  53  0.798  0.257  0.791-  20 1.57   6 1.68  31 2.02  24 2.09  23 2.11  22 2.16
  54  0.795  0.994  0.524-  32 1.53   5 1.75  23 1.99  24 2.04  21 2.05  19 2.32
  55  0.533  0.231  0.539-  21 1.79  22 1.91  24 1.95   8 1.99  18 2.13  29 2.23
  56  0.517  0.929  0.800-  30 1.07  17 1.76  59 1.89  23 2.01   7 2.10  21 2.20
  57  0.799  0.810  0.274-  19 1.43  10 1.75  32 1.95  28 2.09  26 2.17  27 2.25
  58  0.774  0.541  0.991-  31 1.61   9 1.71  25 2.12  20 2.16  28 2.17  27 2.34
  59  0.511  0.792  0.998-  30 1.72  17 1.88  56 1.89  25 1.95  26 1.95  12 2.03  28 2.35
  60  0.543  0.532  0.255-  27 1.80  29 2.08  26 2.12  25 2.16  18 2.25  11 2.30
  61  0.803  0.808  0.796-  23 1.46  14 1.48  28 1.66  30 1.97  32 2.17  31 2.29
  62  0.770  0.503  0.542-  31 1.91  29 1.92  24 1.95  27 1.98  13 2.07  32 2.34
  63  0.542  0.763  0.508-  32 1.74  21 1.87  29 1.94  16 2.04  26 2.06  30 2.16
  64  0.547  0.528  0.828-  25 1.25  31 1.88  30 2.14  22 2.19  15 2.24  29 2.42
 
  LATTYP: Found a simple cubic cell.
 ALAT       =     7.8088955000
  
  Lattice vectors:
  
 A1 = (   7.8088955000,   0.0000000000,   0.0000000000)
 A2 = (   0.0000000000,   7.8088955000,   0.0000000000)
 A3 = (   0.0000000000,   0.0000000000,   7.8088955000)


Analysis of symmetry for initial positions (statically):
=====================================================================
 Subroutine PRICEL returns:
 Original cell was already a primitive cell.
 

 Routine SETGRP: Setting up the symmetry group for a 
 simple cubic supercell.


 Subroutine GETGRP returns: Found  1 space group operations
 (whereof  1 operations were pure point group operations)
 out of a pool of 48 trial point group operations.


The static configuration has the point symmetry C_1 .


Analysis of symmetry for dynamics (positions and initial velocities):
=====================================================================
 Subroutine PRICEL returns:
 Original cell was already a primitive cell.
 

 Routine SETGRP: Setting up the symmetry group for a 
 simple cubic supercell.


 Subroutine GETGRP returns: Found  1 space group operations
 (whereof  1 operations were pure point group operations)
 out of a pool of 48 trial point group operations.


The dynamic configuration has the point symmetry C_1 .


Analysis of structural, dynamic, and magnetic symmetry:
=====================================================================
 Subroutine PRICEL returns:
 Original cell was already a primitive cell.
 

 Routine SETGRP: Setting up the symmetry group for a 
 simple cubic supercell.


 Subroutine GETGRP returns: Found  1 space group operations
 (whereof  1 operations were pure point group operations)
 out of a pool of 48 trial point group operations.


The magnetic configuration has the point symmetry C_1 .


 Subroutine INISYM returns: Found  1 space group operations
 (whereof  1 operations are pure point group operations),
 and found     1 'primitive' translations

 
 
 KPOINTS: Automatic mesh                          

Automatic generation of k-mesh.
Space group operators:
 irot       det(A)        alpha          n_x          n_y          n_z        tau_x        tau_y        tau_z
    1     1.000000     0.000000     1.000000     0.000000     0.000000     0.000000     0.000000     0.000000
 
 Subroutine IBZKPT returns following result:
 ===========================================
 
 Found     36 irreducible k-points:
 
 Following reciprocal coordinates:
            Coordinates               Weight
  0.000000  0.000000  0.000000      1.000000
  0.250000  0.000000  0.000000      2.000000
  0.500000  0.000000  0.000000      1.000000
  0.000000  0.250000  0.000000      2.000000
  0.250000  0.250000  0.000000      2.000000
  0.500000  0.250000  0.000000      2.000000
 -0.250000  0.250000  0.000000      2.000000
  0.000000  0.500000  0.000000      1.000000
  0.250000  0.500000  0.000000      2.000000
  0.500000  0.500000  0.000000      1.000000
  0.000000  0.000000  0.250000      2.000000
  0.250000  0.000000  0.250000      2.000000
  0.500000  0.000000  0.250000      2.000000
 -0.250000  0.000000  0.250000      2.000000
  0.000000  0.250000  0.250000      2.000000
  0.250000  0.250000  0.250000      2.000000
  0.500000  0.250000  0.250000      2.000000
 -0.250000  0.250000  0.250000      2.000000
  0.000000  0.500000  0.250000      2.000000
  0.250000  0.500000  0.250000      2.000000
  0.500000  0.500000  0.250000      2.000000
 -0.250000  0.500000  0.250000      2.000000
  0.000000 -0.250000  0.250000      2.000000
  0.250000 -0.250000  0.250000      2.000000
  0.500000 -0.250000  0.250000      2.000000
 -0.250000 -0.250000  0.250000      2.000000
  0.000000  0.000000  0.500000      1.000000
  0.250000  0.000000  0.500000      2.000000
  0.500000  0.000000  0.500000      1.000000
  0.000000  0.250000  0.500000      2.000000
  0.250000  0.250000  0.500000      2.000000
  0.500000  0.250000  0.500000      2.000000
 -0.250000  0.250000  0.500000      2.000000
  0.000000  0.500000  0.500000      1.000000
  0.250000  0.500000  0.500000      2.000000
  0.500000  0.500000  0.500000      1.000000
 
 Following cartesian coordinates:
            Coordinates               Weight
  0.000000  0.000000  0.000000      1.000000
  0.032015  0.000000  0.000000      2.000000
  0.064030  0.000000  0.000000      1.000000
  0.000000  0.032015  0.000000      2.000000
  0.032015  0.032015  0.000000      2.000000
  0.064030  0.032015  0.000000      2.000000
 -0.032015  0.032015  0.000000      2.000000
  0.000000  0.064030  0.000000      1.000000
  0.032015  0.064030  0.000000      2.000000
  0.064030  0.064030  0.000000      1.000000
  0.000000  0.000000  0.032015      2.000000
  0.032015  0.000000  0.032015      2.000000
  0.064030  0.000000  0.032015      2.000000
 -0.032015  0.000000  0.032015      2.000000
  0.000000  0.032015  0.032015      2.000000
  0.032015  0.032015  0.032015      2.000000
  0.064030  0.032015  0.032015      2.000000
 -0.032015  0.032015  0.032015      2.000000
  0.000000  0.064030  0.032015      2.000000
  0.032015  0.064030  0.032015      2.000000
  0.064030  0.064030  0.032015      2.000000
 -0.032015  0.064030  0.032015      2.000000
  0.000000 -0.032015  0.032015      2.000000
  0.032015 -0.032015  0.032015      2.000000
  0.064030 -0.032015  0.032015      2.000000
 -0.032015 -0.032015  0.032015      2.000000
  0.000000  0.000000  0.064030      1.000000
  0.032015  0.000000  0.064030      2.000000
  0.064030  0.000000  0.064030      1.000000
  0.000000  0.032015  0.064030      2.000000
  0.032015  0.032015  0.064030      2.000000
  0.064030  0.032015  0.064030      2.000000
 -0.032015  0.032015  0.064030      2.000000
  0.000000  0.064030  0.064030      1.000000
  0.032015  0.064030  0.064030      2.000000
  0.064030  0.064030  0.064030      1.000000
 


--------------------------------------------------------------------------------------------------------




 Dimension of arrays:
   k-points           NKPTS =     36   k-points in BZ     NKDIM =     36   number of bands    NBANDS=    352
   number of dos      NEDOS =    301   number of ions     NIONS =     64
   non local maximal  LDIM  =      6   non local SUM 2l+1 LMDIM =     18
   total plane-waves  NPLWV = 216000
   max r-space proj   IRMAX =   6140   max aug-charges    IRDMAX=  14902
   dimension x,y,z NGX =    60 NGY =   60 NGZ =   60
   dimension x,y,z NGXF=   120 NGYF=  120 NGZF=  120
   support grid    NGXF=   120 NGYF=  120 NGZF=  120
   ions per type =              32  32
   NGX,Y,Z   is equivalent  to a cutoff of  12.77, 12.77, 12.77 a.u.
   NGXF,Y,Z  is equivalent  to a cutoff of  25.55, 25.55, 25.55 a.u.

 SYSTEM =  unknown system                          
 POSCAR =  NiO_Fm-3m_scale_0_950_disp_0_15_round_2 

 Startparameter for this run:
   NWRITE =      1    write-flag & timer
   PREC   = accura    normal or accurate (medium, high low for compatibility)
   ISTART =      0    job   : 0-new  1-cont  2-samecut
   ICHARG =      2    charge: 1-file 2-atom 10-const
   ISPIN  =      2    spin polarized calculation?
   LNONCOLLINEAR =      F non collinear calculations
   LSORBIT =      F    spin-orbit coupling
   INIWAV =      1    electr: 0-lowe 1-rand  2-diag
   LASPH  =      F    aspherical Exc in radial PAW
   METAGGA=      F    non-selfconsistent MetaGGA calc.

 Electronic Relaxation 1
   ENCUT  =  500.0 eV  36.75 Ry    6.06 a.u.  14.24 14.24 14.24*2*pi/ulx,y,z
   ENINI  =  500.0     initial cutoff
   ENAUG  =  605.4 eV  augmentation charge cutoff
   NELM   =     80;   NELMIN=  2; NELMDL= -5     # of ELM steps 
   EDIFF  = 0.1E-04   stopping-criterion for ELM
   LREAL  =      T    real-space projection
   NLSPLINE    = F    spline interpolate recip. space projectors
   LCOMPAT=      F    compatible to vasp.4.4
   GGA_COMPAT  = T    GGA compatible to vasp.4.4-vasp.4.6
   LMAXPAW     = -100 max onsite density
   LMAXMIX     =    2 max onsite mixed and CHGCAR
   VOSKOWN=      1    Vosko Wilk Nusair interpolation
   ROPT   =   -0.00025  -0.00025
 Ionic relaxation
   EDIFFG = 0.1E-03   stopping-criterion for IOM
   NSW    =      0    number of steps for IOM
   NBLOCK =      1;   KBLOCK =      1    inner block; outer block 
   IBRION =     -1    ionic relax: 0-MD 1-quasi-New 2-CG
   NFREE  =      0    steps in history (QN), initial steepest desc. (CG)
   ISIF   =      2    stress and relaxation
   IWAVPR =     10    prediction:  0-non 1-charg 2-wave 3-comb
   ISYM   =      2    0-nonsym 1-usesym 2-fastsym
   LCORR  =      T    Harris-Foulkes like correction to forces

   POTIM  = 0.5000    time-step for ionic-motion
   TEIN   =    0.0    initial temperature
   TEBEG  =    0.0;   TEEND  =   0.0 temperature during run
   SMASS  =  -3.00    Nose mass-parameter (am)
   estimated Nose-frequenzy (Omega)   =  0.10E-29 period in steps =****** mass=  -0.139E-26a.u.
   SCALEE = 1.0000    scale energy and forces
   NPACO  =    256;   APACO  = 16.0  distance and # of slots for P.C.
   PSTRESS=    0.0 pullay stress

  Mass of Ions in am
   POMASS =  58.69 16.00
  Ionic Valenz
   ZVAL   =  10.00  6.00
  Atomic Wigner-Seitz radii
   RWIGS  =   1.15  0.73
  virtual crystal weights 
   VCA    =   1.00  1.00
   NELECT =     512.0000    total number of electrons
   NUPDOWN=      -1.0000    fix difference up-down

 DOS related values:
   EMIN   =  10.00;   EMAX   =-10.00  energy-range for DOS
   EFERMI =   0.00
   ISMEAR =     0;   SIGMA  =   0.05  broadening in eV -4-tet -1-fermi 0-gaus

 Electronic relaxation 2 (details)
   IALGO  =     38    algorithm
   LDIAG  =      T    sub-space diagonalisation (order eigenvalues)
   LSUBROT=      F    optimize rotation matrix (better conditioning)
   TURBO    =      0    0=normal 1=particle mesh
   IRESTART =      0    0=no restart 2=restart with 2 vectors
   NREBOOT  =      0    no. of reboots
   NMIN     =      0    reboot dimension
   EREF     =   0.00    reference energy to select bands
   IMIX   =      4    mixing-type and parameters
     AMIX     =   0.40;   BMIX     =  1.00
     AMIX_MAG =   1.60;   BMIX_MAG =  1.00
     AMIN     =   0.10
     WC   =   100.;   INIMIX=   1;  MIXPRE=   1;  MAXMIX= -45

 Intra band minimization:
   WEIMIN = 0.0000     energy-eigenvalue tresh-hold
   EBREAK =  0.71E-08  absolut break condition
   DEPER  =   0.30     relativ break condition  

   TIME   =   0.40     timestep for ELM

  volume/ion in A,a.u.               =       7.44        50.21
  Fermi-wavevector in a.u.,A,eV,Ry     =   1.677163  3.169378 38.271486  2.812875
  Thomas-Fermi vector in A             =   2.761477
 
 Write flags
   LWAVE        =      F    write WAVECAR
   LDOWNSAMPLE  =      F    k-point downsampling of WAVECAR
   LCHARG       =      T    write CHGCAR
   LVTOT        =      F    write LOCPOT, total local potential
   LVHAR        =      F    write LOCPOT, Hartree potential only
   LELF         =      F    write electronic localiz. function (ELF)
   LORBIT       =      0    0 simple, 1 ext, 2 COOP (PROOUT), +10 PAW based schemes


 Dipole corrections
   LMONO  =      F    monopole corrections only (constant potential shift)
   LDIPOL =      F    correct potential (dipole corrections)
   IDIPOL =      0    1-x, 2-y, 3-z, 4-all directions 
   EPSILON=  1.0000000 bulk dielectric constant

 Exchange correlation treatment:
   GGA     =    PS    GGA type
   LEXCH   =    14    internal setting for exchange type
   VOSKOWN=      1    Vosko Wilk Nusair interpolation
   LHFCALC =     F    Hartree Fock is set to
   LHFONE  =     F    Hartree Fock one center treatment
   AEXX    =    0.0000 exact exchange contribution

 Linear response parameters
   LEPSILON=     F    determine dielectric tensor
   LRPA    =     F    only Hartree local field effects (RPA)
   LNABLA  =     F    use nabla operator in PAW spheres
   LVEL    =     F    velocity operator in full k-point grid
   LINTERFAST=   F  fast interpolation
   KINTER  =     0    interpolate to denser k-point grid
   CSHIFT  =0.1000    complex shift for real part using Kramers Kronig
   OMEGAMAX=  -1.0    maximum frequency
   DEG_THRESHOLD= 0.2000000E-02 threshold for treating states as degnerate
   RTIME   =   -0.100 relaxation time in fs
  (WPLASMAI=    0.000 imaginary part of plasma frequency in eV, 0.658/RTIME)
   DFIELD  = 0.0000000 0.0000000 0.0000000 field for delta impulse in time
 
 Orbital magnetization related:
   ORBITALMAG=     F  switch on orbital magnetization
   LCHIMAG   =     F  perturbation theory with respect to B field
   DQ        =  0.001000  dq finite difference perturbation B field
   LLRAUG    =     F  two centre corrections for induced B field



--------------------------------------------------------------------------------------------------------


 Static calculation
 charge density and potential will be updated during run
 spin polarized calculation
 Variant of blocked Davidson
 Davidson routine will perform the subspace rotation
 perform sub-space diagonalisation
    after iterative eigenvector-optimisation
 modified Broyden-mixing scheme, WC =      100.0
 initial mixing is a Kerker type mixing with AMIX =  0.4000 and BMIX =      1.0000
 Hartree-type preconditioning will be used
 using additional bands           96
 real space projection scheme for non local part
 use partial core corrections
 calculate Harris-corrections to forces 
   (improved forces if not selfconsistent)
 use gradient corrections 
 use of overlap-Matrix (Vanderbilt PP)
 Gauss-broadening in eV      SIGMA  =   0.05


--------------------------------------------------------------------------------------------------------


  energy-cutoff  :      500.00
  volume of cell :      476.18
      direct lattice vectors                 reciprocal lattice vectors
     7.808895500  0.000000000  0.000000000     0.128059083  0.000000000  0.000000000
     0.000000000  7.808895500  0.000000000     0.000000000  0.128059083  0.000000000
     0.000000000  0.000000000  7.808895500     0.000000000  0.000000000  0.128059083

  length of vectors
     7.808895500  7.808895500  7.808895500     0.128059083  0.128059083  0.128059083


 
 k-points in units of 2pi/SCALE and weight: Automatic mesh                          
   0.00000000  0.00000000  0.00000000       0.016
   0.03201477  0.00000000  0.00000000       0.031
   0.06402954  0.00000000  0.00000000       0.016
   0.00000000  0.03201477  0.00000000       0.031
   0.03201477  0.03201477  0.00000000       0.031
   0.06402954  0.03201477  0.00000000       0.031
  -0.03201477  0.03201477  0.00000000       0.031
   0.00000000  0.06402954  0.00000000       0.016
   0.03201477  0.06402954  0.00000000       0.031
   0.06402954  0.06402954  0.00000000       0.016
   0.00000000  0.00000000  0.03201477       0.031
   0.03201477  0.00000000  0.03201477       0.031
   0.06402954  0.00000000  0.03201477       0.031
  -0.03201477  0.00000000  0.03201477       0.031
   0.00000000  0.03201477  0.03201477       0.031
   0.03201477  0.03201477  0.03201477       0.031
   0.06402954  0.03201477  0.03201477       0.031
  -0.03201477  0.03201477  0.03201477       0.031
   0.00000000  0.06402954  0.03201477       0.031
   0.03201477  0.06402954  0.03201477       0.031
   0.06402954  0.06402954  0.03201477       0.031
  -0.03201477  0.06402954  0.03201477       0.031
   0.00000000 -0.03201477  0.03201477       0.031
   0.03201477 -0.03201477  0.03201477       0.031
   0.06402954 -0.03201477  0.03201477       0.031
  -0.03201477 -0.03201477  0.03201477       0.031
   0.00000000  0.00000000  0.06402954       0.016
   0.03201477  0.00000000  0.06402954       0.031
   0.06402954  0.00000000  0.06402954       0.016
   0.00000000  0.03201477  0.06402954       0.031
   0.03201477  0.03201477  0.06402954       0.031
   0.06402954  0.03201477  0.06402954       0.031
  -0.03201477  0.03201477  0.06402954       0.031
   0.00000000  0.06402954  0.06402954       0.016
   0.03201477  0.06402954  0.06402954       0.031
   0.06402954  0.06402954  0.06402954       0.016
 
 k-points in reciprocal lattice and weights: Automatic mesh                          
   0.00000000  0.00000000  0.00000000       0.016
   0.25000000  0.00000000  0.00000000       0.031
   0.50000000  0.00000000  0.00000000       0.016
   0.00000000  0.25000000  0.00000000       0.031
   0.25000000  0.25000000  0.00000000       0.031
   0.50000000  0.25000000  0.00000000       0.031
  -0.25000000  0.25000000  0.00000000       0.031
   0.00000000  0.50000000  0.00000000       0.016
   0.25000000  0.50000000  0.00000000       0.031
   0.50000000  0.50000000  0.00000000       0.016
   0.00000000  0.00000000  0.25000000       0.031
   0.25000000  0.00000000  0.25000000       0.031
   0.50000000  0.00000000  0.25000000       0.031
  -0.25000000  0.00000000  0.25000000       0.031
   0.00000000  0.25000000  0.25000000       0.031
   0.25000000  0.25000000  0.25000000       0.031
   0.50000000  0.25000000  0.25000000       0.031
  -0.25000000  0.25000000  0.25000000       0.031
   0.00000000  0.50000000  0.25000000       0.031
   0.25000000  0.50000000  0.25000000       0.031
   0.50000000  0.50000000  0.25000000       0.031
  -0.25000000  0.50000000  0.25000000       0.031
   0.00000000 -0.25000000  0.25000000       0.031
   0.25000000 -0.25000000  0.25000000       0.031
   0.50000000 -0.25000000  0.25000000       0.031
  -0.25000000 -0.25000000  0.25000000       0.031
   0.00000000  0.00000000  0.50000000       0.016
   0.25000000  0.00000000  0.50000000       0.031
   0.50000000  0.00000000  0.50000000       0.016
   0.00000000  0.25000000  0.50000000       0.031
   0.25000000  0.25000000  0.50000000       0.031
   0.50000000  0.25000000  0.50000000       0.031
  -0.25000000  0.25000000  0.50000000       0.031
   0.00000000  0.50000000  0.50000000       0.016
   0.25000000  0.50000000  0.50000000       0.031
   0.50000000  0.50000000  0.50000000       0.016
 
 position of ions in fractional coordinates (direct lattice) 
   0.99401099  0.01400334  0.00418409
   0.98272947  0.21538967  0.28070042
   0.28480751  0.97091599  0.29464681
   0.25490013  0.31370180  0.01156032
   0.01584066  0.97740209  0.55636786
   0.01369025  0.25968096  0.79973505
   0.25188973  0.97153528  0.80594044
   0.28127375  0.26535618  0.52589403
   0.98921478  0.50646305  0.00689158
   0.02062420  0.78226067  0.27077166
   0.25410195  0.57119937  0.29202470
   0.25171979  0.79962251  0.01805297
   0.02821815  0.55992201  0.53310671
   0.98764222  0.78856631  0.76163928
   0.26246273  0.52457072  0.79286002
   0.28418431  0.74862653  0.54075027
   0.52593965  0.03194132  0.00058795
   0.52060117  0.24456107  0.26636706
   0.79171348  0.98689461  0.22639173
   0.78678632  0.26536547  0.99241241
   0.53182641  0.00099617  0.52730602
   0.52209777  0.25253047  0.78229128
   0.76672238  0.98985439  0.77672795
   0.78114210  0.25460526  0.52358891
   0.50323920  0.54344342  0.98108450
   0.52226988  0.80226982  0.24786287
   0.77035280  0.52412354  0.28947752
   0.81059677  0.81637726  0.00738980
   0.52516148  0.51539578  0.52009867
   0.55063620  0.79741777  0.78230154
   0.78332365  0.51492117  0.78586900
   0.76092178  0.80122748  0.52113239
   0.25670599  0.28693343  0.26529254
   0.26563874  0.00146232  0.99702016
   0.01218275  0.27872966  0.00681547
   0.03481780  0.97394364  0.25425205
   0.22229787  0.24712988  0.78053180
   0.26764721  0.02660495  0.51633434
   0.98501416  0.28151407  0.52388133
   0.97371050  0.02340563  0.77300206
   0.27134635  0.77491035  0.26003901
   0.27711909  0.53484612  0.98354141
   0.00858499  0.76998345  0.95904049
   0.00333971  0.54458728  0.27164624
   0.25277345  0.80471058  0.79280937
   0.24326838  0.54310949  0.51210945
   0.01004519  0.77810441  0.51714381
   0.00216157  0.56290372  0.80280758
   0.77116156  0.24255010  0.25385225
   0.81565417  0.00293296  0.96863922
   0.53867288  0.25455434  0.04493019
   0.52029721  0.99885481  0.26688765
   0.79816379  0.25721347  0.79121779
   0.79466520  0.99395897  0.52353097
   0.53314205  0.23052358  0.53894096
   0.51724199  0.92911477  0.79972817
   0.79885307  0.81003312  0.27407916
   0.77401121  0.54134923  0.99052199
   0.51056671  0.79213822  0.99846856
   0.54307870  0.53166578  0.25494534
   0.80277569  0.80793980  0.79552612
   0.76998311  0.50283150  0.54212108
   0.54238352  0.76300206  0.50815518
   0.54727816  0.52773912  0.82848228
 
 position of ions in cartesian coordinates  (Angst):
   7.76212795  0.10935062  0.03267312
   7.67403174  1.68195542  2.19196025
   2.22403208  7.58178151  2.30086615
   1.99048848  2.44966457  0.09027333
   0.12369806  7.63243078  4.34461848
   0.10690573  2.02782148  6.24504743
   1.96698058  7.58661748  6.29350468
   2.19643732  2.07213868  4.10665152
   7.72467484  3.95491703  0.05381563
   0.16105222  6.10859183  2.11442760
   1.98425557  4.46043619  2.28039037
   1.96565354  6.24416862  0.14097376
   0.22035258  4.37237246  4.16297459
   7.71239489  6.15783191  5.94756155
   2.04954403  4.09631793  6.19136104
   2.21916558  5.84594634  4.22266235
   4.10700777  0.24942643  0.00459124
   4.06532013  1.90975184  2.08003254
   6.18240783  7.70655688  1.76786936
   6.14393215  2.07221122  7.74964480
   4.15297686  0.00777899  4.11767761
   4.07700693  1.97198405  6.10883086
   5.98725494  7.72966949  6.06538739
   6.09985703  1.98818587  4.08865108
   3.92974232  4.24369288  7.66118634
   4.07835092  6.26484119  1.93553525
   6.01560451  4.09282595  2.26049970
   6.32986547  6.37500471  0.05770618
   4.10093112  4.02467179  4.06139616
   4.29986054  6.22695204  6.10891098
   6.11689253  4.02096561  6.13676890
   5.94195866  6.25670166  4.06946838
   2.00459025  2.24063317  2.07164172
   2.07434516  0.01141910  7.78562624
   0.09513382  2.17657079  0.05322129
   0.27188856  7.60542411  1.98542769
   1.73590084  1.92981141  6.09509126
   2.09002909  0.20775527  4.03200090
   7.69187264  2.19831395  4.09093456
   7.60360354  0.18277212  6.03629231
   2.11891529  6.05119395  2.03061746
   2.16399401  4.17655746  7.68037209
   0.06703929  6.01272030  7.48904697
   0.02607945  4.25262516  2.12125710
   1.97388146  6.28390083  6.19096552
   1.89965736  4.24108525  3.99900918
   0.07844184  6.07613603  4.03832197
   0.01687947  4.39565633  6.26904050
   6.02192004  1.89404838  1.98230569
   6.36935818  0.02290318  7.56400245
   4.20644023  1.98778824  0.35085516
   4.06294654  7.79995283  2.08409777
   6.23277763  2.00855311  6.17853704
   6.20545750  7.76172173  4.08819864
   4.16325056  1.80013455  4.20853364
   4.03908865  7.25536015  6.24499371
   6.23816014  6.32546399  2.14025552
   6.04417265  4.22733957  7.73488271
   3.98696208  6.18572458  7.79693665
   4.24084482  4.15172252  1.99084152
   6.26879147  6.30911747  6.21218034
   6.01271764  3.92655864  4.23336686
   4.23541623  5.95820335  3.96813070
   4.27363796  4.12105964  6.46953155
 


--------------------------------------------------------------------------------------------------------


 k-point  1 :   0.0000 0.0000 0.0000  plane waves:   12053
 k-point  2 :   0.2500 0.0000 0.0000  plane waves:   12088
 k-point  3 :   0.5000 0.0000 0.0000  plane waves:   12140
 k-point  4 :   0.0000 0.2500 0.0000  plane waves:   12088
 k-point  5 :   0.2500 0.2500 0.0000  plane waves:   12108
 k-point  6 :   0.5000 0.2500 0.0000  plane waves:   12074
 k-point  7 :  -0.2500 0.2500 0.0000  plane waves:   12108
 k-point  8 :   0.0000 0.5000 0.0000  plane waves:   12140
 k-point  9 :   0.2500 0.5000 0.0000  plane waves:   12074
 k-point 10 :   0.5000 0.5000 0.0000  plane waves:   12168
 k-point 11 :   0.0000 0.0000 0.2500  plane waves:   12088
 k-point 12 :   0.2500 0.0000 0.2500  plane waves:   12108
 k-point 13 :   0.5000 0.0000 0.2500  plane waves:   12074
 k-point 14 :  -0.2500 0.0000 0.2500  plane waves:   12108
 k-point 15 :   0.0000 0.2500 0.2500  plane waves:   12108
 k-point 16 :   0.2500 0.2500 0.2500  plane waves:   12067
 k-point 17 :   0.5000 0.2500 0.2500  plane waves:   12064
 k-point 18 :  -0.2500 0.2500 0.2500  plane waves:   12067
 k-point 19 :   0.0000 0.5000 0.2500  plane waves:   12074
 k-point 20 :   0.2500 0.5000 0.2500  plane waves:   12064
 k-point 21 :   0.5000 0.5000 0.2500  plane waves:   12116
 k-point 22 :  -0.2500 0.5000 0.2500  plane waves:   12064
 k-point 23 :   0.0000-0.2500 0.2500  plane waves:   12108
 k-point 24 :   0.2500-0.2500 0.2500  plane waves:   12067
 k-point 25 :   0.5000-0.2500 0.2500  plane waves:   12064
 k-point 26 :  -0.2500-0.2500 0.2500  plane waves:   12067
 k-point 27 :   0.0000 0.0000 0.5000  plane waves:   12140
 k-point 28 :   0.2500 0.0000 0.5000  plane waves:   12074
 k-point 29 :   0.5000 0.0000 0.5000  plane waves:   12168
 k-point 30 :   0.0000 0.2500 0.5000  plane waves:   12074
 k-point 31 :   0.2500 0.2500 0.5000  plane waves:   12064
 k-point 32 :   0.5000 0.2500 0.5000  plane waves:   12116
 k-point 33 :  -0.2500 0.2500 0.5000  plane waves:   12064
 k-point 34 :   0.0000 0.5000 0.5000  plane waves:   12168
 k-point 35 :   0.2500 0.5000 0.5000  plane waves:   12116
 k-point 36 :   0.5000 0.5000 0.5000  plane waves:   11992

 maximum and minimum number of plane-waves per node :     12168    11992

 maximum number of plane-waves:     12168
 maximum index in each direction: 
   IXMAX=   14   IYMAX=   14   IZMAX=   14
   IXMIN=  -14   IYMIN=  -14   IZMIN=  -14

 The following grids will avoid any aliasing or wrap around errors in the Hartre
 e energy
  - symmetry arguments have not been applied
  - exchange correlation energies might require even more grid points
  - we recommend to set PREC=Normal or Accurate and rely on VASP defaults
 NGX is ok and might be reduce to    60
 NGY is ok and might be reduce to    60
 NGZ is ok and might be reduce to    60

 serial   3D FFT for wavefunctions
 parallel 3D FFT for charge:
    minimum data exchange during FFTs selected (reduces bandwidth)


 total amount of memory used by VASP MPI-rank0   435282. kBytes
=======================================================================

   base      :      30000. kBytes
   nonlr-proj:      42133. kBytes
   fftplans  :       4751. kBytes
   grid      :      26734. kBytes
   one-center:       1990. kBytes
   wavefun   :     329674. kBytes
 
     INWAV:  cpu time    0.0000: real time    0.0000
 Broyden mixing: mesh for mixing (old mesh)
   NGX = 29   NGY = 29   NGZ = 29
  (NGX  =120   NGY  =120   NGZ  =120)
  gives a total of  24389 points

 initial charge density was supplied:
 charge density of overlapping atoms calculated
 number of electron     512.0000000 magnetization      80.0000000
 keeping initial charge density in first step


--------------------------------------------------------------------------------------------------------


 Maximum index for non-local projection operator         5937
 Maximum index for augmentation-charges         1295 (set IRDMAX)


--------------------------------------------------------------------------------------------------------


 First call to EWALD:  gamma=   0.227
 Maximum number of real-space cells 3x 3x 3
 Maximum number of reciprocal cells 3x 3x 3

    FEWALD:  cpu time    0.0033: real time    0.0033


--------------------------------------- Iteration      1(   1)  ---------------------------------------


    POTLOK:  cpu time    0.1447: real time    0.1474
    SETDIJ:  cpu time    0.0257: real time    0.0258
     EDDAV:  cpu time  140.0658: real time  140.3979
    --------------------------------------------
      LOOP:  cpu time  140.2407: real time  140.5756

 eigenvalue-minimisations  : 50688
 total energy-change (2. order) : 0.6897572E+04  (-0.2021378E+05)
 number of electron     512.0000000 magnetization      80.0000000
 augmentation part      512.0000000 magnetization      80.0000000

 Free energy of the ion-electron system (eV)
  ---------------------------------------------------
  alpha Z        PSCENC =      2551.59597371
  Ewald energy   TEWEN  =    -41309.96001154
  -Hartree energ DENC   =    -11953.50315292
  -exchange      EXHF   =         0.00000000
  -V(xc)+E(xc)   XCENC  =      2004.45139624
  PAW double counting   =     41846.49563633   -44035.77946198
  entropy T*S    EENTRO =        -0.00707406
  eigenvalues    EBANDS =      9547.19682004
  atomic energy  EATOM  =     48247.08154143
  Solvation  Ediel_sol  =         0.00000000
  ---------------------------------------------------
  free energy    TOTEN  =      6897.57166725 eV

  energy without entropy =     6897.57874130  energy(sigma->0) =     6897.57520427


--------------------------------------------------------------------------------------------------------




--------------------------------------- Iteration      1(   2)  ---------------------------------------


     EDDAV:  cpu time  138.4789: real time  138.8072
    --------------------------------------------
      LOOP:  cpu time  138.4791: real time  138.8074

 eigenvalue-minimisations  : 50688
 total energy-change (2. order) :-0.5700766E+04  (-0.5111376E+04)
 number of electron     512.0000000 magnetization      80.0000000
 augmentation part      512.0000000 magnetization      80.0000000

 Free energy of the ion-electron system (eV)
  ---------------------------------------------------
  alpha Z        PSCENC =      2551.59597371
  Ewald energy   TEWEN  =    -41309.96001154
  -Hartree energ DENC   =    -11953.50315292
  -exchange      EXHF   =         0.00000000
  -V(xc)+E(xc)   XCENC  =      2004.45139624
  PAW double counting   =     41846.49563633   -44035.77946198
  entropy T*S    EENTRO =        -0.02463123
  eigenvalues    EBANDS =      3846.44848580
  atomic energy  EATOM  =     48247.08154143
  Solvation  Ediel_sol  =         0.00000000
  ---------------------------------------------------
  free energy    TOTEN  =      1196.80577584 eV

  energy without entropy =     1196.83040707  energy(sigma->0) =     1196.81809146


--------------------------------------------------------------------------------------------------------




--------------------------------------- Iteration      1(   3)  ---------------------------------------


     EDDAV:  cpu time  149.3847: real time  149.7389
    --------------------------------------------
      LOOP:  cpu time  149.3848: real time  149.7390

 eigenvalue-minimisations  : 51600
 total energy-change (2. order) :-0.1396858E+04  (-0.1250063E+04)
 number of electron     512.0000000 magnetization      80.0000000
 augmentation part      512.0000000 magnetization      80.0000000

 Free energy of the ion-electron system (eV)
  ---------------------------------------------------
  alpha Z        PSCENC =      2551.59597371
  Ewald energy   TEWEN  =    -41309.96001154
  -Hartree energ DENC   =    -11953.50315292
  -exchange      EXHF   =         0.00000000
  -V(xc)+E(xc)   XCENC  =      2004.45139624
  PAW double counting   =     41846.49563633   -44035.77946198
  entropy T*S    EENTRO =        -0.07801408
  eigenvalues    EBANDS =      2449.64395021
  atomic energy  EATOM  =     48247.08154143
  Solvation  Ediel_sol  =         0.00000000
  ---------------------------------------------------
  free energy    TOTEN  =      -200.05214260 eV

  energy without entropy =     -199.97412852  energy(sigma->0) =     -200.01313556


--------------------------------------------------------------------------------------------------------




--------------------------------------- Iteration      1(   4)  ---------------------------------------


     EDDAV:  cpu time  163.5325: real time  163.9202
    --------------------------------------------
      LOOP:  cpu time  163.5345: real time  163.9222

 eigenvalue-minimisations  : 57392
 total energy-change (2. order) :-0.1599350E+03  (-0.1522757E+03)
 number of electron     512.0000000 magnetization      80.0000000
 augmentation part      512.0000000 magnetization      80.0000000

 Free energy of the ion-electron system (eV)
  ---------------------------------------------------
  alpha Z        PSCENC =      2551.59597371
  Ewald energy   TEWEN  =    -41309.96001154
  -Hartree energ DENC   =    -11953.50315292
  -exchange      EXHF   =         0.00000000
  -V(xc)+E(xc)   XCENC  =      2004.45139624
  PAW double counting   =     41846.49563633   -44035.77946198
  entropy T*S    EENTRO =        -0.08454504
  eigenvalues    EBANDS =      2289.71544641
  atomic energy  EATOM  =     48247.08154143
  Solvation  Ediel_sol  =         0.00000000
  ---------------------------------------------------
  free energy    TOTEN  =      -359.98717737 eV

  energy without entropy =     -359.90263233  energy(sigma->0) =     -359.94490485


--------------------------------------------------------------------------------------------------------




--------------------------------------- Iteration      1(   5)  ---------------------------------------


     EDDAV:  cpu time  161.9813: real time  162.3653
    CHARGE:  cpu time    3.7642: real time    3.7731
    MIXING:  cpu time    0.0039: real time    0.0039
    --------------------------------------------
      LOOP:  cpu time  165.7425: real time  166.1355

 eigenvalue-minimisations  : 57392
 total energy-change (2. order) :-0.4172345E+01  (-0.4139634E+01)
 number of electron     512.0000026 magnetization      64.4897089
 augmentation part      207.2302951 magnetization      51.6078432

 Broyden mixing:
  rms(total) = 0.20669E+02    rms(broyden)= 0.20668E+02
  rms(prec ) = 0.22193E+02
  weight for this iteration     100.00

 Free energy of the ion-electron system (eV)
  ---------------------------------------------------
  alpha Z        PSCENC =      2551.59597371
  Ewald energy   TEWEN  =    -41309.96001154
  -Hartree energ DENC   =    -11953.50315292
  -exchange      EXHF   =         0.00000000
  -V(xc)+E(xc)   XCENC  =      2004.45139624
  PAW double counting   =     41846.49563633   -44035.77946198
  entropy T*S    EENTRO =        -0.08498435
  eigenvalues    EBANDS =      2285.54354077
  atomic energy  EATOM  =     48247.08154143
  Solvation  Ediel_sol  =         0.00000000
  ---------------------------------------------------
  free energy    TOTEN  =      -364.15952231 eV

  energy without entropy =     -364.07453796  energy(sigma->0) =     -364.11703013


--------------------------------------------------------------------------------------------------------




--------------------------------------- Iteration      1(   6)  ---------------------------------------


    POTLOK:  cpu time    0.1291: real time    0.1294
    SETDIJ:  cpu time    0.0256: real time    0.0256
     EDDAV:  cpu time  212.4007: real time  212.9042
    CHARGE:  cpu time    3.4809: real time    3.4892
    MIXING:  cpu time    0.0031: real time    0.0031
    --------------------------------------------
      LOOP:  cpu time  216.0393: real time  216.5515

 eigenvalue-minimisations  : 74896
 total energy-change (2. order) :-0.6143067E+02  (-0.5094981E+02)
 number of electron     512.0000022 magnetization      51.4066091
 augmentation part      225.5725052 magnetization      46.4502544

 Broyden mixing:
  rms(total) = 0.18282E+02    rms(broyden)= 0.18282E+02
  rms(prec ) = 0.24981E+02
  weight for this iteration     100.00

 eigenvalues of (default mixing * dielectric matrix)
  average eigenvalue GAMMA=   0.5027
  0.5027

 Free energy of the ion-electron system (eV)
  ---------------------------------------------------
  alpha Z        PSCENC =      2551.59597371
  Ewald energy   TEWEN  =    -41309.96001154
  -Hartree energ DENC   =    -11714.73687366
  -exchange      EXHF   =         0.00000000
  -V(xc)+E(xc)   XCENC  =      1996.99784830
  PAW double counting   =     50824.90619328   -52915.35592294
  entropy T*S    EENTRO =        -0.03843560
  eigenvalues    EBANDS =      1893.91949214
  atomic energy  EATOM  =     48247.08154143
  Solvation  Ediel_sol  =         0.00000000
  ---------------------------------------------------
  free energy    TOTEN  =      -425.59019488 eV

  energy without entropy =     -425.55175928  energy(sigma->0) =     -425.57097708


--------------------------------------------------------------------------------------------------------




--------------------------------------- Iteration      1(   7)  ---------------------------------------


    POTLOK:  cpu time    0.1202: real time    0.1205
    SETDIJ:  cpu time    0.0260: real time    0.0261
     EDDAV:  cpu time  174.6610: real time  175.0751
    CHARGE:  cpu time    3.8808: real time    3.8900
    MIXING:  cpu time    0.0030: real time    0.0030
    --------------------------------------------
      LOOP:  cpu time  178.6910: real time  179.1146

 eigenvalue-minimisations  : 57616
 total energy-change (2. order) : 0.1369909E+02  (-0.6833733E+02)
 number of electron     512.0000030 magnetization      39.5969344
 augmentation part      221.5216422 magnetization      32.9711737

 Broyden mixing:
  rms(total) = 0.22423E+02    rms(broyden)= 0.22422E+02
  rms(prec ) = 0.26498E+02
  weight for this iteration     100.00

 eigenvalues of (default mixing * dielectric matrix)
  average eigenvalue GAMMA=   0.4288
  0.6842  0.1735

 Free energy of the ion-electron system (eV)
  ---------------------------------------------------
  alpha Z        PSCENC =      2551.59597371
  Ewald energy   TEWEN  =    -41309.96001154
  -Hartree energ DENC   =    -11639.46479085
  -exchange      EXHF   =         0.00000000
  -V(xc)+E(xc)   XCENC  =      1990.24644101
  PAW double counting   =     53775.61488729   -55964.72670828
  entropy T*S    EENTRO =        -0.05529605
  eigenvalues    EBANDS =      1937.77686002
  atomic energy  EATOM  =     48247.08154143
  Solvation  Ediel_sol  =         0.00000000
  ---------------------------------------------------
  free energy    TOTEN  =      -411.89110326 eV

  energy without entropy =     -411.83580720  energy(sigma->0) =     -411.86345523


--------------------------------------------------------------------------------------------------------




--------------------------------------- Iteration      1(   8)  ---------------------------------------


    POTLOK:  cpu time    0.1209: real time    0.1212
    SETDIJ:  cpu time    0.0263: real time    0.0264
     EDDAV:  cpu time  178.0781: real time  178.5004
    CHARGE:  cpu time    3.6207: real time    3.6293
    MIXING:  cpu time    0.0033: real time    0.0033
    --------------------------------------------
      LOOP:  cpu time  181.8495: real time  182.2807

 eigenvalue-minimisations  : 67408
 total energy-change (2. order) :-0.3453260E+02  (-0.3378997E+02)
 number of electron     512.0000021 magnetization      29.1006805
 augmentation part      216.3263385 magnetization      25.6030317

 Broyden mixing:
  rms(total) = 0.21039E+02    rms(broyden)= 0.21038E+02
  rms(prec ) = 0.29984E+02
  weight for this iteration     100.00

 eigenvalues of (default mixing * dielectric matrix)
  average eigenvalue GAMMA=   0.4599
  0.8942  0.2428  0.2428

 Free energy of the ion-electron system (eV)
  ---------------------------------------------------
  alpha Z        PSCENC =      2551.59597371
  Ewald energy   TEWEN  =    -41309.96001154
  -Hartree energ DENC   =    -11704.93014824
  -exchange      EXHF   =         0.00000000
  -V(xc)+E(xc)   XCENC  =      1988.82061812
  PAW double counting   =     57429.63806866   -59717.93363995
  entropy T*S    EENTRO =        -0.03843127
  eigenvalues    EBANDS =      2069.30232721
  atomic energy  EATOM  =     48247.08154143
  Solvation  Ediel_sol  =         0.00000000
  ---------------------------------------------------
  free energy    TOTEN  =      -446.42370187 eV

  energy without entropy =     -446.38527060  energy(sigma->0) =     -446.40448624


--------------------------------------------------------------------------------------------------------




--------------------------------------- Iteration      1(   9)  ---------------------------------------


    POTLOK:  cpu time    0.1215: real time    0.1218
    SETDIJ:  cpu time    0.0259: real time    0.0259
     EDDAV:  cpu time  177.7671: real time  178.1886
    CHARGE:  cpu time    3.6469: real time    3.6555
    MIXING:  cpu time    0.0034: real time    0.0034
    --------------------------------------------
      LOOP:  cpu time  181.5647: real time  181.9952

 eigenvalue-minimisations  : 64208
 total energy-change (2. order) : 0.3903154E+02  (-0.3671479E+02)
 number of electron     512.0000026 magnetization      18.1035720
 augmentation part      215.3886451 magnetization      13.5265410

 Broyden mixing:
  rms(total) = 0.15346E+02    rms(broyden)= 0.15346E+02
  rms(prec ) = 0.21069E+02
  weight for this iteration     100.00

 eigenvalues of (default mixing * dielectric matrix)
  average eigenvalue GAMMA=   0.6086
  1.4855  0.5372  0.2728  0.1390

 Free energy of the ion-electron system (eV)
  ---------------------------------------------------
  alpha Z        PSCENC =      2551.59597371
  Ewald energy   TEWEN  =    -41309.96001154
  -Hartree energ DENC   =    -11765.88523904
  -exchange      EXHF   =         0.00000000
  -V(xc)+E(xc)   XCENC  =      1988.11603504
  PAW double counting   =     60413.09757347   -62764.23744150
  entropy T*S    EENTRO =        -0.05930988
  eigenvalues    EBANDS =      2232.85871296
  atomic energy  EATOM  =     48247.08154143
  Solvation  Ediel_sol  =         0.00000000
  ---------------------------------------------------
  free energy    TOTEN  =      -407.39216534 eV

  energy without entropy =     -407.33285546  energy(sigma->0) =     -407.36251040


--------------------------------------------------------------------------------------------------------




--------------------------------------- Iteration      1(  10)  ---------------------------------------


    POTLOK:  cpu time    0.1186: real time    0.1189
    SETDIJ:  cpu time    0.0256: real time    0.0257
     EDDAV:  cpu time  171.6492: real time  172.0563
    CHARGE:  cpu time    4.2549: real time    4.2650
    MIXING:  cpu time    0.0035: real time    0.0035
    --------------------------------------------
      LOOP:  cpu time  176.0519: real time  176.4693

 eigenvalue-minimisations  : 63616
 total energy-change (2. order) :-0.1315666E+03  (-0.4040713E+02)
 number of electron     512.0000031 magnetization       1.6840246
 augmentation part      217.2001127 magnetization      -0.4246440

 Broyden mixing:
  rms(total) = 0.16708E+02    rms(broyden)= 0.16707E+02
  rms(prec ) = 0.26731E+02
  weight for this iteration     100.00

 eigenvalues of (default mixing * dielectric matrix)
  average eigenvalue GAMMA=   0.6515
  2.1186  0.5608  0.2655  0.1563  0.1563

 Free energy of the ion-electron system (eV)
  ---------------------------------------------------
  alpha Z        PSCENC =      2551.59597371
  Ewald energy   TEWEN  =    -41309.96001154
  -Hartree energ DENC   =    -11730.01121555
  -exchange      EXHF   =         0.00000000
  -V(xc)+E(xc)   XCENC  =      1985.81333427
  PAW double counting   =     63610.58714938   -66003.06965347
  entropy T*S    EENTRO =        -0.02875108
  eigenvalues    EBANDS =      2109.03287065
  atomic energy  EATOM  =     48247.08154143
  Solvation  Ediel_sol  =         0.00000000
  ---------------------------------------------------
  free energy    TOTEN  =      -538.95876219 eV

  energy without entropy =     -538.93001112  energy(sigma->0) =     -538.94438666


--------------------------------------------------------------------------------------------------------




--------------------------------------- Iteration      1(  11)  ---------------------------------------


    POTLOK:  cpu time    0.1227: real time    0.1230
    SETDIJ:  cpu time    0.0265: real time    0.0266
     EDDAV:  cpu time  154.0970: real time  154.4623
    CHARGE:  cpu time    3.6308: real time    3.6394
    MIXING:  cpu time    0.0037: real time    0.0037
    --------------------------------------------
      LOOP:  cpu time  157.8807: real time  158.2550

 eigenvalue-minimisations  : 58624
 total energy-change (2. order) : 0.1486118E+03  (-0.1991759E+02)
 number of electron     512.0000031 magnetization      -1.0564396
 augmentation part      219.0268637 magnetization      -1.3889071

 Broyden mixing:
  rms(total) = 0.12712E+02    rms(broyden)= 0.12711E+02
  rms(prec ) = 0.19325E+02
  weight for this iteration     100.00

 eigenvalues of (default mixing * dielectric matrix)
  average eigenvalue GAMMA=   0.6022
  2.2062  0.5307  0.2857  0.2857  0.1526  0.1526

 Free energy of the ion-electron system (eV)
  ---------------------------------------------------
  alpha Z        PSCENC =      2551.59597371
  Ewald energy   TEWEN  =    -41309.96001154
  -Hartree energ DENC   =    -11707.17068005
  -exchange      EXHF   =         0.00000000
  -V(xc)+E(xc)   XCENC  =      1984.72820332
  PAW double counting   =     68315.98205615   -70769.22143681
  entropy T*S    EENTRO =        -0.04711103
  eigenvalues    EBANDS =      2296.66446355
  atomic energy  EATOM  =     48247.08154143
  Solvation  Ediel_sol  =         0.00000000
  ---------------------------------------------------
  free energy    TOTEN  =      -390.34700126 eV

  energy without entropy =     -390.29989023  energy(sigma->0) =     -390.32344574


--------------------------------------------------------------------------------------------------------




--------------------------------------- Iteration      1(  12)  ---------------------------------------


    POTLOK:  cpu time    0.1246: real time    0.1249
    SETDIJ:  cpu time    0.0264: real time    0.0265
     EDDAV:  cpu time  178.2795: real time  178.7021
    CHARGE:  cpu time    3.6577: real time    3.6664
    MIXING:  cpu time    0.0037: real time    0.0037
    --------------------------------------------
      LOOP:  cpu time  182.0920: real time  182.5237

 eigenvalue-minimisations  : 63232
 total energy-change (2. order) : 0.3128079E+02  (-0.1712688E+02)
 number of electron     512.0000025 magnetization      -0.8871378
 augmentation part      219.7428880 magnetization      -1.1618144

 Broyden mixing:
  rms(total) = 0.10680E+02    rms(broyden)= 0.10679E+02
  rms(prec ) = 0.16270E+02
  weight for this iteration     100.00

 eigenvalues of (default mixing * dielectric matrix)
  average eigenvalue GAMMA=   0.5430
  2.1214  0.4829  0.3688  0.3688  0.1588  0.1588  0.1419

 Free energy of the ion-electron system (eV)
  ---------------------------------------------------
  alpha Z        PSCENC =      2551.59597371
  Ewald energy   TEWEN  =    -41309.96001154
  -Hartree energ DENC   =    -11700.01688656
  -exchange      EXHF   =         0.00000000
  -V(xc)+E(xc)   XCENC  =      1983.65064794
  PAW double counting   =     69088.52232069   -71552.77324421
  entropy T*S    EENTRO =        -0.05302891
  eigenvalues    EBANDS =      2332.88647265
  atomic energy  EATOM  =     48247.08154143
  Solvation  Ediel_sol  =         0.00000000
  ---------------------------------------------------
  free energy    TOTEN  =      -359.06621479 eV

  energy without entropy =     -359.01318588  energy(sigma->0) =     -359.03970034


--------------------------------------------------------------------------------------------------------




--------------------------------------- Iteration      1(  13)  ---------------------------------------


    POTLOK:  cpu time    0.1221: real time    0.1224
    SETDIJ:  cpu time    0.0264: real time    0.0264
     EDDAV:  cpu time  155.8684: real time  156.2380
    CHARGE:  cpu time    3.6278: real time    3.6364
    MIXING:  cpu time    0.0039: real time    0.0039
    --------------------------------------------
      LOOP:  cpu time  159.6486: real time  160.0272

 eigenvalue-minimisations  : 58688
 total energy-change (2. order) : 0.2939444E+02  (-0.1025054E+02)
 number of electron     512.0000027 magnetization       0.1107435
 augmentation part      220.2414110 magnetization       0.0298262

 Broyden mixing:
  rms(total) = 0.87191E+01    rms(broyden)= 0.87182E+01
  rms(prec ) = 0.12967E+02
  weight for this iteration     100.00

 eigenvalues of (default mixing * dielectric matrix)
  average eigenvalue GAMMA=   0.4929
  2.0149  0.4544  0.4159  0.4159  0.1815  0.1815  0.1394  0.1394

 Free energy of the ion-electron system (eV)
  ---------------------------------------------------
  alpha Z        PSCENC =      2551.59597371
  Ewald energy   TEWEN  =    -41309.96001154
  -Hartree energ DENC   =    -11687.22848995
  -exchange      EXHF   =         0.00000000
  -V(xc)+E(xc)   XCENC  =      1982.19990052
  PAW double counting   =     68960.25077874   -71423.14814653
  entropy T*S    EENTRO =        -0.05397717
  eigenvalues    EBANDS =      2349.59065208
  atomic energy  EATOM  =     48247.08154143
  Solvation  Ediel_sol  =         0.00000000
  ---------------------------------------------------
  free energy    TOTEN  =      -329.67177872 eV

  energy without entropy =     -329.61780154  energy(sigma->0) =     -329.64479013


--------------------------------------------------------------------------------------------------------




--------------------------------------- Iteration      1(  14)  ---------------------------------------


    POTLOK:  cpu time    0.1273: real time    0.1276
    SETDIJ:  cpu time    0.0266: real time    0.0267
     EDDAV:  cpu time  179.0435: real time  179.4679
    CHARGE:  cpu time    3.7363: real time    3.7452
    MIXING:  cpu time    0.0040: real time    0.0040
    --------------------------------------------
      LOOP:  cpu time  182.9377: real time  183.3714

 eigenvalue-minimisations  : 67120
 total energy-change (2. order) : 0.2084431E+02  (-0.6592589E+01)
 number of electron     512.0000026 magnetization       1.6870625
 augmentation part      220.4174969 magnetization       1.3910271

 Broyden mixing:
  rms(total) = 0.71311E+01    rms(broyden)= 0.71302E+01
  rms(prec ) = 0.10420E+02
  weight for this iteration     100.00

 eigenvalues of (default mixing * dielectric matrix)
  average eigenvalue GAMMA=   0.4554
  1.8971  0.5065  0.5065  0.3515  0.2132  0.2132  0.1435  0.1435  0.1239

 Free energy of the ion-electron system (eV)
  ---------------------------------------------------
  alpha Z        PSCENC =      2551.59597371
  Ewald energy   TEWEN  =    -41309.96001154
  -Hartree energ DENC   =    -11679.35101291
  -exchange      EXHF   =         0.00000000
  -V(xc)+E(xc)   XCENC  =      1981.61271144
  PAW double counting   =     68587.27226590   -71045.18685269
  entropy T*S    EENTRO =        -0.05649549
  eigenvalues    EBANDS =      2358.16441361
  atomic energy  EATOM  =     48247.08154143
  Solvation  Ediel_sol  =         0.00000000
  ---------------------------------------------------
  free energy    TOTEN  =      -308.82746654 eV

  energy without entropy =     -308.77097105  energy(sigma->0) =     -308.79921879


--------------------------------------------------------------------------------------------------------




--------------------------------------- Iteration      1(  15)  ---------------------------------------


    POTLOK:  cpu time    0.1254: real time    0.1257
    SETDIJ:  cpu time    0.0261: real time    0.0262
     EDDAV:  cpu time  173.6330: real time  174.0447
    CHARGE:  cpu time    3.5500: real time    3.5584
    MIXING:  cpu time    0.0043: real time    0.0043
    --------------------------------------------
      LOOP:  cpu time  177.3388: real time  177.7593

 eigenvalue-minimisations  : 64256
 total energy-change (2. order) : 0.8231801E+01  (-0.4987518E+01)
 number of electron     512.0000025 magnetization       2.3786035
 augmentation part      219.9085050 magnetization       2.1386227

 Broyden mixing:
  rms(total) = 0.48003E+01    rms(broyden)= 0.47995E+01
  rms(prec ) = 0.67220E+01
  weight for this iteration     100.00

 eigenvalues of (default mixing * dielectric matrix)
  average eigenvalue GAMMA=   0.4385
  1.8146  0.5428  0.5428  0.3624  0.3624  0.1838  0.1838  0.1327  0.1327  0.1265

 Free energy of the ion-electron system (eV)
  ---------------------------------------------------
  alpha Z        PSCENC =      2551.59597371
  Ewald energy   TEWEN  =    -41309.96001154
  -Hartree energ DENC   =    -11680.62354705
  -exchange      EXHF   =         0.00000000
  -V(xc)+E(xc)   XCENC  =      1981.00689602
  PAW double counting   =     68071.90366219   -70523.35375448
  entropy T*S    EENTRO =        -0.05508588
  eigenvalues    EBANDS =      2361.80866049
  atomic energy  EATOM  =     48247.08154143
  Solvation  Ediel_sol  =         0.00000000
  ---------------------------------------------------
  free energy    TOTEN  =      -300.59566512 eV

  energy without entropy =     -300.54057923  energy(sigma->0) =     -300.56812217


--------------------------------------------------------------------------------------------------------




--------------------------------------- Iteration      1(  16)  ---------------------------------------


    POTLOK:  cpu time    0.1204: real time    0.1207
    SETDIJ:  cpu time    0.0262: real time    0.0262
     EDDAV:  cpu time  175.5328: real time  175.9490
    CHARGE:  cpu time    3.8726: real time    3.8818
    MIXING:  cpu time    0.0045: real time    0.0045
    --------------------------------------------
      LOOP:  cpu time  179.5565: real time  179.9822

 eigenvalue-minimisations  : 67328
 total energy-change (2. order) : 0.2534710E+01  (-0.1273751E+01)
 number of electron     512.0000028 magnetization       2.2141804
 augmentation part      219.4453000 magnetization       2.0090163

 Broyden mixing:
  rms(total) = 0.47139E+01    rms(broyden)= 0.47133E+01
  rms(prec ) = 0.68288E+01
  weight for this iteration     100.00

 eigenvalues of (default mixing * dielectric matrix)
  average eigenvalue GAMMA=   0.4274
  1.8195  0.6045  0.6045  0.4398  0.3212  0.1885  0.1885  0.1432  0.1432  0.1245
  0.1245

 Free energy of the ion-electron system (eV)
  ---------------------------------------------------
  alpha Z        PSCENC =      2551.59597371
  Ewald energy   TEWEN  =    -41309.96001154
  -Hartree energ DENC   =    -11681.47502635
  -exchange      EXHF   =         0.00000000
  -V(xc)+E(xc)   XCENC  =      1980.79961794
  PAW double counting   =     67773.58300849   -70219.04454351
  entropy T*S    EENTRO =        -0.06201427
  eigenvalues    EBANDS =      2359.42049868
  atomic energy  EATOM  =     48247.08154143
  Solvation  Ediel_sol  =         0.00000000
  ---------------------------------------------------
  free energy    TOTEN  =      -298.06095542 eV

  energy without entropy =     -297.99894115  energy(sigma->0) =     -298.02994828


--------------------------------------------------------------------------------------------------------




--------------------------------------- Iteration      1(  17)  ---------------------------------------


    POTLOK:  cpu time    0.1222: real time    0.1224
    SETDIJ:  cpu time    0.0256: real time    0.0256
     EDDAV:  cpu time  170.0901: real time  170.4934
    CHARGE:  cpu time    3.8685: real time    3.8776
    MIXING:  cpu time    0.0047: real time    0.0048
    --------------------------------------------
      LOOP:  cpu time  174.1110: real time  174.5239

 eigenvalue-minimisations  : 65312
 total energy-change (2. order) : 0.2672326E+01  (-0.1239349E+01)
 number of electron     512.0000027 magnetization       1.7433184
 augmentation part      219.4795243 magnetization       1.4707534

 Broyden mixing:
  rms(total) = 0.40582E+01    rms(broyden)= 0.40576E+01
  rms(prec ) = 0.56474E+01
  weight for this iteration     100.00

 eigenvalues of (default mixing * dielectric matrix)
  average eigenvalue GAMMA=   0.4215
  1.8239  0.6542  0.6542  0.4550  0.2833  0.2833  0.2031  0.2031  0.1366  0.1366
  0.1174  0.1071

 Free energy of the ion-electron system (eV)
  ---------------------------------------------------
  alpha Z        PSCENC =      2551.59597371
  Ewald energy   TEWEN  =    -41309.96001154
  -Hartree energ DENC   =    -11680.34356267
  -exchange      EXHF   =         0.00000000
  -V(xc)+E(xc)   XCENC  =      1980.68683031
  PAW double counting   =     67685.70061316   -70123.97854070
  entropy T*S    EENTRO =        -0.06019929
  eigenvalues    EBANDS =      2353.88872610
  atomic energy  EATOM  =     48247.08154143
  Solvation  Ediel_sol  =         0.00000000
  ---------------------------------------------------
  free energy    TOTEN  =      -295.38862949 eV

  energy without entropy =     -295.32843020  energy(sigma->0) =     -295.35852985


--------------------------------------------------------------------------------------------------------




--------------------------------------- Iteration      1(  18)  ---------------------------------------


    POTLOK:  cpu time    0.1226: real time    0.1229
    SETDIJ:  cpu time    0.0262: real time    0.0263
     EDDAV:  cpu time  177.4181: real time  177.8387
    CHARGE:  cpu time    4.1154: real time    4.1252
    MIXING:  cpu time    0.0048: real time    0.0048
    --------------------------------------------
      LOOP:  cpu time  181.6872: real time  182.1179

 eigenvalue-minimisations  : 63008
 total energy-change (2. order) : 0.1640720E+01  (-0.5194611E+00)
 number of electron     512.0000024 magnetization       1.4381308
 augmentation part      219.4692033 magnetization       1.2923190

 Broyden mixing:
  rms(total) = 0.36199E+01    rms(broyden)= 0.36196E+01
  rms(prec ) = 0.52228E+01
  weight for this iteration     100.00

 eigenvalues of (default mixing * dielectric matrix)
  average eigenvalue GAMMA=   0.4310
  1.7823  0.7860  0.7860  0.4512  0.3757  0.3757  0.1923  0.1923  0.1409  0.1409
  0.1551  0.1126  0.1126

 Free energy of the ion-electron system (eV)
  ---------------------------------------------------
  alpha Z        PSCENC =      2551.59597371
  Ewald energy   TEWEN  =    -41309.96001154
  -Hartree energ DENC   =    -11678.61169964
  -exchange      EXHF   =         0.00000000
  -V(xc)+E(xc)   XCENC  =      1980.63055586
  PAW double counting   =     67738.17708040   -70171.82312003
  entropy T*S    EENTRO =        -0.06241581
  eigenvalues    EBANDS =      2349.22418651
  atomic energy  EATOM  =     48247.08154143
  Solvation  Ediel_sol  =         0.00000000
  ---------------------------------------------------
  free energy    TOTEN  =      -293.74790910 eV

  energy without entropy =     -293.68549330  energy(sigma->0) =     -293.71670120


--------------------------------------------------------------------------------------------------------




--------------------------------------- Iteration      1(  19)  ---------------------------------------


    POTLOK:  cpu time    0.1503: real time    0.1507
    SETDIJ:  cpu time    0.0349: real time    0.0350
     EDDAV:  cpu time  207.5256: real time  208.0176
    CHARGE:  cpu time    4.5121: real time    4.5228
    MIXING:  cpu time    0.0061: real time    0.0061
    --------------------------------------------
      LOOP:  cpu time  212.2290: real time  212.7320

 eigenvalue-minimisations  : 72272
 total energy-change (2. order) : 0.1668330E+01  (-0.5066225E+00)
 number of electron     512.0000026 magnetization       0.8825160
 augmentation part      219.3798171 magnetization       0.8046746

 Broyden mixing:
  rms(total) = 0.31973E+01    rms(broyden)= 0.31969E+01
  rms(prec ) = 0.43825E+01
  weight for this iteration     100.00

 eigenvalues of (default mixing * dielectric matrix)
  average eigenvalue GAMMA=   0.4332
  1.7895  0.9092  0.9092  0.4238  0.4238  0.3489  0.2507  0.2036  0.2036  0.1363
  0.1363  0.1192  0.1140  0.0973

 Free energy of the ion-electron system (eV)
  ---------------------------------------------------
  alpha Z        PSCENC =      2551.59597371
  Ewald energy   TEWEN  =    -41309.96001154
  -Hartree energ DENC   =    -11675.17792736
  -exchange      EXHF   =         0.00000000
  -V(xc)+E(xc)   XCENC  =      1980.50190246
  PAW double counting   =     67705.21530442   -70130.67514215
  entropy T*S    EENTRO =        -0.06424998
  eigenvalues    EBANDS =      2339.40303032
  atomic energy  EATOM  =     48247.08154143
  Solvation  Ediel_sol  =         0.00000000
  ---------------------------------------------------
  free energy    TOTEN  =      -292.07957870 eV

  energy without entropy =     -292.01532872  energy(sigma->0) =     -292.04745371


--------------------------------------------------------------------------------------------------------




--------------------------------------- Iteration      1(  20)  ---------------------------------------


    POTLOK:  cpu time    0.1707: real time    0.1712
    SETDIJ:  cpu time    0.0387: real time    0.0388
     EDDAV:  cpu time  197.6414: real time  198.1099
    CHARGE:  cpu time    4.6912: real time    4.7024
    MIXING:  cpu time    0.0071: real time    0.0071
    --------------------------------------------
      LOOP:  cpu time  202.5491: real time  203.0293

 eigenvalue-minimisations  : 69712
 total energy-change (2. order) : 0.8725905E+00  (-0.3656325E+00)
 number of electron     512.0000022 magnetization      -0.0517624
 augmentation part      219.3717700 magnetization      -0.1226588

 Broyden mixing:
  rms(total) = 0.28886E+01    rms(broyden)= 0.28882E+01
  rms(prec ) = 0.42817E+01
  weight for this iteration     100.00

 eigenvalues of (default mixing * dielectric matrix)
  average eigenvalue GAMMA=   0.4609
  1.8072  1.1325  1.1325  0.4776  0.4776  0.3565  0.3565  0.2068  0.2068  0.1546
  0.1361  0.1361  0.1175  0.1175  0.0976

 Free energy of the ion-electron system (eV)
  ---------------------------------------------------
  alpha Z        PSCENC =      2551.59597371
  Ewald energy   TEWEN  =    -41309.96001154
  -Hartree energ DENC   =    -11675.69086959
  -exchange      EXHF   =         0.00000000
  -V(xc)+E(xc)   XCENC  =      1980.46023797
  PAW double counting   =     67726.17936156   -70144.51054694
  entropy T*S    EENTRO =        -0.06158428
  eigenvalues    EBANDS =      2333.69890943
  atomic energy  EATOM  =     48247.08154143
  Solvation  Ediel_sol  =         0.00000000
  ---------------------------------------------------
  free energy    TOTEN  =      -291.20698825 eV

  energy without entropy =     -291.14540397  energy(sigma->0) =     -291.17619611


--------------------------------------------------------------------------------------------------------




--------------------------------------- Iteration      1(  21)  ---------------------------------------


    POTLOK:  cpu time    0.1561: real time    0.1564
    SETDIJ:  cpu time    0.0364: real time    0.0365
     EDDAV:  cpu time  187.5813: real time  188.0260
    CHARGE:  cpu time    3.7047: real time    3.7135
    MIXING:  cpu time    0.0061: real time    0.0061
    --------------------------------------------
      LOOP:  cpu time  191.4845: real time  191.9385

 eigenvalue-minimisations  : 66464
 total energy-change (2. order) : 0.1052101E+01  (-0.4155643E+00)
 number of electron     512.0000026 magnetization      -0.9351187
 augmentation part      219.4445318 magnetization      -0.6864036

 Broyden mixing:
  rms(total) = 0.23149E+01    rms(broyden)= 0.23142E+01
  rms(prec ) = 0.31490E+01
  weight for this iteration     100.00

 eigenvalues of (default mixing * dielectric matrix)
  average eigenvalue GAMMA=   0.4889
  1.8350  1.3822  1.3822  0.5240  0.5240  0.4473  0.2906  0.2906  0.2078  0.2078
  0.1377  0.1377  0.1340  0.1138  0.1138  0.0938

 Free energy of the ion-electron system (eV)
  ---------------------------------------------------
  alpha Z        PSCENC =      2551.59597371
  Ewald energy   TEWEN  =    -41309.96001154
  -Hartree energ DENC   =    -11676.83285575
  -exchange      EXHF   =         0.00000000
  -V(xc)+E(xc)   XCENC  =      1980.44662328
  PAW double counting   =     67756.39290564   -70161.77566013
  entropy T*S    EENTRO =        -0.07227330
  eigenvalues    EBANDS =      2322.96886912
  atomic energy  EATOM  =     48247.08154143
  Solvation  Ediel_sol  =         0.00000000
  ---------------------------------------------------
  free energy    TOTEN  =      -290.15488753 eV

  energy without entropy =     -290.08261424  energy(sigma->0) =     -290.11875088


--------------------------------------------------------------------------------------------------------




--------------------------------------- Iteration      1(  22)  ---------------------------------------


[...]
   0.143E+03 -.292E+03 -.183E+03   -.145E+03 0.298E+03 0.187E+03   0.201E+01 -.368E+01 -.110E+01   -.159E-01 -.116E-01 -.541E-01
   0.160E+03 -.235E+03 -.148E+03   -.162E+03 0.238E+03 0.147E+03   0.312E+00 -.120E+01 0.308E+01   -.727E-01 0.335E-01 0.130E+00
   0.213E+03 -.360E+03 -.183E+03   -.218E+03 0.381E+03 0.185E+03   0.172E+01 -.132E+01 -.390E+01   0.492E-01 -.924E-02 -.306E-01
   0.267E+03 -.201E+03 -.329E+03   -.275E+03 0.203E+03 0.341E+03   0.366E+01 -.124E+01 -.895E+00   0.460E-01 0.423E-01 -.547E-01
   0.168E+03 -.208E+03 0.492E+02   -.171E+03 0.212E+03 -.504E+02   0.213E+01 -.353E+01 0.138E+01   -.111E+00 0.225E-01 0.376E-01
   0.197E+03 -.121E+03 0.112E+03   -.198E+03 0.121E+03 -.114E+03   0.567E+00 0.685E+00 0.209E+01   -.417E-01 0.905E-01 -.133E+00
   0.410E+03 -.459E+03 0.332E+03   -.422E+03 0.484E+03 -.348E+03   -.105E+01 -.543E+01 0.344E+01   0.112E-01 -.206E-01 0.640E-02
   0.176E+03 -.125E+03 0.127E+03   -.181E+03 0.127E+03 -.126E+03   -.165E+01 -.247E+01 -.313E+00   -.103E+00 -.672E-02 0.482E-01
   0.440E+02 0.194E+03 -.476E+03   -.536E+02 -.191E+03 0.530E+03   -.184E+01 -.377E+00 -.338E+01   -.400E-02 -.134E-02 -.946E-01
   -.356E+02 0.334E+03 -.489E+02   0.388E+02 -.348E+03 0.483E+02   -.160E+01 0.199E+01 0.931E-01   -.653E-01 -.180E-01 0.858E-01
   0.877E+02 0.146E+03 0.192E+02   -.889E+02 -.146E+03 -.198E+02   0.122E+01 0.196E+00 -.239E+00   -.552E-01 -.161E-01 -.293E-01
   0.331E+03 0.476E+03 -.446E+03   -.341E+03 -.500E+03 0.460E+03   0.875E+00 0.864E+01 -.243E+01   0.561E-01 -.224E-01 -.589E-01
   0.128E+03 0.208E+03 0.290E+02   -.125E+03 -.208E+03 -.306E+02   -.342E+01 -.130E+01 0.143E+01   -.932E-01 -.189E-01 0.779E-01
   0.959E+02 0.631E+03 0.296E+03   -.693E+02 -.762E+03 -.318E+03   0.308E+01 0.696E+01 0.124E+01   -.330E-01 -.120E+00 -.114E+00
   0.204E+03 0.142E+03 0.292E+03   -.206E+03 -.142E+03 -.301E+03   -.662E+00 -.139E+00 0.166E+01   -.763E-01 0.832E-02 0.505E-01
   0.150E+03 0.376E+03 0.157E+03   -.153E+03 -.390E+03 -.161E+03   0.256E+01 0.768E+00 0.339E+01   -.133E+00 0.317E-01 0.645E-01
   -.178E+01 -.327E+02 -.421E+02   -.235E+01 0.328E+02 0.425E+02   0.415E+01 -.439E-01 -.430E+00   0.236E-01 -.145E-01 0.626E-01
   -.688E+02 -.356E+03 -.252E+03   0.730E+02 0.386E+03 0.279E+03   -.391E+01 -.192E+02 -.158E+02   -.125E+00 -.644E-01 0.105E-01
   -.163E+03 -.390E+02 -.282E+03   0.172E+03 0.336E+02 0.305E+03   -.708E+01 0.458E+01 -.157E+02   0.672E-02 -.245E-01 -.133E-01
   -.162E+03 -.270E+03 -.859E+02   0.171E+03 0.293E+03 0.876E+02   -.675E+01 -.104E+02 -.242E+01   0.461E-01 0.447E-01 -.578E-01
   -.218E+03 -.317E+02 0.140E+03   0.232E+03 0.257E+02 -.147E+03   -.847E+01 0.504E+01 0.527E+01   0.342E-01 0.152E-01 -.664E-01
   -.228E+02 -.141E+03 -.221E+02   0.217E+02 0.142E+03 0.305E+02   0.580E+00 -.157E+01 -.597E+01   0.109E+00 0.350E-01 -.203E-02
   -.222E+03 -.837E+02 0.751E+02   0.242E+03 0.888E+02 -.720E+02   -.126E+02 -.416E+01 -.238E+01   0.103E+00 -.682E-02 0.273E-01
   -.232E+03 -.241E+03 0.150E+03   0.245E+03 0.253E+03 -.151E+03   -.480E+01 -.861E+01 -.126E+01   -.103E-02 0.239E-02 0.891E-01
   -.669E+02 0.115E+03 -.124E+02   0.684E+02 -.123E+03 0.913E+01   -.251E+01 0.355E+01 0.465E+00   0.823E-02 0.355E-01 0.842E-02
   0.386E+00 0.398E+02 -.258E+03   -.807E+01 -.283E+02 0.288E+03   0.589E+01 -.843E+01 -.166E+02   0.379E-01 0.238E-01 -.996E-02
   -.211E+03 0.216E+03 -.247E+03   0.230E+03 -.230E+03 0.264E+03   -.107E+02 0.115E+02 -.677E+01   0.100E-01 0.400E-01 0.537E-02
   -.396E+02 0.228E+03 0.885E+01   0.432E+02 -.241E+03 -.104E+02   -.360E+01 0.115E+02 0.525E+00   0.133E-01 -.324E-01 -.388E-01
   -.100E+03 0.310E+03 0.180E+03   0.104E+03 -.370E+03 -.192E+03   -.503E+01 0.211E+02 0.581E+01   0.266E-01 -.314E-01 -.124E-01
   -.138E+03 0.290E+03 -.237E+02   0.146E+03 -.309E+03 0.288E+02   -.438E+01 0.132E+02 -.216E+01   0.109E+00 0.796E-02 0.481E-01
   -.783E+02 0.127E+03 0.113E+03   0.802E+02 -.136E+03 -.123E+03   -.197E+01 0.379E+01 0.936E+01   0.815E-01 -.338E-02 0.439E-01
   -.145E+03 0.173E+03 0.160E+03   0.157E+03 -.175E+03 -.170E+03   -.889E+01 -.350E+00 0.330E+01   -.128E-01 -.258E-02 0.332E-01
   0.112E+03 -.155E+03 -.618E+02   -.124E+03 0.162E+03 0.602E+02   0.915E+01 -.593E+01 0.541E+00   -.189E-01 0.116E-01 -.218E-01
   0.255E+03 -.283E+03 -.186E+03   -.287E+03 0.315E+03 0.196E+03   0.130E+02 -.184E+02 -.342E+01   0.138E+00 -.285E-01 -.226E-01
   0.114E+03 -.164E+03 -.444E+02   -.116E+03 0.179E+03 0.424E+02   0.152E+01 -.134E+02 -.987E+00   -.778E-02 0.148E+00 -.176E-01
   0.169E+02 -.223E+03 -.440E+02   -.102E+02 0.244E+03 0.461E+02   -.573E+01 -.111E+02 -.121E+01   -.487E-01 0.320E-01 0.172E+00
   0.186E+03 -.978E+02 0.223E+03   -.197E+03 0.963E+02 -.246E+03   0.653E+01 0.856E+00 0.146E+02   -.200E-01 0.238E-01 0.327E-01
   0.878E+02 -.278E+03 0.162E+03   -.890E+02 0.304E+03 -.172E+03   0.361E+00 -.136E+02 0.989E+01   -.104E+00 0.298E-01 0.245E-01
   0.781E+02 -.153E+03 0.561E+02   -.775E+02 0.159E+03 -.591E+02   0.443E-01 -.391E+01 0.291E+01   -.113E+00 -.468E-01 0.178E-01
   0.213E+03 -.460E+03 0.112E+03   -.261E+03 0.615E+03 -.104E+03   0.172E+02 -.317E+02 0.313E+01   -.139E-01 -.685E-01 -.190E+00
   0.148E+03 0.297E+03 -.650E+02   -.157E+03 -.333E+03 0.762E+02   0.742E+01 0.169E+02 -.703E+01   -.170E-01 0.497E-02 -.492E-01
   0.177E+03 0.452E+02 -.281E+03   -.193E+03 -.390E+02 0.301E+03   0.128E+02 -.378E+01 -.130E+02   -.305E-01 0.704E-02 -.587E-01
   0.144E+02 0.146E+03 -.197E+03   -.143E+02 -.152E+03 0.208E+03   -.499E+00 0.398E+01 -.568E+01   -.328E-01 -.153E+00 -.642E-01
   0.939E+02 0.112E+03 -.104E+01   -.102E+03 -.115E+03 -.357E+01   0.685E+01 0.331E+01 0.415E+01   -.286E-01 -.239E-01 0.134E-01
   0.226E+03 0.331E+03 0.140E+03   -.249E+03 -.370E+03 -.146E+03   0.108E+02 0.202E+02 0.289E+01   -.279E-01 -.796E-02 0.588E-01
   0.542E+02 0.460E+02 0.770E+02   -.509E+02 -.441E+02 -.778E+02   -.302E+01 -.129E+01 0.105E+01   -.835E-01 0.135E-02 0.517E-01
   0.108E+03 0.160E+03 0.519E+02   -.115E+03 -.167E+03 -.553E+02   0.475E+01 0.667E+01 0.286E+01   -.117E+00 0.359E-01 0.755E-01
   0.318E+02 0.145E+03 0.350E+03   -.154E+02 -.153E+03 -.421E+03   -.247E+01 0.284E+01 0.207E+02   -.137E-01 0.503E-02 0.881E-02
 -----------------------------------------------------------------------------------------------
   -.102E+02 0.241E+02 0.190E+02   0.142E-12 0.654E-12 0.568E-12   0.102E+02 -.240E+02 -.192E+02   -.667E-01 -.563E-01 0.196E+00
 
 
 POSITION                                       TOTAL-FORCE (eV/Angst)
 -----------------------------------------------------------------------------------
      7.76213      0.10935      0.03267        23.026693      4.813419      6.873406
      7.67403      1.68196      2.19196         5.496785      1.236856      1.052996
      2.22403      7.58178      2.30087        -0.328132     10.252461     -0.267618
      1.99049      2.44966      0.09027         1.456028     -2.924795      2.651232
      0.12370      7.63243      4.34462         4.791375     10.065130     -2.721262
      0.10691      2.02782      6.24505         0.159406      1.261834     -8.935261
      1.96698      7.58662      6.29350        -0.393993     39.027532    -11.110449
      2.19644      2.07214      4.10665        -1.194970      1.244422     -0.201904
      7.72467      3.95492      0.05382         4.826902      0.722369      7.662696
      0.16105      6.10859      2.11443         1.493058    -13.359911     -0.781856
      1.98426      4.46044      2.28039         1.228961     -7.253113     -2.251202
      1.96565      6.24417      0.14097        -0.282309     -9.672443      4.603121
      0.22035      4.37237      4.16297        -3.767548     -5.455663      0.110457
      7.71239      6.15783      5.94756        16.970590     -3.477054    -11.178059
      2.04954      4.09632      6.19136        -0.269188     -0.900062    -13.824127
      2.21917      5.84595      4.22266         1.743179      4.465507      1.207467
      4.10701      0.24943      0.00459        -0.179325      1.895198      2.665909
      4.06532      1.90975      2.08003        -1.250952      1.853661      2.584437
      6.18241      7.70656      1.76787        -3.733588     19.292087     -2.315382
      6.14393      2.07221      7.74964        -4.698186      0.783884     10.524520
      4.15298      0.00778      4.11768        -0.728705      0.246297      0.213291
      4.07701      1.97198      6.10883        -0.560002      0.646639     -0.017401
      5.98725      7.72967      6.06539       -13.320978     19.238485    -12.628904
      6.09986      1.98819      4.08865        -6.338801     -0.586334     -0.099862
      3.92974      4.24369      7.66119       -11.458167      3.021835     50.544682
      4.07835      6.26484      1.93554         1.483267    -11.564577     -0.383803
      6.01560      4.09283      2.26050        -0.033375     -0.163907     -0.867486
      6.32987      6.37500      0.05771        -9.638643    -15.504592     11.216133
      4.10093      4.02467      4.06140        -1.042323     -0.838995     -0.059573
      4.29986      6.22695      6.10891        29.640040   -124.066825    -20.579778
      6.11689      4.02097      6.13677        -3.099240     -0.850238     -7.414102
      5.94196      6.25670      4.06947        -0.304559    -12.656649     -0.670528
      2.00459      2.24063      2.07164         0.051391      0.051566      0.078178
      2.07435      0.01142      7.78563         0.132584     10.891325     11.968661
      0.09513      2.17657      0.05322         1.976622     -0.840564      6.963901
      0.27189      7.60542      1.98543         2.770069     12.825422     -0.693117
      1.73590      1.92981      6.09509         5.839168     -1.015410     -1.505217
      2.09003      0.20776      4.03200        -0.458038     -0.193870      2.391968
      7.69187      2.19831      4.09093         7.160008      0.884850      0.695334
      7.60360      0.18277      6.03629         7.941335      3.151271     -2.057808
      2.11892      6.05119      2.03062        -1.083933     -4.263875     -2.818165
      2.16399      4.17656      7.68037        -1.764835      3.086849     12.889807
      0.06704      6.01272      7.48905         8.173136     -2.603573     10.313572
      0.02608      4.25263      2.12126        -0.018142     -0.753092     -1.053581
      1.97388      6.28390      6.19097        -1.340323    -38.361072     -6.751477
      1.89966      4.24109      3.99901         3.078487     -6.283739      3.009825
      0.07844      6.07614      4.03832         0.025206     -5.008200     -0.973692
      0.01688      4.39566      6.26904         2.592024     -2.093168     -6.785975
      6.02192      1.89405      1.98231        -3.570945      0.764412     -1.067680
      6.36936      0.02290      7.56400       -18.063315     13.005575      6.017967
      4.20644      1.98779      0.35086        -0.204383      1.657043     -3.025714
      4.06295      7.79995      2.08410         0.917239      9.430135      1.019345
      6.23278      2.00855      6.17854        -4.498138     -0.591111     -8.396004
      6.20546      7.76172      4.08820        -0.932123     12.483053     -0.177990
      4.16325      1.80013      4.20853         0.440062      1.901494     -0.144493
      4.03909      7.25536      6.24499       -30.821946    123.013806     11.521994
      6.23816      6.32546      2.14026        -1.918309    -18.828135      4.208626
      6.04417      4.22734      7.73488        -3.422705      2.412837      7.319889
      3.98696      6.18572      7.79694        -0.389705     -1.512242      5.804214
      4.24084      4.15172      1.99084        -1.423568      0.252909     -0.451109
      6.26879      6.30912      6.21218       -11.838019    -18.612809     -2.982375
      6.01272      3.92656      4.23337         0.203703      0.529518      0.357599
      4.23542      5.95820      3.96813        -3.093773     -1.162262     -0.523558
      4.27364      4.12106      6.46953        13.847869     -5.011402    -50.754717
 -----------------------------------------------------------------------------------
    total drift:                                0.018527     -0.020374     -0.002104


--------------------------------------------------------------------------------------------------------



  FREE ENERGIE OF THE ION-ELECTRON SYSTEM (eV)
  ---------------------------------------------------
  free  energy   TOTEN  =      -289.0139664393 eV

  energy  without entropy=     -288.9504208785  energy(sigma->0) =     -288.98219366
 


--------------------------------------------------------------------------------------------------------


    POTLOK:  cpu time    0.1505: real time    0.1509


--------------------------------------------------------------------------------------------------------


     LOOP+:  cpu time14282.2665: real time14316.3666
    4ORBIT:  cpu time    0.0000: real time    0.0000

volume of typ            1:    42.8 %

volume of typ            2:    11.0 %
 
total charge     
 
# of ion       s       p       d       tot
------------------------------------------
    1        0.353   0.519   8.297   9.169
    2        0.242   0.290   8.072   8.604
    3        0.306   0.416   8.128   8.850
    4        0.242   0.300   8.053   8.595
    5        0.316   0.434   8.179   8.929
    6        0.352   0.512   8.155   9.019
    7        0.491   0.672   8.375   9.538
    8        0.204   0.227   7.997   8.428
    9        0.300   0.412   8.119   8.831
   10        0.344   0.494   8.181   9.019
   11        0.271   0.359   8.112   8.742
   12        0.302   0.430   8.170   8.902
   13        0.268   0.348   8.093   8.709
   14        0.411   0.659   8.263   9.333
   15        0.290   0.349   8.208   8.848
   16        0.244   0.297   8.156   8.698
   17        0.278   0.341   8.128   8.747
   18        0.230   0.277   8.018   8.525
   19        0.356   0.476   8.258   9.090
   20        0.302   0.404   8.164   8.870
   21        0.241   0.292   8.101   8.634
   22        0.201   0.194   8.111   8.506
   23        0.425   0.681   8.316   9.421
   24        0.270   0.348   8.078   8.695
   25        0.447   0.638   8.314   9.399
   26        0.279   0.371   8.166   8.817
   27        0.233   0.269   8.038   8.539
   28        0.387   0.601   8.295   9.283
   29        0.197   0.209   8.051   8.457
   30        0.563   0.823   8.623  10.008
   31        0.311   0.423   8.128   8.862
   32        0.326   0.441   8.198   8.964
   33        1.265   2.745   0.005   4.016
   34        1.274   2.931   0.030   4.235
   35        1.263   2.903   0.025   4.192
   36        1.270   2.915   0.025   4.210
   37        1.263   2.843   0.014   4.120
   38        1.269   2.809   0.011   4.089
   39        1.273   2.814   0.013   4.100
   40        1.300   2.924   0.027   4.252
   41        1.259   2.942   0.033   4.234
   42        1.272   2.919   0.030   4.221
   43        1.300   2.927   0.029   4.255
   44        1.260   2.819   0.011   4.090
   45        1.298   2.990   0.047   4.334
   46        1.253   2.893   0.024   4.170
   47        1.266   2.929   0.027   4.222
   48        1.284   2.880   0.021   4.186
   49        1.262   2.833   0.014   4.108
   50        1.298   3.076   0.064   4.439
   51        1.267   2.829   0.014   4.111
   52        1.268   2.885   0.024   4.177
   53        1.270   2.913   0.024   4.207
   54        1.268   2.915   0.026   4.209
   55        1.246   2.833   0.012   4.090
   56        1.337   3.094   0.088   4.518
   57        1.284   2.929   0.033   4.246
   58        1.279   2.866   0.020   4.164
   59        1.296   2.844   0.016   4.156
   60        1.263   2.778   0.008   4.048
   61        1.294   3.075   0.054   4.423
   62        1.264   2.809   0.010   4.083
   63        1.265   2.843   0.015   4.123
   64        1.302   2.983   0.051   4.335
--------------------------------------------------
tot          50.81  106.19  262.39  419.39
 
magnetization (x)
 
# of ion       s       p       d       tot
------------------------------------------
    1        0.000   0.001   0.097   0.098
    2        0.003   0.007   0.820   0.830
    3       -0.002  -0.012  -0.512  -0.526
    4       -0.000  -0.006  -0.873  -0.879
    5        0.002  -0.003  -0.260  -0.262
    6       -0.000  -0.001  -0.025  -0.026
    7       -0.003  -0.006  -0.084  -0.093
    8       -0.002   0.002   0.982   0.982
    9        0.000   0.000  -0.087  -0.087
   10        0.002   0.003  -0.035  -0.029
   11       -0.006  -0.008  -0.405  -0.418
   12       -0.001  -0.001   0.080   0.078
   13       -0.001   0.001   0.249   0.248
   14        0.000   0.000   0.010   0.010
   15       -0.007  -0.004  -0.228  -0.239
   16       -0.003  -0.004  -0.561  -0.567
   17       -0.004  -0.001  -0.358  -0.363
   18       -0.000  -0.001  -0.730  -0.732
   19        0.001   0.001   0.168   0.169
   20       -0.003  -0.002   0.122   0.117
   21        0.000  -0.002   0.552   0.550
   22       -0.004  -0.002  -0.435  -0.441
   23        0.000  -0.000  -0.004  -0.004
   24       -0.002   0.002  -0.297  -0.297
   25        0.002  -0.002  -0.045  -0.045
   26        0.003   0.002   0.222   0.227
   27       -0.012  -0.004  -0.659  -0.674
   28        0.000  -0.001  -0.031  -0.032
   29        0.001  -0.002  -0.979  -0.979
   30        0.001  -0.001  -0.017  -0.016
   31       -0.001  -0.003   0.028   0.023
   32       -0.001   0.002   0.151   0.153
   33       -0.001  -0.030  -0.000  -0.032
   34       -0.004  -0.041   0.000  -0.046
   35       -0.001  -0.017   0.000  -0.017
   36        0.003   0.033  -0.000   0.036
   37       -0.004  -0.029   0.000  -0.033
   38       -0.002  -0.008   0.000  -0.010
   39        0.003   0.050  -0.000   0.053
   40        0.000  -0.009   0.000  -0.008
   41       -0.006  -0.061  -0.000  -0.067
   42       -0.005  -0.070  -0.000  -0.075
   43        0.000   0.003  -0.000   0.003
   44       -0.004  -0.012  -0.000  -0.016
   45       -0.002  -0.020  -0.000  -0.022
   46       -0.003  -0.066  -0.000  -0.069
   47       -0.000  -0.013  -0.000  -0.013
   48       -0.001   0.000  -0.000  -0.001
   49       -0.004   0.008   0.000   0.004
   50       -0.001   0.002   0.000   0.001
   51       -0.005  -0.044  -0.000  -0.050
   52       -0.005   0.003   0.000  -0.002
   53       -0.004  -0.025   0.000  -0.029
   54       -0.000   0.003  -0.000   0.002
   55        0.001   0.008   0.000   0.009
   56        0.000  -0.016   0.000  -0.016
   57        0.000   0.023   0.000   0.024
   58       -0.001  -0.006  -0.000  -0.007
   59       -0.001   0.012   0.000   0.012
   60       -0.006  -0.096  -0.000  -0.102
   61       -0.000  -0.000  -0.000  -0.001
   62       -0.007  -0.060  -0.000  -0.067
   63       -0.002  -0.018   0.000  -0.020
   64       -0.002  -0.038  -0.000  -0.040
--------------------------------------------------
tot          -0.10   -0.58   -3.14   -3.82
 

 total amount of memory used by VASP MPI-rank0   435282. kBytes
=======================================================================

   base      :      30000. kBytes
   nonlr-proj:      42133. kBytes
   fftplans  :       4751. kBytes
   grid      :      26734. kBytes
   one-center:       1990. kBytes
   wavefun   :     329674. kBytes
 
  
  
 General timing and accounting informations for this job:
 ========================================================
  
                  Total CPU time used (sec):    14367.323
                            User time (sec):    14345.190
                          System time (sec):       22.134
                         Elapsed time (sec):    14405.186
  
                   Maximum memory used (kb):      555800.
                   Average memory used (kb):           0.
  
                          Minor page faults:        42884
                          Major page faults:           12
                 Voluntary context switches:         1146
