 vasp.5.4.4.18Apr17-6-g9f103f2a35 (build May 12 2020 04:58:55) complex          
  
 MD_VERSION_INFO: Compiled 2020-05-12T11:58:55-UTC in devlin.sd.materialsdesign.
 com:/home/medea2/data/build/wwolf/vasp-gpu5.4.4/13047/x86_64/src/src/build/std 
 from svn 13047
 
 This VASP executable licensed from Materials Design, Inc.
 
 executed on                        Lin64 date 2023.03.23  22:58:16
 running on   16 total cores
 distrk:  each k-point on   16 cores,    1 groups
 distr:  one band on NCORES_PER_BAND=   1 cores,   16 groups


--------------------------------------------------------------------------------------------------------


 INCAR:
 POTCAR:    PAW_PBE Ni 02Aug2007                  
 POTCAR:    PAW_PBE O 08Apr2002                   

 ----------------------------------------------------------------------------- 
|                                                                             |
|           W    W    AA    RRRRR   N    N  II  N    N   GGGG   !!!           |
|           W    W   A  A   R    R  NN   N  II  NN   N  G    G  !!!           |
|           W    W  A    A  R    R  N N  N  II  N N  N  G       !!!           |
|           W WW W  AAAAAA  RRRRR   N  N N  II  N  N N  G  GGG   !            |
|           WW  WW  A    A  R   R   N   NN  II  N   NN  G    G                |
|           W    W  A    A  R    R  N    N  II  N    N   GGGG   !!!           |
|                                                                             |
|      For optimal performance we recommend to set                            |
|        NCORE= 4 - approx SQRT( number of cores)                             |
|      NCORE specifies how many cores store one orbital (NPAR=cpu/NCORE).     |
|      This setting can  greatly improve the performance of VASP for DFT.     |
|      The default,   NCORE=1            might be grossly inefficient         |
|      on modern multi-core architectures or massively parallel machines.     |
|      Do your own testing !!!!                                               |
|      Unfortunately you need to use the default for GW and RPA calculations. |
|      (for HF NCORE is supported but not extensively tested yet)             |
|                                                                             |
 ----------------------------------------------------------------------------- 

 POTCAR:    PAW_PBE Ni 02Aug2007                  
  local pseudopotential read in
  partial core-charges read in
  partial kinetic energy density read in
  atomic valenz-charges read in
  non local Contribution for L=           2  read in
    real space projection operators read in
  non local Contribution for L=           2  read in
    real space projection operators read in
  non local Contribution for L=           0  read in
    real space projection operators read in
  non local Contribution for L=           0  read in
    real space projection operators read in
  non local Contribution for L=           1  read in
    real space projection operators read in
  non local Contribution for L=           1  read in
    real space projection operators read in
    PAW grid and wavefunctions read in
 
   number of l-projection  operators is LMAX  =           6
   number of lm-projection operators is LMMAX =          18
 
 POTCAR:    PAW_PBE O 08Apr2002                   
  local pseudopotential read in
  partial core-charges read in
  partial kinetic energy density read in
  kinetic energy density of atom read in
  atomic valenz-charges read in
  non local Contribution for L=           0  read in
    real space projection operators read in
  non local Contribution for L=           0  read in
    real space projection operators read in
  non local Contribution for L=           1  read in
    real space projection operators read in
  non local Contribution for L=           1  read in
    real space projection operators read in
    PAW grid and wavefunctions read in
 
   number of l-projection  operators is LMAX  =           4
   number of lm-projection operators is LMMAX =           8
 
 Optimization of the real space projectors (new method)

 maximal supplied QI-value         = 16.25
 optimisation between [QCUT,QGAM] = [ 11.38, 22.75] = [ 36.24,144.96] Ry 
 Optimized for a Real-space Cutoff    1.47 Angstroem

   l    n(q)    QCUT    max X(q) W(low)/X(q) W(high)/X(q)  e(spline) 
   2      9    11.376    60.317    0.17E-03    0.16E-04    0.16E-06
   2      9    11.376    55.921    0.17E-03    0.16E-04    0.17E-06
   0     10    11.376    51.690    0.45E-04    0.60E-04    0.21E-06
   0     10    11.376    30.015    0.37E-04    0.55E-04    0.19E-06
   1     10    11.376    18.849    0.83E-04    0.11E-03    0.92E-07
   1     10    11.376    14.624    0.69E-04    0.92E-04    0.82E-07
 Optimization of the real space projectors (new method)

 maximal supplied QI-value         = 24.76
 optimisation between [QCUT,QGAM] = [ 11.39, 22.77] = [ 36.31,145.25] Ry 
 Optimized for a Real-space Cutoff    1.10 Angstroem

   l    n(q)    QCUT    max X(q) W(low)/X(q) W(high)/X(q)  e(spline) 
   0      7    11.387    20.381    0.22E-03    0.48E-03    0.18E-06
   0      7    11.387    15.268    0.22E-03    0.52E-03    0.19E-06
   1      7    11.387     5.964    0.22E-03    0.73E-03    0.24E-06
   1      7    11.387     5.382    0.19E-03    0.60E-03    0.21E-06

 ----------------------------------------------------------------------------- 
|                                                                             |
|  ADVICE TO THIS USER RUNNING 'VASP/VAMP'   (HEAR YOUR MASTER'S VOICE ...):  |
|                                                                             |
|      You enforced a specific xc-type in the INCAR file,                     |
|      a different type was found on the POTCAR file                          |
|          I HOPE YOU KNOW, WHAT YOU ARE  DOING                               |
|                                                                             |
 ----------------------------------------------------------------------------- 

  PAW_PBE Ni 02Aug2007                  :
 energy of atom  1       EATOM=-1077.6739
 kinetic energy error for atom=    0.0030 (will be added to EATOM!!)
  PAW_PBE O 08Apr2002                   :
 energy of atom  2       EATOM= -432.3788
 kinetic energy error for atom=    0.0224 (will be added to EATOM!!)
 
 
 POSCAR: NiO_Fm-3m_scale_0_950_disp_0_15_round_1 
  positions in direct lattice
  No initial velocities read in
 exchange correlation table for  LEXCH =       14
   RHO(1)=    0.500       N(1)  =     2000
   RHO(2)=  100.500       N(2)  =     4000
 


--------------------------------------------------------------------------------------------------------


 ion  position               nearest neighbor table
   1  0.992  0.999  0.959-  40 1.32  50 1.69  23 1.88  43 1.89  35 2.07  34 2.09  36 2.23   6 2.29
                            14 2.45  28 2.47  61 2.52  20 2.65   7 2.70  12 2.72   2 2.89  10 2.91
   2  0.032  0.229  0.247-  36 1.77  33 1.83  49 2.01  35 2.11  44 2.24   4 2.33  20 2.45  39 2.51
                            19 2.69   3 2.73   5 2.78   1 2.89  27 2.94   9 2.96   8 3.02  24 3.02
   3  0.273  0.976  0.243-  41 1.49  34 1.74  52 1.93  33 2.09  36 2.17  38 2.33  26 2.36  12 2.60
                            10 2.66  17 2.67   2 2.73  16 2.75   4 2.80  21 2.84  18 2.92   5 3.04
   4  0.246  0.274  0.044-  42 1.71  33 1.82  37 2.01  35 2.09  34 2.15  51 2.20   2 2.33  18 2.55
                            15 2.63  11 2.71   3 2.80   9 2.86  22 2.88   6 2.92   7 2.97   1 3.00
   5  0.993  0.995  0.514-  54 1.47  47 1.53  36 2.11  40 2.16  38 2.20  32 2.38  39 2.38  10 2.58
                            16 2.58  19 2.67  23 2.75   7 2.76  24 2.78   2 2.78   6 2.84  14 2.95
   6  0.977  0.236  0.787-  35 1.55  53 1.65  40 1.76  39 1.88  48 2.05  20 2.10   1 2.29  37 2.31
                            23 2.41  31 2.62   7 2.68  24 2.73   5 2.84   8 2.91   9 2.92   4 2.92
   7  0.258  0.043  0.743-  38 1.62  37 1.64  40 2.11  56 2.13  34 2.21  45 2.26   8 2.32  16 2.39
                            12 2.61  21 2.62  30 2.68   6 2.68   1 2.70   5 2.76  22 2.89   4 2.97
   8  0.265  0.270  0.552-  37 1.86  46 1.94  55 2.15  38 2.16  33 2.19   7 2.32  39 2.36  15 2.49
                            18 2.78  21 2.79   6 2.91  22 2.93  13 2.95   2 3.02   5 3.03
   9  0.984  0.528  0.019-  58 1.60  48 1.69  43 1.83  44 2.05  35 2.09  20 2.12  42 2.26  31 2.35
                            27 2.35  14 2.47  10 2.74  28 2.81   4 2.86  11 2.89   6 2.92  15 2.94
  10  0.993  0.782  0.262-  57 1.45  36 1.74  43 1.97  41 2.05  47 2.10  44 2.11  19 2.49  27 2.50
                             5 2.58   3 2.66   9 2.74  28 2.75  13 2.75  32 2.77  11 2.83   1 2.91
  11  0.271  0.551  0.251-  41 1.85  42 2.02  44 2.04  60 2.12  46 2.22  33 2.42  18 2.65   4 2.71
                            26 2.76  10 2.83   9 2.89  12 2.93  13 2.95  25 3.00  16 3.07
  12  0.273  0.794  0.964-  45 1.19  34 1.68  59 1.94  30 2.09  43 2.27  41 2.33  14 2.38  42 2.41
                             3 2.60   7 2.61  17 2.62   1 2.72  15 2.77  11 2.93
  13  0.993  0.528  0.505-  62 1.54  44 1.78  39 1.86  47 2.14  46 2.31  48 2.41  27 2.44  32 2.57
                            10 2.75  14 2.77  24 2.79  31 2.81   8 2.95  11 2.95  16 3.04  29 3.05
  14  0.030  0.738  0.788-  61 1.74  43 1.78  45 1.78  48 1.92  47 2.08  40 2.15  12 2.38   1 2.45
                             9 2.47  23 2.60  31 2.64  16 2.64  32 2.70  15 2.75  13 2.77  28 2.83
  15  0.277  0.487  0.786-  42 1.68  37 1.88  48 1.96  46 1.99  64 2.10  45 2.17   8 2.49  22 2.60
                             4 2.63  14 2.75  12 2.77  30 2.93   9 2.94   6 3.05
  16  0.262  0.805  0.550-  38 1.48  63 1.86  47 1.99  45 2.10  41 2.25  46 2.26   7 2.39  21 2.50
                             5 2.58  14 2.64  30 2.66   3 2.75  26 2.93  13 3.04  11 3.07  10 3.09
  17  0.534  0.996  0.023-  52 1.72  59 1.81  50 1.93  51 2.03  56 2.14  34 2.20  28 2.27  30 2.34
                            26 2.49  19 2.59  12 2.62   3 2.67  23 2.68  22 2.74  18 3.01
  18  0.481  0.285  0.271-  33 1.73  55 1.84  52 1.88  60 1.97  51 2.25  49 2.32   4 2.55  11 2.65
                             8 2.78  25 2.87  24 2.88  21 2.92   3 2.92  17 3.01
  19  0.768  0.008  0.257-  36 1.79  57 1.81  49 1.90  52 2.06  50 2.11  54 2.27  10 2.49  26 2.53
                            28 2.53  17 2.59   5 2.67   2 2.69  24 2.83  21 2.89  32 2.90   1 2.92
  20  0.839  0.298  0.008-  35 1.19  58 1.66  53 1.83  49 2.04   6 2.10   9 2.12  31 2.37   2 2.45
                            51 2.51  50 2.52   1 2.65  27 2.66  25 2.75  22 2.83  23 2.93  19 3.04
  21  0.507  0.008  0.520-  63 1.76  56 1.82  38 1.83  55 2.03  52 2.25  54 2.39  26 2.49  16 2.50
                             7 2.62  24 2.77  30 2.77   8 2.79  32 2.82   3 2.84  19 2.89  18 2.92
  22  0.534  0.279  0.814-  51 1.37  53 1.85  37 2.07  64 2.08  55 2.46  56 2.46  15 2.60  31 2.65
                            25 2.74  17 2.74  20 2.83   4 2.88   7 2.89  24 2.89   8 2.93  29 2.93
  23  0.804  0.981  0.811-  50 1.40  61 1.47  40 1.51   1 1.88  54 2.10  28 2.13  56 2.26  53 2.32
                             6 2.41  32 2.59  14 2.60  17 2.68   5 2.75  30 2.86  20 2.93
  24  0.756  0.261  0.517-  39 1.68  55 1.72  49 2.04  53 2.11  62 2.23  54 2.31  29 2.51   6 2.73
                            21 2.77   5 2.78  13 2.79  19 2.83  18 2.88  22 2.89  27 2.91  31 2.93
  25  0.589  0.545  0.034-  58 1.54  59 1.83  64 1.84  60 1.90  51 2.37  28 2.37  31 2.41  27 2.41
                            22 2.74  20 2.75  30 2.78  26 2.82  18 2.87  11 3.00
  26  0.518  0.803  0.277-  52 1.95  63 2.02  41 2.06  60 2.13  59 2.16  57 2.30   3 2.36  21 2.49
                            17 2.49  19 2.53  11 2.76  28 2.77  25 2.82  16 2.93  32 2.97  29 3.06
  27  0.801  0.526  0.259-  44 1.67  58 1.90  60 2.03  57 2.04  49 2.15  62 2.19   9 2.35  25 2.41
                            13 2.44  10 2.50  20 2.66  29 2.78  24 2.91  28 2.93   2 2.94  32 3.00
  28  0.750  0.801  0.008-  50 1.44  59 1.84  61 1.85  43 1.88  23 2.13  17 2.27  57 2.31  58 2.35
                            25 2.37   1 2.47  19 2.53  30 2.59  10 2.75  26 2.77   9 2.81  31 2.82
  29  0.605  0.542  0.556-  62 1.52  64 2.01  63 2.07  60 2.27  55 2.27  32 2.31  31 2.35  46 2.50
                            24 2.51  27 2.78  30 2.92  22 2.93  13 3.05  26 3.06
  30  0.488  0.796  0.804-  56 1.45  59 1.58  45 1.84  64 2.00  12 2.09  63 2.12  17 2.34  28 2.59
                            16 2.66   7 2.68  21 2.77  25 2.78  23 2.86  29 2.92  15 2.93  32 3.05
  31  0.782  0.509  0.797-  58 1.73  53 1.84  48 1.92  64 1.93  62 2.04  61 2.25   9 2.35  29 2.35
                            20 2.37  25 2.41   6 2.62  14 2.64  22 2.65  13 2.81  28 2.82  32 2.86
  32  0.783  0.778  0.548-  54 1.52  47 1.76  61 1.84  62 1.85  57 1.98  63 2.23  29 2.31   5 2.38
                            13 2.57  23 2.59  14 2.70  10 2.77  21 2.82  31 2.86  19 2.90  26 2.97
  33  0.264  0.242  0.274-  18 1.73   4 1.82   2 1.83   3 2.09   8 2.19  11 2.42
  34  0.252  1.000  0.023-  12 1.68   3 1.74   1 2.09   4 2.15  17 2.20   7 2.21
  35  0.986  0.263  0.983-  20 1.19   6 1.55   1 2.07   9 2.09   4 2.09   2 2.11
  36  0.997  0.005  0.244-  10 1.74   2 1.77  19 1.79   5 2.11   3 2.17   1 2.23
  37  0.273  0.247  0.789-   7 1.64   8 1.86  15 1.88   4 2.01  22 2.07   6 2.31
  38  0.274  0.994  0.541-  16 1.48   7 1.62  21 1.83   8 2.16   5 2.20   3 2.33
  39  0.964  0.296  0.555-  24 1.68  13 1.86   6 1.88   8 2.36   5 2.38   2 2.51
  40  0.994  0.012  0.790-   1 1.32  23 1.51   6 1.76   7 2.11  14 2.15   5 2.16
  41  0.255  0.787  0.262-   3 1.49  11 1.85  10 2.05  26 2.06  16 2.25  12 2.33
  42  0.269  0.487  0.001-  15 1.68   4 1.71  11 2.02   9 2.26  12 2.41
  43  0.987  0.762  0.010-  14 1.78   9 1.83  28 1.88   1 1.89  10 1.97  12 2.27
  44  0.014  0.514  0.279-  27 1.67  13 1.78  11 2.04   9 2.05  10 2.11   2 2.24
  45  0.255  0.763  0.816-  12 1.19  14 1.78  30 1.84  16 2.10  15 2.17   7 2.26
  46  0.287  0.517  0.533-   8 1.94  15 1.99  11 2.22  16 2.26  13 2.31  29 2.50
  47  0.007  0.800  0.530-   5 1.53  32 1.76  16 1.99  14 2.08  10 2.10  13 2.14
  48  0.027  0.493  0.809-   9 1.69  31 1.92  14 1.92  15 1.96   6 2.05  13 2.41
  49  0.776  0.252  0.257-  19 1.90   2 2.01  20 2.04  24 2.04  27 2.15  18 2.32
  50  0.779  0.983  0.989-  23 1.40  28 1.44   1 1.69  17 1.93  19 2.11  20 2.52
  51  0.521  0.253  0.987-  22 1.37  17 2.03   4 2.20  18 2.25  25 2.37  20 2.51
  52  0.508  0.049  0.235-  17 1.72  18 1.88   3 1.93  26 1.95  19 2.06  21 2.25
  53  0.769  0.275  0.786-   6 1.65  20 1.83  31 1.84  22 1.85  24 2.11  23 2.32
  54  0.809  0.972  0.543-   5 1.47  32 1.52  23 2.10  19 2.27  24 2.31  21 2.39
  55  0.536  0.266  0.499-  24 1.72  18 1.84  21 2.03   8 2.15  29 2.27  22 2.46
  56  0.521  0.970  0.749-  30 1.45  21 1.82   7 2.13  17 2.14  23 2.26  22 2.46
  57  0.811  0.784  0.297-  10 1.45  19 1.81  32 1.98  27 2.04  26 2.30  28 2.31
  58  0.781  0.502  0.018-  25 1.54   9 1.60  20 1.66  31 1.73  27 1.90  28 2.35
  59  0.517  0.765  0.002-  30 1.58  17 1.81  25 1.83  28 1.84  12 1.94  26 2.16
  60  0.541  0.531  0.273-  25 1.90  18 1.97  27 2.03  11 2.12  26 2.13  29 2.27
  61  0.815  0.795  0.781-  23 1.47  14 1.74  32 1.84  28 1.85  31 2.25   1 2.52
  62  0.799  0.542  0.538-  29 1.52  13 1.54  32 1.85  31 2.04  27 2.19  24 2.23
  63  0.498  0.783  0.533-  21 1.76  16 1.86  26 2.02  29 2.07  30 2.12  32 2.23
  64  0.538  0.545  0.804-  25 1.84  31 1.93  30 2.00  29 2.01  22 2.08  15 2.10
 
  LATTYP: Found a simple cubic cell.
 ALAT       =     7.8088955000
  
  Lattice vectors:
  
 A1 = (   7.8088955000,   0.0000000000,   0.0000000000)
 A2 = (   0.0000000000,   7.8088955000,   0.0000000000)
 A3 = (   0.0000000000,   0.0000000000,   7.8088955000)


Analysis of symmetry for initial positions (statically):
=====================================================================
 Subroutine PRICEL returns:
 Original cell was already a primitive cell.
 

 Routine SETGRP: Setting up the symmetry group for a 
 simple cubic supercell.


 Subroutine GETGRP returns: Found  1 space group operations
 (whereof  1 operations were pure point group operations)
 out of a pool of 48 trial point group operations.


The static configuration has the point symmetry C_1 .


Analysis of symmetry for dynamics (positions and initial velocities):
=====================================================================
 Subroutine PRICEL returns:
 Original cell was already a primitive cell.
 

 Routine SETGRP: Setting up the symmetry group for a 
 simple cubic supercell.


 Subroutine GETGRP returns: Found  1 space group operations
 (whereof  1 operations were pure point group operations)
 out of a pool of 48 trial point group operations.


The dynamic configuration has the point symmetry C_1 .


Analysis of structural, dynamic, and magnetic symmetry:
=====================================================================
 Subroutine PRICEL returns:
 Original cell was already a primitive cell.
 

 Routine SETGRP: Setting up the symmetry group for a 
 simple cubic supercell.


 Subroutine GETGRP returns: Found  1 space group operations
 (whereof  1 operations were pure point group operations)
 out of a pool of 48 trial point group operations.


The magnetic configuration has the point symmetry C_1 .


 Subroutine INISYM returns: Found  1 space group operations
 (whereof  1 operations are pure point group operations),
 and found     1 'primitive' translations

 
 
 KPOINTS: Automatic mesh                          

Automatic generation of k-mesh.
Space group operators:
 irot       det(A)        alpha          n_x          n_y          n_z        tau_x        tau_y        tau_z
    1     1.000000     0.000000     1.000000     0.000000     0.000000     0.000000     0.000000     0.000000
 
 Subroutine IBZKPT returns following result:
 ===========================================
 
 Found     36 irreducible k-points:
 
 Following reciprocal coordinates:
            Coordinates               Weight
  0.000000  0.000000  0.000000      1.000000
  0.250000  0.000000  0.000000      2.000000
  0.500000  0.000000  0.000000      1.000000
  0.000000  0.250000  0.000000      2.000000
  0.250000  0.250000  0.000000      2.000000
  0.500000  0.250000  0.000000      2.000000
 -0.250000  0.250000  0.000000      2.000000
  0.000000  0.500000  0.000000      1.000000
  0.250000  0.500000  0.000000      2.000000
  0.500000  0.500000  0.000000      1.000000
  0.000000  0.000000  0.250000      2.000000
  0.250000  0.000000  0.250000      2.000000
  0.500000  0.000000  0.250000      2.000000
 -0.250000  0.000000  0.250000      2.000000
  0.000000  0.250000  0.250000      2.000000
  0.250000  0.250000  0.250000      2.000000
  0.500000  0.250000  0.250000      2.000000
 -0.250000  0.250000  0.250000      2.000000
  0.000000  0.500000  0.250000      2.000000
  0.250000  0.500000  0.250000      2.000000
  0.500000  0.500000  0.250000      2.000000
 -0.250000  0.500000  0.250000      2.000000
  0.000000 -0.250000  0.250000      2.000000
  0.250000 -0.250000  0.250000      2.000000
  0.500000 -0.250000  0.250000      2.000000
 -0.250000 -0.250000  0.250000      2.000000
  0.000000  0.000000  0.500000      1.000000
  0.250000  0.000000  0.500000      2.000000
  0.500000  0.000000  0.500000      1.000000
  0.000000  0.250000  0.500000      2.000000
  0.250000  0.250000  0.500000      2.000000
  0.500000  0.250000  0.500000      2.000000
 -0.250000  0.250000  0.500000      2.000000
  0.000000  0.500000  0.500000      1.000000
  0.250000  0.500000  0.500000      2.000000
  0.500000  0.500000  0.500000      1.000000
 
 Following cartesian coordinates:
            Coordinates               Weight
  0.000000  0.000000  0.000000      1.000000
  0.032015  0.000000  0.000000      2.000000
  0.064030  0.000000  0.000000      1.000000
  0.000000  0.032015  0.000000      2.000000
  0.032015  0.032015  0.000000      2.000000
  0.064030  0.032015  0.000000      2.000000
 -0.032015  0.032015  0.000000      2.000000
  0.000000  0.064030  0.000000      1.000000
  0.032015  0.064030  0.000000      2.000000
  0.064030  0.064030  0.000000      1.000000
  0.000000  0.000000  0.032015      2.000000
  0.032015  0.000000  0.032015      2.000000
  0.064030  0.000000  0.032015      2.000000
 -0.032015  0.000000  0.032015      2.000000
  0.000000  0.032015  0.032015      2.000000
  0.032015  0.032015  0.032015      2.000000
  0.064030  0.032015  0.032015      2.000000
 -0.032015  0.032015  0.032015      2.000000
  0.000000  0.064030  0.032015      2.000000
  0.032015  0.064030  0.032015      2.000000
  0.064030  0.064030  0.032015      2.000000
 -0.032015  0.064030  0.032015      2.000000
  0.000000 -0.032015  0.032015      2.000000
  0.032015 -0.032015  0.032015      2.000000
  0.064030 -0.032015  0.032015      2.000000
 -0.032015 -0.032015  0.032015      2.000000
  0.000000  0.000000  0.064030      1.000000
  0.032015  0.000000  0.064030      2.000000
  0.064030  0.000000  0.064030      1.000000
  0.000000  0.032015  0.064030      2.000000
  0.032015  0.032015  0.064030      2.000000
  0.064030  0.032015  0.064030      2.000000
 -0.032015  0.032015  0.064030      2.000000
  0.000000  0.064030  0.064030      1.000000
  0.032015  0.064030  0.064030      2.000000
  0.064030  0.064030  0.064030      1.000000
 


--------------------------------------------------------------------------------------------------------




 Dimension of arrays:
   k-points           NKPTS =     36   k-points in BZ     NKDIM =     36   number of bands    NBANDS=    352
   number of dos      NEDOS =    301   number of ions     NIONS =     64
   non local maximal  LDIM  =      6   non local SUM 2l+1 LMDIM =     18
   total plane-waves  NPLWV = 216000
   max r-space proj   IRMAX =   6140   max aug-charges    IRDMAX=  14902
   dimension x,y,z NGX =    60 NGY =   60 NGZ =   60
   dimension x,y,z NGXF=   120 NGYF=  120 NGZF=  120
   support grid    NGXF=   120 NGYF=  120 NGZF=  120
   ions per type =              32  32
   NGX,Y,Z   is equivalent  to a cutoff of  12.77, 12.77, 12.77 a.u.
   NGXF,Y,Z  is equivalent  to a cutoff of  25.55, 25.55, 25.55 a.u.

 SYSTEM =  unknown system                          
 POSCAR =  NiO_Fm-3m_scale_0_950_disp_0_15_round_1 

 Startparameter for this run:
   NWRITE =      1    write-flag & timer
   PREC   = accura    normal or accurate (medium, high low for compatibility)
   ISTART =      0    job   : 0-new  1-cont  2-samecut
   ICHARG =      2    charge: 1-file 2-atom 10-const
   ISPIN  =      2    spin polarized calculation?
   LNONCOLLINEAR =      F non collinear calculations
   LSORBIT =      F    spin-orbit coupling
   INIWAV =      1    electr: 0-lowe 1-rand  2-diag
   LASPH  =      F    aspherical Exc in radial PAW
   METAGGA=      F    non-selfconsistent MetaGGA calc.

 Electronic Relaxation 1
   ENCUT  =  500.0 eV  36.75 Ry    6.06 a.u.  14.24 14.24 14.24*2*pi/ulx,y,z
   ENINI  =  500.0     initial cutoff
   ENAUG  =  605.4 eV  augmentation charge cutoff
   NELM   =     80;   NELMIN=  2; NELMDL= -5     # of ELM steps 
   EDIFF  = 0.1E-04   stopping-criterion for ELM
   LREAL  =      T    real-space projection
   NLSPLINE    = F    spline interpolate recip. space projectors
   LCOMPAT=      F    compatible to vasp.4.4
   GGA_COMPAT  = T    GGA compatible to vasp.4.4-vasp.4.6
   LMAXPAW     = -100 max onsite density
   LMAXMIX     =    2 max onsite mixed and CHGCAR
   VOSKOWN=      1    Vosko Wilk Nusair interpolation
   ROPT   =   -0.00025  -0.00025
 Ionic relaxation
   EDIFFG = 0.1E-03   stopping-criterion for IOM
   NSW    =      0    number of steps for IOM
   NBLOCK =      1;   KBLOCK =      1    inner block; outer block 
   IBRION =     -1    ionic relax: 0-MD 1-quasi-New 2-CG
   NFREE  =      0    steps in history (QN), initial steepest desc. (CG)
   ISIF   =      2    stress and relaxation
   IWAVPR =     10    prediction:  0-non 1-charg 2-wave 3-comb
   ISYM   =      2    0-nonsym 1-usesym 2-fastsym
   LCORR  =      T    Harris-Foulkes like correction to forces

   POTIM  = 0.5000    time-step for ionic-motion
   TEIN   =    0.0    initial temperature
   TEBEG  =    0.0;   TEEND  =   0.0 temperature during run
   SMASS  =  -3.00    Nose mass-parameter (am)
   estimated Nose-frequenzy (Omega)   =  0.10E-29 period in steps =****** mass=  -0.139E-26a.u.
   SCALEE = 1.0000    scale energy and forces
   NPACO  =    256;   APACO  = 16.0  distance and # of slots for P.C.
   PSTRESS=    0.0 pullay stress

  Mass of Ions in am
   POMASS =  58.69 16.00
  Ionic Valenz
   ZVAL   =  10.00  6.00
  Atomic Wigner-Seitz radii
   RWIGS  =   1.15  0.73
  virtual crystal weights 
   VCA    =   1.00  1.00
   NELECT =     512.0000    total number of electrons
   NUPDOWN=      -1.0000    fix difference up-down

 DOS related values:
   EMIN   =  10.00;   EMAX   =-10.00  energy-range for DOS
   EFERMI =   0.00
   ISMEAR =     0;   SIGMA  =   0.05  broadening in eV -4-tet -1-fermi 0-gaus

 Electronic relaxation 2 (details)
   IALGO  =     38    algorithm
   LDIAG  =      T    sub-space diagonalisation (order eigenvalues)
   LSUBROT=      F    optimize rotation matrix (better conditioning)
   TURBO    =      0    0=normal 1=particle mesh
   IRESTART =      0    0=no restart 2=restart with 2 vectors
   NREBOOT  =      0    no. of reboots
   NMIN     =      0    reboot dimension
   EREF     =   0.00    reference energy to select bands
   IMIX   =      4    mixing-type and parameters
     AMIX     =   0.40;   BMIX     =  1.00
     AMIX_MAG =   1.60;   BMIX_MAG =  1.00
     AMIN     =   0.10
     WC   =   100.;   INIMIX=   1;  MIXPRE=   1;  MAXMIX= -45

 Intra band minimization:
   WEIMIN = 0.0000     energy-eigenvalue tresh-hold
   EBREAK =  0.71E-08  absolut break condition
   DEPER  =   0.30     relativ break condition  

   TIME   =   0.40     timestep for ELM

  volume/ion in A,a.u.               =       7.44        50.21
  Fermi-wavevector in a.u.,A,eV,Ry     =   1.677163  3.169378 38.271486  2.812875
  Thomas-Fermi vector in A             =   2.761477
 
 Write flags
   LWAVE        =      F    write WAVECAR
   LDOWNSAMPLE  =      F    k-point downsampling of WAVECAR
   LCHARG       =      T    write CHGCAR
   LVTOT        =      F    write LOCPOT, total local potential
   LVHAR        =      F    write LOCPOT, Hartree potential only
   LELF         =      F    write electronic localiz. function (ELF)
   LORBIT       =      0    0 simple, 1 ext, 2 COOP (PROOUT), +10 PAW based schemes


 Dipole corrections
   LMONO  =      F    monopole corrections only (constant potential shift)
   LDIPOL =      F    correct potential (dipole corrections)
   IDIPOL =      0    1-x, 2-y, 3-z, 4-all directions 
   EPSILON=  1.0000000 bulk dielectric constant

 Exchange correlation treatment:
   GGA     =    PS    GGA type
   LEXCH   =    14    internal setting for exchange type
   VOSKOWN=      1    Vosko Wilk Nusair interpolation
   LHFCALC =     F    Hartree Fock is set to
   LHFONE  =     F    Hartree Fock one center treatment
   AEXX    =    0.0000 exact exchange contribution

 Linear response parameters
   LEPSILON=     F    determine dielectric tensor
   LRPA    =     F    only Hartree local field effects (RPA)
   LNABLA  =     F    use nabla operator in PAW spheres
   LVEL    =     F    velocity operator in full k-point grid
   LINTERFAST=   F  fast interpolation
   KINTER  =     0    interpolate to denser k-point grid
   CSHIFT  =0.1000    complex shift for real part using Kramers Kronig
   OMEGAMAX=  -1.0    maximum frequency
   DEG_THRESHOLD= 0.2000000E-02 threshold for treating states as degnerate
   RTIME   =   -0.100 relaxation time in fs
  (WPLASMAI=    0.000 imaginary part of plasma frequency in eV, 0.658/RTIME)
   DFIELD  = 0.0000000 0.0000000 0.0000000 field for delta impulse in time
 
 Orbital magnetization related:
   ORBITALMAG=     F  switch on orbital magnetization
   LCHIMAG   =     F  perturbation theory with respect to B field
   DQ        =  0.001000  dq finite difference perturbation B field
   LLRAUG    =     F  two centre corrections for induced B field



--------------------------------------------------------------------------------------------------------


 Static calculation
 charge density and potential will be updated during run
 spin polarized calculation
 Variant of blocked Davidson
 Davidson routine will perform the subspace rotation
 perform sub-space diagonalisation
    after iterative eigenvector-optimisation
 modified Broyden-mixing scheme, WC =      100.0
 initial mixing is a Kerker type mixing with AMIX =  0.4000 and BMIX =      1.0000
 Hartree-type preconditioning will be used
 using additional bands           96
 real space projection scheme for non local part
 use partial core corrections
 calculate Harris-corrections to forces 
   (improved forces if not selfconsistent)
 use gradient corrections 
 use of overlap-Matrix (Vanderbilt PP)
 Gauss-broadening in eV      SIGMA  =   0.05


--------------------------------------------------------------------------------------------------------


  energy-cutoff  :      500.00
  volume of cell :      476.18
      direct lattice vectors                 reciprocal lattice vectors
     7.808895500  0.000000000  0.000000000     0.128059083  0.000000000  0.000000000
     0.000000000  7.808895500  0.000000000     0.000000000  0.128059083  0.000000000
     0.000000000  0.000000000  7.808895500     0.000000000  0.000000000  0.128059083

  length of vectors
     7.808895500  7.808895500  7.808895500     0.128059083  0.128059083  0.128059083


 
 k-points in units of 2pi/SCALE and weight: Automatic mesh                          
   0.00000000  0.00000000  0.00000000       0.016
   0.03201477  0.00000000  0.00000000       0.031
   0.06402954  0.00000000  0.00000000       0.016
   0.00000000  0.03201477  0.00000000       0.031
   0.03201477  0.03201477  0.00000000       0.031
   0.06402954  0.03201477  0.00000000       0.031
  -0.03201477  0.03201477  0.00000000       0.031
   0.00000000  0.06402954  0.00000000       0.016
   0.03201477  0.06402954  0.00000000       0.031
   0.06402954  0.06402954  0.00000000       0.016
   0.00000000  0.00000000  0.03201477       0.031
   0.03201477  0.00000000  0.03201477       0.031
   0.06402954  0.00000000  0.03201477       0.031
  -0.03201477  0.00000000  0.03201477       0.031
   0.00000000  0.03201477  0.03201477       0.031
   0.03201477  0.03201477  0.03201477       0.031
   0.06402954  0.03201477  0.03201477       0.031
  -0.03201477  0.03201477  0.03201477       0.031
   0.00000000  0.06402954  0.03201477       0.031
   0.03201477  0.06402954  0.03201477       0.031
   0.06402954  0.06402954  0.03201477       0.031
  -0.03201477  0.06402954  0.03201477       0.031
   0.00000000 -0.03201477  0.03201477       0.031
   0.03201477 -0.03201477  0.03201477       0.031
   0.06402954 -0.03201477  0.03201477       0.031
  -0.03201477 -0.03201477  0.03201477       0.031
   0.00000000  0.00000000  0.06402954       0.016
   0.03201477  0.00000000  0.06402954       0.031
   0.06402954  0.00000000  0.06402954       0.016
   0.00000000  0.03201477  0.06402954       0.031
   0.03201477  0.03201477  0.06402954       0.031
   0.06402954  0.03201477  0.06402954       0.031
  -0.03201477  0.03201477  0.06402954       0.031
   0.00000000  0.06402954  0.06402954       0.016
   0.03201477  0.06402954  0.06402954       0.031
   0.06402954  0.06402954  0.06402954       0.016
 
 k-points in reciprocal lattice and weights: Automatic mesh                          
   0.00000000  0.00000000  0.00000000       0.016
   0.25000000  0.00000000  0.00000000       0.031
   0.50000000  0.00000000  0.00000000       0.016
   0.00000000  0.25000000  0.00000000       0.031
   0.25000000  0.25000000  0.00000000       0.031
   0.50000000  0.25000000  0.00000000       0.031
  -0.25000000  0.25000000  0.00000000       0.031
   0.00000000  0.50000000  0.00000000       0.016
   0.25000000  0.50000000  0.00000000       0.031
   0.50000000  0.50000000  0.00000000       0.016
   0.00000000  0.00000000  0.25000000       0.031
   0.25000000  0.00000000  0.25000000       0.031
   0.50000000  0.00000000  0.25000000       0.031
  -0.25000000  0.00000000  0.25000000       0.031
   0.00000000  0.25000000  0.25000000       0.031
   0.25000000  0.25000000  0.25000000       0.031
   0.50000000  0.25000000  0.25000000       0.031
  -0.25000000  0.25000000  0.25000000       0.031
   0.00000000  0.50000000  0.25000000       0.031
   0.25000000  0.50000000  0.25000000       0.031
   0.50000000  0.50000000  0.25000000       0.031
  -0.25000000  0.50000000  0.25000000       0.031
   0.00000000 -0.25000000  0.25000000       0.031
   0.25000000 -0.25000000  0.25000000       0.031
   0.50000000 -0.25000000  0.25000000       0.031
  -0.25000000 -0.25000000  0.25000000       0.031
   0.00000000  0.00000000  0.50000000       0.016
   0.25000000  0.00000000  0.50000000       0.031
   0.50000000  0.00000000  0.50000000       0.016
   0.00000000  0.25000000  0.50000000       0.031
   0.25000000  0.25000000  0.50000000       0.031
   0.50000000  0.25000000  0.50000000       0.031
  -0.25000000  0.25000000  0.50000000       0.031
   0.00000000  0.50000000  0.50000000       0.016
   0.25000000  0.50000000  0.50000000       0.031
   0.50000000  0.50000000  0.50000000       0.016
 
 position of ions in fractional coordinates (direct lattice) 
   0.99199456  0.99891918  0.95896610
   0.03150774  0.22870804  0.24698889
   0.27281767  0.97607943  0.24283584
   0.24569689  0.27375070  0.04403071
   0.99349162  0.99546317  0.51406716
   0.97718732  0.23585793  0.78652522
   0.25798962  0.04286202  0.74270457
   0.26532324  0.27027371  0.55243281
   0.98407325  0.52800060  0.01921589
   0.99267965  0.78225750  0.26172740
   0.27148487  0.55087200  0.25096643
   0.27292361  0.79362503  0.96429817
   0.99267150  0.52759297  0.50521026
   0.03043619  0.73838869  0.78771698
   0.27651035  0.48725521  0.78583420
   0.26167461  0.80531529  0.55029254
   0.53362422  0.99582908  0.02254221
   0.48129784  0.28546940  0.27057401
   0.76770748  0.00831922  0.25731674
   0.83913426  0.29841255  0.00846515
   0.50669557  0.00830583  0.52010018
   0.53445698  0.27850923  0.81372706
   0.80391807  0.98091098  0.81077907
   0.75557162  0.26095999  0.51674643
   0.58931597  0.54496493  0.03443367
   0.51807493  0.80284686  0.27655447
   0.80102812  0.52638608  0.25877352
   0.74971879  0.80119386  0.00813489
   0.60523910  0.54208859  0.55573916
   0.48816995  0.79648595  0.80434292
   0.78247246  0.50948922  0.79709039
   0.78343024  0.77806831  0.54839639
   0.26395582  0.24168382  0.27351259
   0.25170635  0.99963252  0.02257044
   0.98563425  0.26333126  0.98313255
   0.99699508  0.00492843  0.24416457
   0.27279800  0.24694151  0.78947387
   0.27357587  0.99397786  0.54112605
   0.96411610  0.29641198  0.55450821
   0.99355202  0.01174316  0.79039514
   0.25510330  0.78693180  0.26239780
   0.26942005  0.48712350  0.00088852
   0.98698262  0.76182370  0.01007114
   0.01412388  0.51376759  0.27934052
   0.25539958  0.76287866  0.81573672
   0.28655209  0.51744119  0.53305596
   0.00733522  0.80035119  0.53023839
   0.02702103  0.49293156  0.80946673
   0.77565764  0.25195116  0.25691406
   0.77871222  0.98266888  0.98864809
   0.52101070  0.25322914  0.98658088
   0.50847283  0.04899102  0.23485991
   0.76909694  0.27452314  0.78595353
   0.80906393  0.97152352  0.54257248
   0.53588065  0.26558790  0.49906205
   0.52147950  0.97029014  0.74946831
   0.81094702  0.78420581  0.29661613
   0.78087770  0.50220046  0.01802106
   0.51731939  0.76537193  0.00239772
   0.54084734  0.53095357  0.27271288
   0.81512839  0.79528685  0.78074848
   0.79935416  0.54224874  0.53842932
   0.49839831  0.78298075  0.53321433
   0.53826794  0.54477132  0.80404112
 
 position of ions in cartesian coordinates  (Angst):
   7.74638186  7.80045549  7.48846606
   0.24604065  1.78595718  1.92871043
   2.13040468  7.62210227  1.89627970
   1.91862134  2.13769061  0.34383121
   7.75807224  7.77346787  4.01429673
   7.63075367  1.84178993  6.14189325
   2.01461398  0.33470504  5.79970237
   2.07188145  2.11053916  4.31389008
   7.68452517  4.12310151  0.15005488
   7.75173165  6.10856707  2.04380192
   2.11999698  4.30170188  1.95977063
   2.13123195  6.19733493  7.53010364
   7.75166801  4.11991837  3.94513413
   0.23767303  5.76600012  6.15119958
   2.15924043  3.80492502  6.13649715
   2.04338968  6.28862294  4.29717694
   4.16701577  7.77632522  0.17602976
   3.75840454  2.22920071  2.11288417
   5.99494749  0.06496392  2.00935953
   6.55271175  2.33027242  0.06610347
   3.95673276  0.06485936  4.06140796
   4.17351871  2.17484947  6.35430958
   6.27771220  7.65983134  6.33128903
   5.90017982  2.03780929  4.03521887
   4.60190683  4.25557419  0.26888893
   4.04559299  6.26934723  2.15958496
   6.25514488  4.11049389  2.02073538
   5.85447569  6.25643913  0.06352451
   4.72624888  4.23311315  4.33970903
   3.81206813  6.21967555  6.28102981
   6.11024567  3.97854808  6.22439556
   6.11772488  6.07585412  4.28237010
   2.06120341  1.88728369  2.13583123
   1.96554858  7.80602589  0.17625021
   7.69671486  2.05632629  7.67717935
   7.78543039  0.03848559  1.90665561
   2.13025107  1.92834045  6.16491895
   2.13632538  7.76186924  4.22559678
   7.52868187  2.31465018  4.33009667
   7.75854390  0.09170111  6.17211305
   1.99207501  6.14506819  2.04903700
   2.10387302  3.80389651  0.00693836
   7.70724414  5.94900166  0.07864448
   0.11029190  4.01195742  2.18134093
   1.99438863  5.95723974  6.37000280
   2.23765533  4.04064418  4.16257829
   0.05727997  6.24985881  4.14057618
   0.21100440  3.84925104  6.32104111
   6.05702945  1.96746028  2.00621505
   6.08088235  7.67355860  7.72024962
   4.06851811  1.97743989  7.70410699
   3.97061119  0.38256576  1.83399649
   6.00579763  2.14372251  6.13742898
   6.31789568  7.58652564  4.23689180
   4.18463600  2.07394816  3.89712340
   4.07217892  7.57689431  5.85251971
   6.33260054  6.12378122  2.31624436
   6.09779236  3.92163091  0.14072457
   4.03969306  5.97670942  0.01872354
   4.22342036  4.14616094  2.12958638
   6.36525242  6.21031190  6.09678329
   6.24207310  4.23436375  4.20453829
   3.89194032  6.11421486  4.16381498
   4.20327809  4.25406231  6.27867308
 


--------------------------------------------------------------------------------------------------------


 k-point  1 :   0.0000 0.0000 0.0000  plane waves:   12053
 k-point  2 :   0.2500 0.0000 0.0000  plane waves:   12088
 k-point  3 :   0.5000 0.0000 0.0000  plane waves:   12140
 k-point  4 :   0.0000 0.2500 0.0000  plane waves:   12088
 k-point  5 :   0.2500 0.2500 0.0000  plane waves:   12108
 k-point  6 :   0.5000 0.2500 0.0000  plane waves:   12074
 k-point  7 :  -0.2500 0.2500 0.0000  plane waves:   12108
 k-point  8 :   0.0000 0.5000 0.0000  plane waves:   12140
 k-point  9 :   0.2500 0.5000 0.0000  plane waves:   12074
 k-point 10 :   0.5000 0.5000 0.0000  plane waves:   12168
 k-point 11 :   0.0000 0.0000 0.2500  plane waves:   12088
 k-point 12 :   0.2500 0.0000 0.2500  plane waves:   12108
 k-point 13 :   0.5000 0.0000 0.2500  plane waves:   12074
 k-point 14 :  -0.2500 0.0000 0.2500  plane waves:   12108
 k-point 15 :   0.0000 0.2500 0.2500  plane waves:   12108
 k-point 16 :   0.2500 0.2500 0.2500  plane waves:   12067
 k-point 17 :   0.5000 0.2500 0.2500  plane waves:   12064
 k-point 18 :  -0.2500 0.2500 0.2500  plane waves:   12067
 k-point 19 :   0.0000 0.5000 0.2500  plane waves:   12074
 k-point 20 :   0.2500 0.5000 0.2500  plane waves:   12064
 k-point 21 :   0.5000 0.5000 0.2500  plane waves:   12116
 k-point 22 :  -0.2500 0.5000 0.2500  plane waves:   12064
 k-point 23 :   0.0000-0.2500 0.2500  plane waves:   12108
 k-point 24 :   0.2500-0.2500 0.2500  plane waves:   12067
 k-point 25 :   0.5000-0.2500 0.2500  plane waves:   12064
 k-point 26 :  -0.2500-0.2500 0.2500  plane waves:   12067
 k-point 27 :   0.0000 0.0000 0.5000  plane waves:   12140
 k-point 28 :   0.2500 0.0000 0.5000  plane waves:   12074
 k-point 29 :   0.5000 0.0000 0.5000  plane waves:   12168
 k-point 30 :   0.0000 0.2500 0.5000  plane waves:   12074
 k-point 31 :   0.2500 0.2500 0.5000  plane waves:   12064
 k-point 32 :   0.5000 0.2500 0.5000  plane waves:   12116
 k-point 33 :  -0.2500 0.2500 0.5000  plane waves:   12064
 k-point 34 :   0.0000 0.5000 0.5000  plane waves:   12168
 k-point 35 :   0.2500 0.5000 0.5000  plane waves:   12116
 k-point 36 :   0.5000 0.5000 0.5000  plane waves:   11992

 maximum and minimum number of plane-waves per node :     12168    11992

 maximum number of plane-waves:     12168
 maximum index in each direction: 
   IXMAX=   14   IYMAX=   14   IZMAX=   14
   IXMIN=  -14   IYMIN=  -14   IZMIN=  -14

 The following grids will avoid any aliasing or wrap around errors in the Hartre
 e energy
  - symmetry arguments have not been applied
  - exchange correlation energies might require even more grid points
  - we recommend to set PREC=Normal or Accurate and rely on VASP defaults
 NGX is ok and might be reduce to    60
 NGY is ok and might be reduce to    60
 NGZ is ok and might be reduce to    60

 serial   3D FFT for wavefunctions
 parallel 3D FFT for charge:
    minimum data exchange during FFTs selected (reduces bandwidth)


 total amount of memory used by VASP MPI-rank0   435290. kBytes
=======================================================================

   base      :      30000. kBytes
   nonlr-proj:      42141. kBytes
   fftplans  :       4751. kBytes
   grid      :      26734. kBytes
   one-center:       1990. kBytes
   wavefun   :     329674. kBytes
 
     INWAV:  cpu time    0.0000: real time    0.0000
 Broyden mixing: mesh for mixing (old mesh)
   NGX = 29   NGY = 29   NGZ = 29
  (NGX  =120   NGY  =120   NGZ  =120)
  gives a total of  24389 points

 initial charge density was supplied:
 charge density of overlapping atoms calculated
 number of electron     512.0000000 magnetization      80.0000000
 keeping initial charge density in first step


--------------------------------------------------------------------------------------------------------


 Maximum index for non-local projection operator         5941
 Maximum index for augmentation-charges         1315 (set IRDMAX)


--------------------------------------------------------------------------------------------------------


 First call to EWALD:  gamma=   0.227
 Maximum number of real-space cells 3x 3x 3
 Maximum number of reciprocal cells 3x 3x 3

    FEWALD:  cpu time    0.0035: real time    0.0035


--------------------------------------- Iteration      1(   1)  ---------------------------------------


    POTLOK:  cpu time    0.1734: real time    0.2160
    SETDIJ:  cpu time    0.0375: real time    0.0376
     EDDAV:  cpu time  164.4259: real time  164.8335
    --------------------------------------------
      LOOP:  cpu time  164.6433: real time  165.0937

 eigenvalue-minimisations  : 50688
 total energy-change (2. order) : 0.6877044E+04  (-0.2020824E+05)
 number of electron     512.0000000 magnetization      80.0000000
 augmentation part      512.0000000 magnetization      80.0000000

 Free energy of the ion-electron system (eV)
  ---------------------------------------------------
  alpha Z        PSCENC =      2551.59597371
  Ewald energy   TEWEN  =    -41462.02305095
  -Hartree energ DENC   =    -11784.24415095
  -exchange      EXHF   =         0.00000000
  -V(xc)+E(xc)   XCENC  =      2004.85730304
  PAW double counting   =     41846.49563633   -44035.77946198
  entropy T*S    EENTRO =        -0.00960237
  eigenvalues    EBANDS =      9509.06961675
  atomic energy  EATOM  =     48247.08154143
  Solvation  Ediel_sol  =         0.00000000
  ---------------------------------------------------
  free energy    TOTEN  =      6877.04380501 eV

  energy without entropy =     6877.05340739  energy(sigma->0) =     6877.04860620


--------------------------------------------------------------------------------------------------------




--------------------------------------- Iteration      1(   2)  ---------------------------------------


     EDDAV:  cpu time  151.2427: real time  151.6179
    --------------------------------------------
      LOOP:  cpu time  151.2410: real time  151.6162

 eigenvalue-minimisations  : 50688
 total energy-change (2. order) :-0.5689936E+04  (-0.5100485E+04)
 number of electron     512.0000000 magnetization      80.0000000
 augmentation part      512.0000000 magnetization      80.0000000

 Free energy of the ion-electron system (eV)
  ---------------------------------------------------
  alpha Z        PSCENC =      2551.59597371
  Ewald energy   TEWEN  =    -41462.02305095
  -Hartree energ DENC   =    -11784.24415095
  -exchange      EXHF   =         0.00000000
  -V(xc)+E(xc)   XCENC  =      2004.85730304
  PAW double counting   =     41846.49563633   -44035.77946198
  entropy T*S    EENTRO =        -0.02654137
  eigenvalues    EBANDS =      3819.15102266
  atomic energy  EATOM  =     48247.08154143
  Solvation  Ediel_sol  =         0.00000000
  ---------------------------------------------------
  free energy    TOTEN  =      1187.10827192 eV

  energy without entropy =     1187.13481329  energy(sigma->0) =     1187.12154260


--------------------------------------------------------------------------------------------------------




--------------------------------------- Iteration      1(   3)  ---------------------------------------


     EDDAV:  cpu time  154.8951: real time  155.2791
    --------------------------------------------
      LOOP:  cpu time  154.8970: real time  155.2809

 eigenvalue-minimisations  : 51424
 total energy-change (2. order) :-0.1391808E+04  (-0.1246021E+04)
 number of electron     512.0000000 magnetization      80.0000000
 augmentation part      512.0000000 magnetization      80.0000000

 Free energy of the ion-electron system (eV)
  ---------------------------------------------------
  alpha Z        PSCENC =      2551.59597371
  Ewald energy   TEWEN  =    -41462.02305095
  -Hartree energ DENC   =    -11784.24415095
  -exchange      EXHF   =         0.00000000
  -V(xc)+E(xc)   XCENC  =      2004.85730304
  PAW double counting   =     41846.49563633   -44035.77946198
  entropy T*S    EENTRO =        -0.07962396
  eigenvalues    EBANDS =      2427.39560826
  atomic energy  EATOM  =     48247.08154143
  Solvation  Ediel_sol  =         0.00000000
  ---------------------------------------------------
  free energy    TOTEN  =      -204.70022507 eV

  energy without entropy =     -204.62060111  energy(sigma->0) =     -204.66041309


--------------------------------------------------------------------------------------------------------




--------------------------------------- Iteration      1(   4)  ---------------------------------------


     EDDAV:  cpu time  155.4033: real time  155.7893
    --------------------------------------------
      LOOP:  cpu time  155.4015: real time  155.7876

 eigenvalue-minimisations  : 57504
 total energy-change (2. order) :-0.1583395E+03  (-0.1508654E+03)
 number of electron     512.0000000 magnetization      80.0000000
 augmentation part      512.0000000 magnetization      80.0000000

 Free energy of the ion-electron system (eV)
  ---------------------------------------------------
  alpha Z        PSCENC =      2551.59597371
  Ewald energy   TEWEN  =    -41462.02305095
  -Hartree energ DENC   =    -11784.24415095
  -exchange      EXHF   =         0.00000000
  -V(xc)+E(xc)   XCENC  =      2004.85730304
  PAW double counting   =     41846.49563633   -44035.77946198
  entropy T*S    EENTRO =        -0.08990434
  eigenvalues    EBANDS =      2269.06635322
  atomic energy  EATOM  =     48247.08154143
  Solvation  Ediel_sol  =         0.00000000
  ---------------------------------------------------
  free energy    TOTEN  =      -363.03976049 eV

  energy without entropy =     -362.94985615  energy(sigma->0) =     -362.99480832


--------------------------------------------------------------------------------------------------------




--------------------------------------- Iteration      1(   5)  ---------------------------------------


     EDDAV:  cpu time  154.4904: real time  154.8738
    CHARGE:  cpu time    3.8530: real time    3.8625
    MIXING:  cpu time    0.0030: real time    0.0030
    --------------------------------------------
      LOOP:  cpu time  158.3415: real time  158.7344

 eigenvalue-minimisations  : 57344
 total energy-change (2. order) :-0.4119029E+01  (-0.4085199E+01)
 number of electron     512.0000015 magnetization      65.4529204
 augmentation part      207.2034778 magnetization      52.1203220

 Broyden mixing:
  rms(total) = 0.21088E+02    rms(broyden)= 0.21087E+02
  rms(prec ) = 0.22535E+02
  weight for this iteration     100.00

 Free energy of the ion-electron system (eV)
  ---------------------------------------------------
  alpha Z        PSCENC =      2551.59597371
  Ewald energy   TEWEN  =    -41462.02305095
  -Hartree energ DENC   =    -11784.24415095
  -exchange      EXHF   =         0.00000000
  -V(xc)+E(xc)   XCENC  =      2004.85730304
  PAW double counting   =     41846.49563633   -44035.77946198
  entropy T*S    EENTRO =        -0.09000564
  eigenvalues    EBANDS =      2264.94742583
  atomic energy  EATOM  =     48247.08154143
  Solvation  Ediel_sol  =         0.00000000
  ---------------------------------------------------
  free energy    TOTEN  =      -367.15878917 eV

  energy without entropy =     -367.06878353  energy(sigma->0) =     -367.11378635


--------------------------------------------------------------------------------------------------------




--------------------------------------- Iteration      1(   6)  ---------------------------------------


    POTLOK:  cpu time    0.1242: real time    0.1245
    SETDIJ:  cpu time    0.0261: real time    0.0261
     EDDAV:  cpu time  195.3889: real time  195.8738
    CHARGE:  cpu time    3.7524: real time    3.7617
    MIXING:  cpu time    0.0031: real time    0.0031
    --------------------------------------------
      LOOP:  cpu time  199.2946: real time  199.7892

 eigenvalue-minimisations  : 74848
 total energy-change (2. order) :-0.4688336E+02  (-0.4853925E+02)
 number of electron     512.0000006 magnetization      51.6183417
 augmentation part      224.9687144 magnetization      47.5145260

 Broyden mixing:
  rms(total) = 0.18781E+02    rms(broyden)= 0.18780E+02
  rms(prec ) = 0.25238E+02
  weight for this iteration     100.00

 eigenvalues of (default mixing * dielectric matrix)
  average eigenvalue GAMMA=   0.4969
  0.4969

 Free energy of the ion-electron system (eV)
  ---------------------------------------------------
  alpha Z        PSCENC =      2551.59597371
  Ewald energy   TEWEN  =    -41462.02305095
  -Hartree energ DENC   =    -11528.18817491
  -exchange      EXHF   =         0.00000000
  -V(xc)+E(xc)   XCENC  =      1998.04893416
  PAW double counting   =     51025.71325803   -53118.96819749
  entropy T*S    EENTRO =        -0.02813002
  eigenvalues    EBANDS =      1872.72569948
  atomic energy  EATOM  =     48247.08154143
  Solvation  Ediel_sol  =         0.00000000
  ---------------------------------------------------
  free energy    TOTEN  =      -414.04214655 eV

  energy without entropy =     -414.01401653  energy(sigma->0) =     -414.02808154


--------------------------------------------------------------------------------------------------------




--------------------------------------- Iteration      1(   7)  ---------------------------------------


    POTLOK:  cpu time    0.1230: real time    0.1233
    SETDIJ:  cpu time    0.0260: real time    0.0261
     EDDAV:  cpu time  156.8064: real time  157.1957
    CHARGE:  cpu time    3.7963: real time    3.8056
    MIXING:  cpu time    0.0033: real time    0.0033
    --------------------------------------------
      LOOP:  cpu time  160.7550: real time  161.1540

 eigenvalue-minimisations  : 58752
 total energy-change (2. order) :-0.9048965E+01  (-0.8779548E+02)
 number of electron     512.0000023 magnetization      38.1436482
 augmentation part      222.3768803 magnetization      31.8496154

 Broyden mixing:
  rms(total) = 0.23451E+02    rms(broyden)= 0.23451E+02
  rms(prec ) = 0.26980E+02
  weight for this iteration     100.00

 eigenvalues of (default mixing * dielectric matrix)
  average eigenvalue GAMMA=   0.4145
  0.6639  0.1651

 Free energy of the ion-electron system (eV)
  ---------------------------------------------------
  alpha Z        PSCENC =      2551.59597371
  Ewald energy   TEWEN  =    -41462.02305095
  -Hartree energ DENC   =    -11459.32362803
  -exchange      EXHF   =         0.00000000
  -V(xc)+E(xc)   XCENC  =      1990.56764083
  PAW double counting   =     54037.08515253   -56228.00704891
  entropy T*S    EENTRO =        -0.06338705
  eigenvalues    EBANDS =      1899.99569509
  atomic energy  EATOM  =     48247.08154143
  Solvation  Ediel_sol  =         0.00000000
  ---------------------------------------------------
  free energy    TOTEN  =      -423.09111135 eV

  energy without entropy =     -423.02772430  energy(sigma->0) =     -423.05941783


--------------------------------------------------------------------------------------------------------




--------------------------------------- Iteration      1(   8)  ---------------------------------------


    POTLOK:  cpu time    0.1211: real time    0.1214
    SETDIJ:  cpu time    0.0248: real time    0.0248
     EDDAV:  cpu time  180.0961: real time  180.5418
    CHARGE:  cpu time    3.8398: real time    3.8492
    MIXING:  cpu time    0.0033: real time    0.0033
    --------------------------------------------
      LOOP:  cpu time  184.0850: real time  184.5404

 eigenvalue-minimisations  : 68864
 total energy-change (2. order) :-0.6405790E+01  (-0.2460224E+02)
 number of electron     512.0000023 magnetization      27.3648559
 augmentation part      216.7604336 magnetization      22.9061644

 Broyden mixing:
  rms(total) = 0.18949E+02    rms(broyden)= 0.18949E+02
  rms(prec ) = 0.25069E+02
  weight for this iteration     100.00

 eigenvalues of (default mixing * dielectric matrix)
  average eigenvalue GAMMA=   0.5309
  0.9772  0.3077  0.3077

 Free energy of the ion-electron system (eV)
  ---------------------------------------------------
  alpha Z        PSCENC =      2551.59597371
  Ewald energy   TEWEN  =    -41462.02305095
  -Hartree energ DENC   =    -11541.27976074
  -exchange      EXHF   =         0.00000000
  -V(xc)+E(xc)   XCENC  =      1989.12107223
  PAW double counting   =     58082.75179873   -60383.47032043
  entropy T*S    EENTRO =        -0.05973868
  eigenvalues    EBANDS =      2086.78558339
  atomic energy  EATOM  =     48247.08154143
  Solvation  Ediel_sol  =         0.00000000
  ---------------------------------------------------
  free energy    TOTEN  =      -429.49690131 eV

  energy without entropy =     -429.43716263  energy(sigma->0) =     -429.46703197


--------------------------------------------------------------------------------------------------------




--------------------------------------- Iteration      1(   9)  ---------------------------------------


    POTLOK:  cpu time    0.1228: real time    0.1231
    SETDIJ:  cpu time    0.0261: real time    0.0262
     EDDAV:  cpu time  166.3398: real time  166.7406
    CHARGE:  cpu time    3.8961: real time    3.9319
    MIXING:  cpu time    0.0031: real time    0.0031
    --------------------------------------------
      LOOP:  cpu time  170.3879: real time  170.8249

 eigenvalue-minimisations  : 64048
 total energy-change (2. order) :-0.1990358E+02  (-0.1868820E+02)
 number of electron     512.0000021 magnetization       4.8491019
 augmentation part      214.7072883 magnetization       1.3206059

 Broyden mixing:
  rms(total) = 0.17554E+02    rms(broyden)= 0.17552E+02
  rms(prec ) = 0.25753E+02
  weight for this iteration     100.00

 eigenvalues of (default mixing * dielectric matrix)
  average eigenvalue GAMMA=   0.7777
  2.1277  0.5553  0.2819  0.1459

 Free energy of the ion-electron system (eV)
  ---------------------------------------------------
  alpha Z        PSCENC =      2551.59597371
  Ewald energy   TEWEN  =    -41462.02305095
  -Hartree energ DENC   =    -11574.15959027
  -exchange      EXHF   =         0.00000000
  -V(xc)+E(xc)   XCENC  =      1988.01101232
  PAW double counting   =     61229.99978896   -63593.26318187
  entropy T*S    EENTRO =        -0.05071271
  eigenvalues    EBANDS =      2163.40773517
  atomic energy  EATOM  =     48247.08154143
  Solvation  Ediel_sol  =         0.00000000
  ---------------------------------------------------
  free energy    TOTEN  =      -449.40048420 eV

  energy without entropy =     -449.34977149  energy(sigma->0) =     -449.37512784


--------------------------------------------------------------------------------------------------------




--------------------------------------- Iteration      1(  10)  ---------------------------------------


    POTLOK:  cpu time    0.1136: real time    0.1139
    SETDIJ:  cpu time    0.0244: real time    0.0245
     EDDAV:  cpu time  172.5263: real time  172.9344
    CHARGE:  cpu time    3.9192: real time    3.9286
    MIXING:  cpu time    0.0035: real time    0.0035
    --------------------------------------------
      LOOP:  cpu time  176.5870: real time  177.0048

 eigenvalue-minimisations  : 65840
 total energy-change (2. order) :-0.9702031E+02  (-0.4288328E+02)
 number of electron     512.0000019 magnetization      -1.6649837
 augmentation part      213.4950175 magnetization      -3.3055803

 Broyden mixing:
  rms(total) = 0.16679E+02    rms(broyden)= 0.16678E+02
  rms(prec ) = 0.25530E+02
  weight for this iteration     100.00

 eigenvalues of (default mixing * dielectric matrix)
  average eigenvalue GAMMA=   0.6960
  2.3130  0.5448  0.2436  0.2436  0.1350

 Free energy of the ion-electron system (eV)
  ---------------------------------------------------
  alpha Z        PSCENC =      2551.59597371
  Ewald energy   TEWEN  =    -41462.02305095
  -Hartree energ DENC   =    -11559.71166410
  -exchange      EXHF   =         0.00000000
  -V(xc)+E(xc)   XCENC  =      1985.42569785
  PAW double counting   =     67502.64331978   -69939.45875301
  entropy T*S    EENTRO =        -0.04477020
  eigenvalues    EBANDS =      2128.07090977
  atomic energy  EATOM  =     48247.08154143
  Solvation  Ediel_sol  =         0.00000000
  ---------------------------------------------------
  free energy    TOTEN  =      -546.42079571 eV

  energy without entropy =     -546.37602551  energy(sigma->0) =     -546.39841061


--------------------------------------------------------------------------------------------------------




--------------------------------------- Iteration      1(  11)  ---------------------------------------


    POTLOK:  cpu time    0.1238: real time    0.1241
    SETDIJ:  cpu time    0.0259: real time    0.0260
     EDDAV:  cpu time  175.1169: real time  175.5312
    CHARGE:  cpu time    3.8272: real time    3.8523
    MIXING:  cpu time    0.0037: real time    0.0037
    --------------------------------------------
      LOOP:  cpu time  179.0975: real time  179.5372

 eigenvalue-minimisations  : 68368
 total energy-change (2. order) : 0.1170131E+03  (-0.1228220E+02)
 number of electron     512.0000017 magnetization      -1.7903866
 augmentation part      217.8663806 magnetization      -2.3333635

 Broyden mixing:
  rms(total) = 0.10830E+02    rms(broyden)= 0.10828E+02
  rms(prec ) = 0.16506E+02
  weight for this iteration     100.00

 eigenvalues of (default mixing * dielectric matrix)
  average eigenvalue GAMMA=   0.6120
  2.2016  0.5357  0.3053  0.3053  0.1836  0.1406

 Free energy of the ion-electron system (eV)
  ---------------------------------------------------
  alpha Z        PSCENC =      2551.59597371
  Ewald energy   TEWEN  =    -41462.02305095
  -Hartree energ DENC   =    -11517.09679780
  -exchange      EXHF   =         0.00000000
  -V(xc)+E(xc)   XCENC  =      1983.08737317
  PAW double counting   =     69542.65265797   -72000.39759171
  entropy T*S    EENTRO =        -0.06276389
  eigenvalues    EBANDS =      2225.75493396
  atomic energy  EATOM  =     48247.08154143
  Solvation  Ediel_sol  =         0.00000000
  ---------------------------------------------------
  free energy    TOTEN  =      -429.40772410 eV

  energy without entropy =     -429.34496021  energy(sigma->0) =     -429.37634215


--------------------------------------------------------------------------------------------------------




--------------------------------------- Iteration      1(  12)  ---------------------------------------


    POTLOK:  cpu time    0.1238: real time    0.1491
    SETDIJ:  cpu time    0.0258: real time    0.0258
     EDDAV:  cpu time  165.0004: real time  165.3906
    CHARGE:  cpu time    3.8179: real time    3.8269
    MIXING:  cpu time    0.0039: real time    0.0039
    --------------------------------------------
      LOOP:  cpu time  168.9717: real time  169.3963

 eigenvalue-minimisations  : 63472
 total energy-change (2. order) : 0.7080042E+02  (-0.1078447E+02)
 number of electron     512.0000013 magnetization       1.0780513
 augmentation part      220.7266864 magnetization       1.2420737

 Broyden mixing:
  rms(total) = 0.87678E+01    rms(broyden)= 0.87664E+01
  rms(prec ) = 0.12265E+02
  weight for this iteration     100.00

 eigenvalues of (default mixing * dielectric matrix)
  average eigenvalue GAMMA=   0.5485
  1.9065  0.5817  0.4135  0.4135  0.2446  0.1400  0.1400

 Free energy of the ion-electron system (eV)
  ---------------------------------------------------
  alpha Z        PSCENC =      2551.59597371
  Ewald energy   TEWEN  =    -41462.02305095
  -Hartree energ DENC   =    -11488.61371877
  -exchange      EXHF   =         0.00000000
  -V(xc)+E(xc)   XCENC  =      1981.08260874
  PAW double counting   =     69653.04882318   -72114.63967163
  entropy T*S    EENTRO =        -0.05474949
  eigenvalues    EBANDS =      2273.91494262
  atomic energy  EATOM  =     48247.08154143
  Solvation  Ediel_sol  =         0.00000000
  ---------------------------------------------------
  free energy    TOTEN  =      -358.60730116 eV

  energy without entropy =     -358.55255166  energy(sigma->0) =     -358.57992641


--------------------------------------------------------------------------------------------------------




--------------------------------------- Iteration      1(  13)  ---------------------------------------


    POTLOK:  cpu time    0.1243: real time    0.1246
    SETDIJ:  cpu time    0.0262: real time    0.0262
     EDDAV:  cpu time  163.4098: real time  163.7964
    CHARGE:  cpu time    3.8266: real time    3.8357
    MIXING:  cpu time    0.0040: real time    0.0040
    --------------------------------------------
      LOOP:  cpu time  167.3909: real time  167.7869

 eigenvalue-minimisations  : 62784
 total energy-change (2. order) : 0.9351432E+01  (-0.9519203E+01)
 number of electron     512.0000019 magnetization       2.3325634
 augmentation part      218.7958279 magnetization       1.9302784

 Broyden mixing:
  rms(total) = 0.90638E+01    rms(broyden)= 0.90626E+01
  rms(prec ) = 0.14229E+02
  weight for this iteration     100.00

 eigenvalues of (default mixing * dielectric matrix)
  average eigenvalue GAMMA=   0.4980
  1.8216  0.5334  0.4610  0.4610  0.2780  0.1387  0.1451  0.1451

 Free energy of the ion-electron system (eV)
  ---------------------------------------------------
  alpha Z        PSCENC =      2551.59597371
  Ewald energy   TEWEN  =    -41462.02305095
  -Hartree energ DENC   =    -11485.48130127
  -exchange      EXHF   =         0.00000000
  -V(xc)+E(xc)   XCENC  =      1979.86639253
  PAW double counting   =     68620.04143047   -71071.72787087
  entropy T*S    EENTRO =        -0.05206487
  eigenvalues    EBANDS =      2271.44308107
  atomic energy  EATOM  =     48247.08154143
  Solvation  Ediel_sol  =         0.00000000
  ---------------------------------------------------
  free energy    TOTEN  =      -349.25586875 eV

  energy without entropy =     -349.20380388  energy(sigma->0) =     -349.22983631


--------------------------------------------------------------------------------------------------------




--------------------------------------- Iteration      1(  14)  ---------------------------------------


    POTLOK:  cpu time    0.1223: real time    0.1226
    SETDIJ:  cpu time    0.0261: real time    0.0262
     EDDAV:  cpu time  179.8321: real time  180.2574
    CHARGE:  cpu time    3.8710: real time    3.8802
    MIXING:  cpu time    0.0041: real time    0.0041
    --------------------------------------------
      LOOP:  cpu time  183.8556: real time  184.2905

 eigenvalue-minimisations  : 70752
 total energy-change (2. order) : 0.2045163E+02  (-0.3931692E+01)
 number of electron     512.0000021 magnetization       2.8351285
 augmentation part      219.0875301 magnetization       2.4385537

 Broyden mixing:
  rms(total) = 0.74502E+01    rms(broyden)= 0.74494E+01
  rms(prec ) = 0.11740E+02
  weight for this iteration     100.00

 eigenvalues of (default mixing * dielectric matrix)
  average eigenvalue GAMMA=   0.4588
  1.7905  0.4856  0.4856  0.4834  0.3179  0.1624  0.1624  0.1362  0.1050

 Free energy of the ion-electron system (eV)
  ---------------------------------------------------
  alpha Z        PSCENC =      2551.59597371
  Ewald energy   TEWEN  =    -41462.02305095
  -Hartree energ DENC   =    -11486.95218581
  -exchange      EXHF   =         0.00000000
  -V(xc)+E(xc)   XCENC  =      1979.63512684
  PAW double counting   =     68224.14077481   -70672.39321621
  entropy T*S    EENTRO =        -0.05205293
  eigenvalues    EBANDS =      2290.16284621
  atomic energy  EATOM  =     48247.08154143
  Solvation  Ediel_sol  =         0.00000000
  ---------------------------------------------------
  free energy    TOTEN  =      -328.80424289 eV

  energy without entropy =     -328.75218997  energy(sigma->0) =     -328.77821643


--------------------------------------------------------------------------------------------------------




--------------------------------------- Iteration      1(  15)  ---------------------------------------


    POTLOK:  cpu time    0.1240: real time    0.1242
    SETDIJ:  cpu time    0.0258: real time    0.0258
     EDDAV:  cpu time  169.1632: real time  169.5633
    CHARGE:  cpu time    3.8465: real time    3.8556
    MIXING:  cpu time    0.0043: real time    0.0043
    --------------------------------------------
      LOOP:  cpu time  173.1637: real time  173.5733

 eigenvalue-minimisations  : 65568
 total energy-change (2. order) : 0.1574449E+02  (-0.3440901E+01)
 number of electron     512.0000014 magnetization       2.8411420
 augmentation part      219.2172624 magnetization       2.3702417

 Broyden mixing:
  rms(total) = 0.53611E+01    rms(broyden)= 0.53606E+01
  rms(prec ) = 0.87308E+01
  weight for this iteration     100.00

 eigenvalues of (default mixing * dielectric matrix)
  average eigenvalue GAMMA=   0.4302
  1.7801  0.4909  0.4909  0.4921  0.2989  0.1929  0.1929  0.1389  0.1389  0.0855

 Free energy of the ion-electron system (eV)
  ---------------------------------------------------
  alpha Z        PSCENC =      2551.59597371
  Ewald energy   TEWEN  =    -41462.02305095
  -Hartree energ DENC   =    -11489.92282899
  -exchange      EXHF   =         0.00000000
  -V(xc)+E(xc)   XCENC  =      1979.69234759
  PAW double counting   =     68025.98621666   -70470.74916198
  entropy T*S    EENTRO =        -0.06082076
  eigenvalues    EBANDS =      2305.34002917
  atomic energy  EATOM  =     48247.08154143
  Solvation  Ediel_sol  =         0.00000000
  ---------------------------------------------------
  free energy    TOTEN  =      -313.05975412 eV

  energy without entropy =     -312.99893336  energy(sigma->0) =     -313.02934374


--------------------------------------------------------------------------------------------------------




--------------------------------------- Iteration      1(  16)  ---------------------------------------


    POTLOK:  cpu time    0.1236: real time    0.1239
    SETDIJ:  cpu time    0.0258: real time    0.0259
     EDDAV:  cpu time  175.4716: real time  175.8865
    CHARGE:  cpu time    3.8448: real time    3.8539
    MIXING:  cpu time    0.0046: real time    0.0046
    --------------------------------------------
      LOOP:  cpu time  179.4704: real time  179.8949

 eigenvalue-minimisations  : 68480
 total energy-change (2. order) : 0.6305932E+01  (-0.1694208E+01)
 number of electron     512.0000019 magnetization       2.8572770
 augmentation part      219.4836530 magnetization       2.4377455

 Broyden mixing:
  rms(total) = 0.42441E+01    rms(broyden)= 0.42435E+01
  rms(prec ) = 0.60597E+01
  weight for this iteration     100.00

 eigenvalues of (default mixing * dielectric matrix)
  average eigenvalue GAMMA=   0.4294
  1.7455  0.5894  0.5894  0.5057  0.3210  0.3210  0.1670  0.1670  0.1448  0.0904
  0.0820

 Free energy of the ion-electron system (eV)
  ---------------------------------------------------
  alpha Z        PSCENC =      2551.59597371
  Ewald energy   TEWEN  =    -41462.02305095
  -Hartree energ DENC   =    -11488.78123240
  -exchange      EXHF   =         0.00000000
  -V(xc)+E(xc)   XCENC  =      1979.71804041
  PAW double counting   =     67993.54948049   -70435.90380027
  entropy T*S    EENTRO =        -0.06465559
  eigenvalues    EBANDS =      2308.07388099
  atomic energy  EATOM  =     48247.08154143
  Solvation  Ediel_sol  =         0.00000000
  ---------------------------------------------------
  free energy    TOTEN  =      -306.75382217 eV

  energy without entropy =     -306.68916659  energy(sigma->0) =     -306.72149438


--------------------------------------------------------------------------------------------------------




--------------------------------------- Iteration      1(  17)  ---------------------------------------


    POTLOK:  cpu time    0.1229: real time    0.1232
    SETDIJ:  cpu time    0.0260: real time    0.0260
     EDDAV:  cpu time  170.5572: real time  170.9607
    CHARGE:  cpu time    3.8286: real time    3.8377
    MIXING:  cpu time    0.0047: real time    0.0047
    --------------------------------------------
      LOOP:  cpu time  174.5394: real time  174.9523

 eigenvalue-minimisations  : 66032
 total energy-change (2. order) : 0.2432903E+01  (-0.7186380E+00)
 number of electron     512.0000018 magnetization       2.4452077
 augmentation part      219.3200795 magnetization       2.1740424

 Broyden mixing:
  rms(total) = 0.43237E+01    rms(broyden)= 0.43233E+01
  rms(prec ) = 0.60578E+01
  weight for this iteration     100.00

 eigenvalues of (default mixing * dielectric matrix)
  average eigenvalue GAMMA=   0.4083
  1.7559  0.6282  0.6282  0.4933  0.3307  0.3307  0.1643  0.1643  0.1473  0.0929
  0.0820  0.0820

 Free energy of the ion-electron system (eV)
  ---------------------------------------------------
  alpha Z        PSCENC =      2551.59597371
  Ewald energy   TEWEN  =    -41462.02305095
  -Hartree energ DENC   =    -11489.70932364
  -exchange      EXHF   =         0.00000000
  -V(xc)+E(xc)   XCENC  =      1979.86110493
  PAW double counting   =     67913.87091501   -70350.23329029
  entropy T*S    EENTRO =        -0.06432817
  eigenvalues    EBANDS =      2305.29953839
  atomic energy  EATOM  =     48247.08154143
  Solvation  Ediel_sol  =         0.00000000
  ---------------------------------------------------
  free energy    TOTEN  =      -304.32091958 eV

  energy without entropy =     -304.25659141  energy(sigma->0) =     -304.28875549


--------------------------------------------------------------------------------------------------------




--------------------------------------- Iteration      1(  18)  ---------------------------------------


    POTLOK:  cpu time    0.1230: real time    0.1233
    SETDIJ:  cpu time    0.0262: real time    0.0263
     EDDAV:  cpu time  175.7258: real time  176.1415
    CHARGE:  cpu time    3.8231: real time    3.8322
    MIXING:  cpu time    0.0049: real time    0.0049
    --------------------------------------------
      LOOP:  cpu time  179.7031: real time  180.1282

 eigenvalue-minimisations  : 68608
 total energy-change (2. order) : 0.4076063E+01  (-0.3957179E+00)
 number of electron     512.0000018 magnetization       2.0410194
 augmentation part      219.3662227 magnetization       1.8001801

 Broyden mixing:
  rms(total) = 0.35264E+01    rms(broyden)= 0.35261E+01
  rms(prec ) = 0.48025E+01
  weight for this iteration     100.00

 eigenvalues of (default mixing * dielectric matrix)
  average eigenvalue GAMMA=   0.4100
  1.7710  0.6760  0.6760  0.4860  0.3308  0.3308  0.2289  0.1819  0.1819  0.1489
  0.1489  0.0843  0.0843

 Free energy of the ion-electron system (eV)
  ---------------------------------------------------
  alpha Z        PSCENC =      2551.59597371
  Ewald energy   TEWEN  =    -41462.02305095
  -Hartree energ DENC   =    -11492.21816690
  -exchange      EXHF   =         0.00000000
  -V(xc)+E(xc)   XCENC  =      1980.05463677
  PAW double counting   =     67951.85110309   -70383.61712128
  entropy T*S    EENTRO =        -0.06382745
  eigenvalues    EBANDS =      2307.09405500
  atomic energy  EATOM  =     48247.08154143
  Solvation  Ediel_sol  =         0.00000000
  ---------------------------------------------------
  free energy    TOTEN  =      -300.24485660 eV

  energy without entropy =     -300.18102914  energy(sigma->0) =     -300.21294287


--------------------------------------------------------------------------------------------------------




--------------------------------------- Iteration      1(  19)  ---------------------------------------


    POTLOK:  cpu time    0.1225: real time    0.1228
    SETDIJ:  cpu time    0.0260: real time    0.0261
     EDDAV:  cpu time  173.0367: real time  173.4460
    CHARGE:  cpu time    3.8397: real time    3.8488
    MIXING:  cpu time    0.0053: real time    0.0053
    --------------------------------------------
      LOOP:  cpu time  177.0302: real time  177.4490

 eigenvalue-minimisations  : 67104
 total energy-change (2. order) : 0.6749247E+00  (-0.3394551E+00)
 number of electron     512.0000019 magnetization       0.3384000
 augmentation part      219.2993497 magnetization       0.2076431

 Broyden mixing:
  rms(total) = 0.35208E+01    rms(broyden)= 0.35206E+01
  rms(prec ) = 0.52366E+01
  weight for this iteration     100.00

 eigenvalues of (default mixing * dielectric matrix)
  average eigenvalue GAMMA=   0.4737
  1.8341  1.0887  1.0887  0.4925  0.4340  0.4340  0.3349  0.1706  0.1706  0.1702
  0.1394  0.1065  0.0841  0.0841

 Free energy of the ion-electron system (eV)
  ---------------------------------------------------
  alpha Z        PSCENC =      2551.59597371
  Ewald energy   TEWEN  =    -41462.02305095
  -Hartree energ DENC   =    -11494.52332411
  -exchange      EXHF   =         0.00000000
  -V(xc)+E(xc)   XCENC  =      1980.17355258
  PAW double counting   =     67984.13877101   -70412.14964410
  entropy T*S    EENTRO =        -0.06581823
  eigenvalues    EBANDS =      2306.20206678
  atomic energy  EATOM  =     48247.08154143
  Solvation  Ediel_sol  =         0.00000000
  ---------------------------------------------------
  free energy    TOTEN  =      -299.56993188 eV

  energy without entropy =     -299.50411365  energy(sigma->0) =     -299.53702276


--------------------------------------------------------------------------------------------------------




--------------------------------------- Iteration      1(  20)  ---------------------------------------


    POTLOK:  cpu time    0.1226: real time    0.1229
    SETDIJ:  cpu time    0.0255: real time    0.0255
     EDDAV:  cpu time  170.1573: real time  170.5598
    CHARGE:  cpu time    3.8550: real time    3.8642
    MIXING:  cpu time    0.0056: real time    0.0056
    --------------------------------------------
      LOOP:  cpu time  174.1660: real time  174.5780

 eigenvalue-minimisations  : 65840
 total energy-change (2. order) : 0.4798250E+01  (-0.6649062E+00)
 number of electron     512.0000020 magnetization      -0.7750455
 augmentation part      219.0513393 magnetization      -0.5165703

 Broyden mixing:
  rms(total) = 0.30166E+01    rms(broyden)= 0.30162E+01
  rms(prec ) = 0.44096E+01
  weight for this iteration     100.00

 eigenvalues of (default mixing * dielectric matrix)
  average eigenvalue GAMMA=   0.4781
  1.8978  1.2218  1.2218  0.4583  0.4583  0.4445  0.3241  0.2756  0.1677  0.1677
  0.1379  0.1278  0.0981  0.0862  0.0835

 Free energy of the ion-electron system (eV)
  ---------------------------------------------------
  alpha Z        PSCENC =      2551.59597371
  Ewald energy   TEWEN  =    -41462.02305095
  -Hartree energ DENC   =    -11500.70353741
  -exchange      EXHF   =         0.00000000
  -V(xc)+E(xc)   XCENC  =      1980.68740522
  PAW double counting   =     68116.66522825   -70528.86506221
  entropy T*S    EENTRO =        -0.06568066
  eigenvalues    EBANDS =      2300.85550031
  atomic energy  EATOM  =     48247.08154143
  Solvation  Ediel_sol  =         0.00000000
  ---------------------------------------------------
  free energy    TOTEN  =      -294.77168232 eV

  energy without entropy =     -294.70600166  energy(sigma->0) =     -294.73884199


--------------------------------------------------------------------------------------------------------




--------------------------------------- Iteration      1(  21)  ---------------------------------------


    POTLOK:  cpu time    0.1226: real time    0.1229
    SETDIJ:  cpu time    0.0259: real time    0.0260
     EDDAV:  cpu time  188.5903: real time  189.0363
    CHARGE:  cpu time    4.0328: real time    4.0424
    MIXING:  cpu time    0.0055: real time    0.0055
    --------------------------------------------
      LOOP:  cpu time  192.7771: real time  193.2331

 eigenvalue-minimisations  : 74400
 total energy-change (2. order) : 0.1787734E+01  (-0.6151878E+00)
 number of electron     512.0000017 magnetization      -1.1848041
 augmentation part      218.9678397 magnetization      -0.8682016

 Broyden mixing:
  rms(total) = 0.23630E+01    rms(broyden)= 0.23619E+01
  rms(prec ) = 0.32656E+01
  weight for this iteration     100.00

 eigenvalues of (default mixing * dielectric matrix)
  average eigenvalue GAMMA=   0.4848
  1.9302  1.3001  1.3001  0.5199  0.5199  0.4228  0.4228  0.3433  0.1700  0.1700
  0.1385  0.1385  0.1150  0.0840  0.0840  0.0977

 Free energy of the ion-electron system (eV)
  ---------------------------------------------------
  alpha Z        PSCENC =      2551.59597371
  Ewald energy   TEWEN  =    -41462.02305095
  -Hartree energ DENC   =    -11503.96780474
  -exchange      EXHF   =         0.00000000
  -V(xc)+E(xc)   XCENC  =      1980.93343419
  PAW double counting   =     68247.94052715   -70653.46887309
  entropy T*S    EENTRO =        -0.06658804
  eigenvalues    EBANDS =      2298.99089184
  atomic energy  EATOM  =     48247.08154143
  Solvation  Ediel_sol  =         0.00000000
  ---------------------------------------------------
  free energy    TOTEN  =      -292.98394851 eV

  energy without entropy =     -292.91736047  energy(sigma->0) =     -292.95065449


--------------------------------------------------------------------------------------------------------




--------------------------------------- Iteration      1(  22)  ---------------------------------------


    POTLOK:  cpu time    0.1217: real time    0.1219
[...]
   0.146E+03 -.298E+03 -.494E+02   -.150E+03 0.307E+03 0.514E+02   0.236E+01 -.549E+01 -.420E+01   -.242E+00 0.192E+00 -.512E-01
   -.355E+02 -.160E+03 -.553E+02   0.389E+02 0.162E+03 0.575E+02   0.291E+00 0.245E+00 -.332E+01   -.167E+00 0.909E-02 -.220E+00
   0.217E+03 -.223E+03 -.171E+03   -.219E+03 0.228E+03 0.173E+03   -.566E+00 -.269E+01 -.133E+01   -.344E-01 0.882E-01 -.811E-01
   0.513E+03 0.128E+03 -.368E+03   -.584E+03 -.122E+03 0.390E+03   0.727E+01 0.440E+01 -.443E+01   0.119E+00 -.335E-01 0.477E-01
   -.111E+03 -.253E+03 0.163E+03   0.114E+03 0.256E+03 -.163E+03   -.840E+00 0.252E+00 -.195E+01   -.149E+00 0.122E+00 0.332E-01
   0.146E+03 0.291E+01 0.359E+03   -.146E+03 -.977E+00 -.383E+03   0.141E+00 0.991E+00 -.277E+01   -.308E+00 -.467E-02 0.193E+00
   0.476E+03 -.346E+03 0.438E+03   -.501E+03 0.361E+03 -.472E+03   0.783E+01 0.947E+00 0.101E+02   0.841E-01 0.127E+00 0.244E-01
   0.145E+03 0.512E+02 0.137E+03   -.146E+03 -.527E+02 -.140E+03   -.127E+01 0.341E+00 0.185E+01   -.737E-01 0.856E-01 -.408E-01
   0.419E+03 0.169E+03 -.227E+03   -.433E+03 -.168E+03 0.231E+03   0.488E+01 0.399E+00 -.122E+01   -.997E-01 -.161E+00 0.108E+00
   0.377E+02 0.205E+03 -.143E+03   -.369E+02 -.209E+03 0.147E+03   -.176E+00 0.231E+01 -.298E+01   -.800E-01 -.564E-01 -.358E-01
   0.232E+03 0.130E+03 -.216E+03   -.238E+03 -.131E+03 0.219E+03   0.103E+01 0.127E+01 -.212E+01   -.436E-01 -.101E+00 0.537E-02
   0.175E+03 0.332E+03 -.294E+03   -.177E+03 -.356E+03 0.303E+03   -.199E+01 0.440E+01 -.325E+01   0.626E-01 -.582E-01 0.155E-01
   0.473E+03 0.135E+03 0.179E+03   -.488E+03 -.136E+03 -.180E+03   0.325E+01 -.462E-01 0.112E+01   -.108E+00 -.129E+00 -.840E-01
   -.103E+01 0.256E+03 0.281E+03   0.560E+01 -.272E+03 -.292E+03   -.386E+01 -.849E+00 0.460E+01   -.342E+00 -.751E-01 0.505E-01
   0.140E+03 -.402E+02 0.289E+03   -.142E+03 0.423E+02 -.297E+03   0.821E+00 0.125E+01 0.340E+01   0.308E-01 -.672E-01 0.161E-01
   0.325E+03 0.175E+03 0.145E+03   -.333E+03 -.184E+03 -.146E+03   0.230E+01 -.154E+01 -.212E+00   0.488E-01 -.477E-01 0.157E-01
   -.212E+01 -.844E+02 -.180E+03   -.478E+00 0.825E+02 0.193E+03   0.122E+00 0.103E+01 -.101E+02   0.923E-01 0.423E-01 -.356E+00
   -.431E+02 -.174E+03 -.308E+02   0.414E+02 0.190E+03 0.250E+02   0.615E+00 -.100E+02 0.438E+01   -.422E-01 0.139E+00 -.920E-01
   -.411E+03 0.446E+02 -.172E+03   0.504E+03 -.616E+02 0.177E+03   -.275E+02 0.982E+00 -.703E+01   0.299E+00 -.213E-01 0.374E-01
   -.128E+03 -.109E+03 -.607E+02   0.137E+03 0.112E+03 0.569E+02   -.783E+01 -.127E+01 0.249E+01   0.128E+00 0.318E-01 -.129E+00
   -.711E+02 -.970E+02 0.277E+02   0.708E+02 0.105E+03 -.180E+02   0.113E+01 -.377E+01 -.829E+01   0.244E-01 0.864E-01 0.338E+00
   0.165E+02 -.222E+03 0.220E+03   -.201E+02 0.246E+03 -.241E+03   0.240E+01 -.111E+02 0.147E+02   0.292E-01 0.777E-02 0.634E-01
   -.193E+03 0.222E+02 0.159E+03   0.206E+03 -.228E+02 -.162E+03   -.841E+01 -.130E+01 0.283E+01   0.808E-01 0.209E-01 0.353E-01
   -.278E+03 -.757E+02 0.360E+03   0.306E+03 0.714E+02 -.422E+03   -.138E+02 0.676E+01 0.257E+02   0.110E+00 0.960E-02 0.967E-01
   -.236E+02 0.227E+03 -.809E+02   0.189E+02 -.250E+03 0.860E+02   0.250E+01 0.989E+01 -.421E+01   0.156E-01 0.681E-01 -.971E-01
   -.107E+03 -.706E+02 -.150E+03   0.111E+03 0.839E+02 0.158E+03   -.399E+01 -.974E+01 -.370E+01   -.316E-03 -.371E+00 -.112E+00
   -.164E+03 0.818E+02 -.183E+03   0.169E+03 -.796E+02 0.193E+03   -.410E+01 -.272E+01 -.619E+01   0.135E+00 0.523E-01 -.104E+00
   -.236E+03 0.106E+03 -.613E+02   0.254E+03 -.113E+03 0.582E+02   -.119E+02 0.585E+01 0.128E+01   -.190E+00 -.408E-01 -.475E-01
   -.987E+01 0.181E+03 0.346E+03   0.120E+01 -.201E+03 -.437E+03   -.662E+00 0.494E+01 0.255E+02   -.592E-01 -.181E-01 0.178E+00
   -.660E+02 0.295E+01 0.115E+03   0.727E+02 0.329E+01 -.122E+03   -.759E+01 -.539E+01 0.599E+01   0.185E-02 -.253E-01 0.139E+00
   -.212E+03 0.209E+03 0.713E+02   0.222E+03 -.233E+03 -.720E+02   -.369E+01 0.127E+02 0.164E+01   0.183E+00 -.528E-01 0.111E+00
   -.187E+03 0.409E+02 0.223E+03   0.195E+03 -.498E+02 -.237E+03   -.610E+01 0.792E+01 0.926E+01   0.256E+00 -.273E-01 -.124E-01
   0.123E+03 -.478E+02 -.945E+02   -.130E+03 0.528E+02 0.943E+02   0.652E+01 -.506E+01 0.136E+01   -.578E-01 0.229E+00 -.713E-01
   0.184E+03 -.300E+03 -.298E+03   -.195E+03 0.339E+03 0.338E+03   0.464E+01 -.209E+02 -.183E+02   0.872E-01 0.635E-01 -.670E-01
   0.560E+02 -.179E+02 -.267E+03   -.579E+02 0.143E+02 0.312E+03   0.478E+00 -.115E+01 -.196E+02   -.371E+00 0.895E-01 -.126E-01
   -.574E+01 -.128E+03 -.141E+03   0.610E+01 0.138E+03 0.149E+03   0.137E+01 -.955E+01 -.458E+01   -.148E+00 0.179E+00 0.431E-02
   0.240E+03 0.652E+02 0.190E+03   -.254E+03 -.715E+02 -.201E+03   0.605E+01 0.515E+01 0.743E+01   -.180E-01 -.716E-01 0.652E-01
   0.277E+03 -.268E+03 0.870E+02   -.309E+03 0.292E+03 -.854E+02   0.168E+02 -.133E+02 0.651E-01   -.189E-01 0.119E+00 0.900E-01
   0.119E+03 -.723E+02 -.258E+02   -.129E+03 0.778E+02 0.308E+02   0.778E+01 -.669E+01 -.329E+01   -.102E+00 0.985E-02 -.315E-01
   -.402E+02 -.287E+03 0.991E+02   0.502E+02 0.321E+03 -.104E+03   -.626E+01 -.159E+02 0.207E+01   -.972E-01 0.104E+00 -.163E-02
   0.260E+03 0.888E+02 -.556E+02   -.292E+03 -.957E+02 0.614E+02   0.148E+02 0.558E+01 -.229E+01   -.373E-01 -.247E+00 -.107E+00
   0.130E+03 -.171E+02 -.140E+03   -.132E+03 0.231E+02 0.145E+03   0.243E+01 -.426E+01 -.365E+01   0.980E-02 -.865E-01 0.268E+00
   0.111E+03 0.141E+03 -.215E+03   -.116E+03 -.153E+03 0.234E+03   0.509E+01 0.108E+02 -.100E+02   -.164E+00 -.554E-01 -.143E-01
   0.124E+03 0.374E+02 -.138E+03   -.126E+03 -.358E+02 0.149E+03   0.204E+01 -.110E+01 -.106E+02   0.114E+00 -.128E+00 -.161E-01
   0.154E+03 0.258E+03 0.150E+03   -.161E+03 -.290E+03 -.157E+03   0.529E+01 0.131E+02 0.763E+00   0.110E+00 0.380E-01 0.109E+00
   0.467E+02 0.103E+03 0.801E+02   -.441E+02 -.110E+03 -.792E+02   -.269E+01 0.774E+01 0.719E+00   0.533E-02 -.923E-01 -.174E+00
   0.852E+01 0.192E+03 0.923E+02   -.364E+01 -.204E+03 -.901E+02   -.358E+01 0.955E+01 -.318E+01   -.151E+00 0.234E-02 0.327E-01
   0.165E+03 0.687E+02 0.137E+03   -.173E+03 -.673E+02 -.140E+03   0.693E+01 -.116E+01 0.150E+01   -.246E+00 -.942E-01 0.103E-01
 -----------------------------------------------------------------------------------------------
   0.163E+02 0.269E+02 0.121E+02   -.455E-12 0.156E-12 0.455E-12   -.164E+02 -.265E+02 -.122E+02   0.142E+00 -.417E+00 0.397E-01
 
 
 POSITION                                       TOTAL-FORCE (eV/Angst)
 -----------------------------------------------------------------------------------
      7.74638      7.80046      7.48847        11.902343     -0.426594     39.102254
      0.24604      1.78596      1.92871        -0.534540      2.767476      1.767187
      2.13040      7.62210      1.89628         0.384446     12.788870      2.169079
      1.91862      2.13769      0.34383         0.917592     -3.058897     -0.479873
      7.75807      7.77347      4.01430        14.720158     14.258147     -3.633831
      7.63075      1.84179      6.14189         8.393136      1.409887    -11.902590
      2.01461      0.33471      5.79970        -0.515038     -2.591556      3.729922
      2.07188      2.11054      4.31389        -0.444824      0.696036     -2.074453
      7.68453      4.12310      0.15005         8.804126      1.592759      5.856283
      7.75173      6.10857      2.04380        18.894317     -3.445820     -2.620066
      2.12000      4.30170      1.95977         0.783107     -0.981200      0.880917
      2.13123      6.19733      7.53010         5.798758      8.924585     65.927076
      7.75167      4.11992      3.94513        11.317967     -0.646157      0.665860
      0.23767      5.76600      6.15120         2.365149     -0.951243     -3.172969
      2.15924      3.80493      6.13650         0.724747      1.587832     -4.569977
      2.04339      6.28862      4.29718        -1.605750    -16.308717     -0.341661
      4.16702      7.77633      0.17603        -1.241373      3.752457     -2.243829
      3.75840      2.22920      2.11288         3.473419      1.820744     -1.245157
      5.99495      0.06496      2.00936        -3.207997      2.343342      0.711803
      6.55271      2.33027      0.06610       -63.675958     10.030872     17.320605
      3.95673      0.06486      4.06141         2.612005      3.971676     -1.987115
      4.17352      2.17485      6.35431         0.646254      2.914945    -26.253124
      6.27771      7.65983      6.33129       -17.075098     15.939389    -23.661116
      5.90018      2.03781      4.03522        -2.383543     -1.137966     -1.181885
      4.60191      4.25557      0.26889        -9.942335      0.595531      2.956058
      4.04559      6.26935      2.15958         0.510227     -1.709209      0.731157
      6.25514      4.11049      2.02074        -4.936042     -0.119951      1.128326
      5.85448      6.25644      0.06352        -4.291108    -19.213221      6.233424
      4.72625      4.23311      4.33971       -11.968376     -0.898609     -0.155291
      3.81207      6.21968      6.28103         0.371780    -16.411905     -5.625576
      6.11025      3.97855      6.22440        -0.719195      3.215502     -4.828591
      6.11772      6.07585      4.28237        -5.252515    -10.903234     -1.208899
      2.06120      1.88728      2.13583        -2.386898     -0.751659      2.324641
      1.96555      7.80603      0.17625        -1.088105      6.214969     -1.472505
      7.69671      2.05633      7.67718        65.762905    -16.047642     -2.259490
      7.78543      0.03849      1.90666         1.458651      1.793812     -1.368474
      2.13025      1.92834      6.16492         0.825693      3.925597      1.705285
      2.13633      7.76187      4.22560        -1.169121     13.487868     -6.688644
      7.52868      2.31465      4.33010         4.761639     -1.852612     -0.757780
      7.75854      0.09170      6.17211        14.553999      2.433509    -36.379064
      1.99208      6.14507      2.04904        -2.137282    -13.096846      0.837466
      2.10387      3.80390      0.00694         0.030965      3.198102      4.175973
      7.70724      5.94900      0.07864         1.200335     -0.490935      3.272175
      0.11029      4.01196      2.18134         5.329541     -1.068179     -1.819533
      1.99439      5.95724      6.37000        -9.391404    -15.559818    -65.220053
      2.23766      4.04064      4.16258        -0.908462      0.827434     -0.077086
      0.05728      6.24986      4.14058         6.302551    -11.550719      1.097926
      0.21100      3.84925      6.32104         1.446704     -1.020686     -5.090368
      6.05703      1.96746      2.00622        -0.385230      0.124701      1.097752
      6.08088      7.67356      7.72025        -5.781646     17.930211     21.856484
      4.06852      1.97744      7.70411        -1.868530     -4.610074     25.353124
      3.97061      0.38257      1.83400         1.579595      0.271404      3.497679
      6.00580      2.14372      6.13743        -8.035879     -1.201384     -3.344233
      6.31790      7.58653      4.23689       -14.836986     10.991131      1.813827
      4.18464      2.07395      3.89712        -2.156566     -1.136093      1.703264
      4.07218      7.57689      5.85252         3.649558     17.746476     -3.199337
      6.33260      6.12378      2.31624       -18.037040     -1.584376      3.445221
      6.09779      3.92163      0.14072        -0.414224      1.567946      1.250853
      4.03969      5.97671      0.01872        -0.074010     -1.305895      8.785286
      4.22342      4.14616      2.12959        -0.415597      0.415362      0.514940
      6.36525      6.21031      6.09678        -1.918872    -18.303668     -5.575951
      6.24207      4.23436      4.20454        -0.049237      1.430591      1.403117
      3.89194      6.11421      4.16381         1.155081     -2.817947     -0.921791
      4.20328      4.25406      6.27867        -1.827967      0.233652     -1.954652
 -----------------------------------------------------------------------------------
    total drift:                                0.003620     -0.016910      0.011959


--------------------------------------------------------------------------------------------------------



  FREE ENERGIE OF THE ION-ELECTRON SYSTEM (eV)
  ---------------------------------------------------
  free  energy   TOTEN  =      -291.9750269105 eV

  energy  without entropy=     -291.9140937096  energy(sigma->0) =     -291.94456031
 


--------------------------------------------------------------------------------------------------------


    POTLOK:  cpu time    0.1519: real time    0.1603


--------------------------------------------------------------------------------------------------------


     LOOP+:  cpu time14877.8906: real time14914.7882
    4ORBIT:  cpu time    0.0000: real time    0.0000

volume of typ            1:    42.8 %

volume of typ            2:    11.0 %
 
total charge     
 
# of ion       s       p       d       tot
------------------------------------------
    1        0.426   0.655   8.427   9.508
    2        0.244   0.284   8.101   8.629
    3        0.330   0.453   8.157   8.940
    4        0.265   0.324   8.062   8.651
    5        0.381   0.499   8.268   9.148
    6        0.347   0.544   8.221   9.111
    7        0.309   0.407   8.184   8.900
    8        0.203   0.227   8.058   8.488
    9        0.320   0.468   8.189   8.977
   10        0.346   0.480   8.194   9.020
   11        0.193   0.215   8.031   8.439
   12        0.508   0.731   8.449   9.688
   13        0.302   0.405   8.112   8.819
   14        0.286   0.399   8.148   8.833
   15        0.261   0.333   8.051   8.644
   16        0.316   0.410   8.174   8.901
   17        0.262   0.345   8.150   8.756
   18        0.254   0.320   8.008   8.582
   19        0.261   0.319   8.088   8.668
   20        0.521   0.818   8.490   9.829
   21        0.256   0.321   8.069   8.647
   22        0.366   0.460   8.212   9.038
   23        0.508   0.844   8.454   9.805
   24        0.281   0.349   8.073   8.703
   25        0.318   0.440   8.154   8.912
   26        0.203   0.227   8.094   8.524
   27        0.251   0.322   8.137   8.711
   28        0.359   0.523   8.301   9.182
   29        0.280   0.352   8.140   8.772
   30        0.420   0.608   8.240   9.268
   31        0.262   0.363   8.166   8.792
   32        0.338   0.500   8.162   9.000
   33        1.255   2.846   0.016   4.117
   34        1.279   2.848   0.016   4.143
   35        1.321   3.080   0.076   4.477
   36        1.266   2.872   0.017   4.155
   37        1.270   2.856   0.019   4.145
   38        1.264   2.949   0.035   4.248
   39        1.271   2.839   0.013   4.123
   40        1.307   3.056   0.065   4.428
   41        1.263   2.894   0.024   4.181
   42        1.269   2.846   0.015   4.131
   43        1.282   2.871   0.017   4.170
   44        1.258   2.857   0.017   4.132
   45        1.318   3.037   0.067   4.422
   46        1.264   2.747   0.005   4.016
   47        1.278   2.903   0.025   4.207
   48        1.278   2.847   0.016   4.141
   49        1.278   2.768   0.008   4.054
   50        1.288   3.075   0.063   4.427
   51        1.299   2.877   0.031   4.207
   52        1.271   2.830   0.016   4.117
   53        1.270   2.897   0.022   4.188
   54        1.287   2.964   0.036   4.286
   55        1.260   2.816   0.012   4.088
   56        1.284   2.905   0.027   4.216
   57        1.279   2.918   0.030   4.226
   58        1.264   3.015   0.048   4.326
   59        1.270   2.918   0.028   4.215
   60        1.266   2.775   0.008   4.049
   61        1.283   2.972   0.033   4.288
   62        1.268   2.960   0.038   4.266
   63        1.277   2.809   0.013   4.099
   64        1.273   2.812   0.012   4.097
--------------------------------------------------
tot          51.03  106.60  262.63  420.27
 
magnetization (x)
 
# of ion       s       p       d       tot
------------------------------------------
    1       -0.001   0.000  -0.001  -0.001
    2        0.002  -0.001  -0.464  -0.463
    3       -0.003   0.002  -0.002  -0.003
    4       -0.001   0.002   0.195   0.196
    5       -0.000   0.001   0.015   0.015
    6       -0.000  -0.001   0.005   0.004
    7        0.001   0.001  -0.023  -0.021
    8       -0.002  -0.002  -0.756  -0.760
    9       -0.001  -0.000   0.012   0.011
   10       -0.003  -0.002   0.104   0.099
   11        0.000  -0.003  -0.939  -0.942
   12        0.001  -0.001  -0.044  -0.043
   13       -0.003  -0.009  -0.519  -0.530
   14       -0.000   0.000  -0.059  -0.059
   15       -0.000  -0.001   0.306   0.304
   16        0.001   0.001   0.135   0.136
   17        0.000  -0.002  -0.338  -0.339
   18       -0.000   0.006   0.763   0.769
   19       -0.000   0.001  -0.167  -0.166
   20       -0.003  -0.004  -0.045  -0.051
   21        0.001   0.007   0.575   0.582
   22        0.000   0.001  -0.009  -0.007
   23       -0.001  -0.001  -0.011  -0.013
   24        0.000  -0.002   0.009   0.007
   25       -0.001  -0.002  -0.070  -0.073
   26        0.001   0.000  -0.842  -0.841
   27       -0.002  -0.001   0.096   0.093
   28       -0.000  -0.001  -0.056  -0.058
   29       -0.003  -0.001  -0.516  -0.521
   30        0.002   0.004   0.067   0.073
   31        0.001   0.000  -0.268  -0.267
   32        0.001   0.002   0.017   0.020
   33        0.001   0.012   0.000   0.013
   34        0.000  -0.006   0.000  -0.006
   35        0.001  -0.016  -0.000  -0.015
   36       -0.003  -0.005  -0.000  -0.008
   37        0.001  -0.015   0.000  -0.014
   38        0.004   0.059   0.000   0.063
   39       -0.003  -0.055   0.000  -0.059
   40       -0.000   0.003   0.000   0.003
   41       -0.007  -0.073   0.000  -0.080
   42        0.000  -0.007   0.000  -0.007
   43       -0.001   0.006  -0.000   0.005
   44       -0.007  -0.068  -0.000  -0.075
   45        0.000  -0.003  -0.000  -0.003
   46       -0.004  -0.067  -0.000  -0.071
   47       -0.001   0.014  -0.000   0.013
   48       -0.000  -0.004  -0.000  -0.004
   49       -0.003  -0.006   0.000  -0.008
   50       -0.001  -0.023   0.000  -0.024
   51       -0.000  -0.002  -0.000  -0.002
   52       -0.001  -0.041   0.000  -0.042
   53       -0.001  -0.013   0.000  -0.014
   54        0.003   0.004  -0.000   0.006
   55        0.003   0.026   0.000   0.029
   56        0.002   0.016   0.000   0.019
   57       -0.000  -0.001   0.000  -0.002
   58       -0.003  -0.010  -0.000  -0.013
   59       -0.003  -0.020   0.000  -0.023
   60       -0.001  -0.047  -0.000  -0.049
   61        0.000  -0.007   0.000  -0.006
   62       -0.009  -0.096  -0.000  -0.105
   63        0.002  -0.037   0.000  -0.035
   64       -0.003  -0.028   0.000  -0.031
--------------------------------------------------
tot          -0.05   -0.52   -2.83   -3.39
 

 total amount of memory used by VASP MPI-rank0   435290. kBytes
=======================================================================

   base      :      30000. kBytes
   nonlr-proj:      42141. kBytes
   fftplans  :       4751. kBytes
   grid      :      26734. kBytes
   one-center:       1990. kBytes
   wavefun   :     329674. kBytes
 
  
  
 General timing and accounting informations for this job:
 ========================================================
  
                  Total CPU time used (sec):    14967.241
                            User time (sec):    14947.843
                          System time (sec):       19.398
                         Elapsed time (sec):    15008.016
  
                   Maximum memory used (kb):      567808.
                   Average memory used (kb):           0.
  
                          Minor page faults:        44341
                          Major page faults:           24
                 Voluntary context switches:         1163
