 vasp.5.4.4.18Apr17-6-g9f103f2a35 (build May 12 2020 04:58:55) complex          
  
 MD_VERSION_INFO: Compiled 2020-05-12T11:58:55-UTC in devlin.sd.materialsdesign.
 com:/home/medea2/data/build/wwolf/vasp-gpu5.4.4/13047/x86_64/src/src/build/std 
 from svn 13047
 
 This VASP executable licensed from Materials Design, Inc.
 
 executed on                        Lin64 date 2023.03.23  23:30:14
 running on   16 total cores
 distrk:  each k-point on   16 cores,    1 groups
 distr:  one band on NCORES_PER_BAND=   1 cores,   16 groups


--------------------------------------------------------------------------------------------------------


 INCAR:
 POTCAR:    PAW_PBE Ni 02Aug2007                  
 POTCAR:    PAW_PBE O 08Apr2002                   

 ----------------------------------------------------------------------------- 
|                                                                             |
|           W    W    AA    RRRRR   N    N  II  N    N   GGGG   !!!           |
|           W    W   A  A   R    R  NN   N  II  NN   N  G    G  !!!           |
|           W    W  A    A  R    R  N N  N  II  N N  N  G       !!!           |
|           W WW W  AAAAAA  RRRRR   N  N N  II  N  N N  G  GGG   !            |
|           WW  WW  A    A  R   R   N   NN  II  N   NN  G    G                |
|           W    W  A    A  R    R  N    N  II  N    N   GGGG   !!!           |
|                                                                             |
|      For optimal performance we recommend to set                            |
|        NCORE= 4 - approx SQRT( number of cores)                             |
|      NCORE specifies how many cores store one orbital (NPAR=cpu/NCORE).     |
|      This setting can  greatly improve the performance of VASP for DFT.     |
|      The default,   NCORE=1            might be grossly inefficient         |
|      on modern multi-core architectures or massively parallel machines.     |
|      Do your own testing !!!!                                               |
|      Unfortunately you need to use the default for GW and RPA calculations. |
|      (for HF NCORE is supported but not extensively tested yet)             |
|                                                                             |
 ----------------------------------------------------------------------------- 

 POTCAR:    PAW_PBE Ni 02Aug2007                  
  local pseudopotential read in
  partial core-charges read in
  partial kinetic energy density read in
  atomic valenz-charges read in
  non local Contribution for L=           2  read in
    real space projection operators read in
  non local Contribution for L=           2  read in
    real space projection operators read in
  non local Contribution for L=           0  read in
    real space projection operators read in
  non local Contribution for L=           0  read in
    real space projection operators read in
  non local Contribution for L=           1  read in
    real space projection operators read in
  non local Contribution for L=           1  read in
    real space projection operators read in
    PAW grid and wavefunctions read in
 
   number of l-projection  operators is LMAX  =           6
   number of lm-projection operators is LMMAX =          18
 
 POTCAR:    PAW_PBE O 08Apr2002                   
  local pseudopotential read in
  partial core-charges read in
  partial kinetic energy density read in
  kinetic energy density of atom read in
  atomic valenz-charges read in
  non local Contribution for L=           0  read in
    real space projection operators read in
  non local Contribution for L=           0  read in
    real space projection operators read in
  non local Contribution for L=           1  read in
    real space projection operators read in
  non local Contribution for L=           1  read in
    real space projection operators read in
    PAW grid and wavefunctions read in
 
   number of l-projection  operators is LMAX  =           4
   number of lm-projection operators is LMMAX =           8
 
 Optimization of the real space projectors (new method)

 maximal supplied QI-value         = 16.25
 optimisation between [QCUT,QGAM] = [ 11.38, 22.75] = [ 36.24,144.96] Ry 
 Optimized for a Real-space Cutoff    1.47 Angstroem

   l    n(q)    QCUT    max X(q) W(low)/X(q) W(high)/X(q)  e(spline) 
   2      9    11.376    60.317    0.17E-03    0.16E-04    0.16E-06
   2      9    11.376    55.921    0.17E-03    0.16E-04    0.17E-06
   0     10    11.376    51.690    0.45E-04    0.60E-04    0.21E-06
   0     10    11.376    30.015    0.37E-04    0.55E-04    0.19E-06
   1     10    11.376    18.849    0.83E-04    0.11E-03    0.92E-07
   1     10    11.376    14.624    0.69E-04    0.92E-04    0.82E-07
 Optimization of the real space projectors (new method)

 maximal supplied QI-value         = 24.76
 optimisation between [QCUT,QGAM] = [ 11.39, 22.77] = [ 36.31,145.25] Ry 
 Optimized for a Real-space Cutoff    1.10 Angstroem

   l    n(q)    QCUT    max X(q) W(low)/X(q) W(high)/X(q)  e(spline) 
   0      7    11.387    20.381    0.22E-03    0.48E-03    0.18E-06
   0      7    11.387    15.268    0.22E-03    0.52E-03    0.19E-06
   1      7    11.387     5.964    0.22E-03    0.73E-03    0.24E-06
   1      7    11.387     5.382    0.19E-03    0.60E-03    0.21E-06

 ----------------------------------------------------------------------------- 
|                                                                             |
|  ADVICE TO THIS USER RUNNING 'VASP/VAMP'   (HEAR YOUR MASTER'S VOICE ...):  |
|                                                                             |
|      You enforced a specific xc-type in the INCAR file,                     |
|      a different type was found on the POTCAR file                          |
|          I HOPE YOU KNOW, WHAT YOU ARE  DOING                               |
|                                                                             |
 ----------------------------------------------------------------------------- 

  PAW_PBE Ni 02Aug2007                  :
 energy of atom  1       EATOM=-1077.6739
 kinetic energy error for atom=    0.0030 (will be added to EATOM!!)
  PAW_PBE O 08Apr2002                   :
 energy of atom  2       EATOM= -432.3788
 kinetic energy error for atom=    0.0224 (will be added to EATOM!!)
 
 
 POSCAR: NiO_Fm-3m_scale_0_950_disp_0_10_round_1 
  positions in direct lattice
  No initial velocities read in
 exchange correlation table for  LEXCH =       14
   RHO(1)=    0.500       N(1)  =     2000
   RHO(2)=  100.500       N(2)  =     4000
 


--------------------------------------------------------------------------------------------------------


 ion  position               nearest neighbor table
   1  0.021  0.992  0.993-  40 1.40  43 1.46  50 1.78  34 1.78  36 2.16  35 2.18  28 2.21  14 2.24
                            23 2.37   7 2.47  12 2.53   6 2.61  19 2.67  10 2.69  20 2.83   2 2.91
   2  0.986  0.274  0.234-  49 1.57  44 1.83  35 1.94  36 2.08  33 2.16  39 2.29  27 2.35  20 2.45
                            19 2.57  24 2.66   9 2.71   1 2.91   4 2.95  11 2.97
   3  0.286  0.990  0.267-  41 1.46  52 1.73  38 1.94  33 2.10  36 2.12  34 2.19  26 2.48  12 2.52
                            16 2.59  10 2.82  17 2.83  21 2.86  18 2.86   8 2.90   5 2.94   1 2.98
   4  0.260  0.282  0.974-  37 1.28  42 1.97  35 2.03  51 2.14  34 2.22  33 2.38  15 2.46   6 2.54
                            22 2.65   7 2.70   9 2.83  25 2.88   1 2.94   2 2.95  17 3.01  11 3.06
   5  0.012  0.991  0.525-  47 1.56  54 1.80  36 2.00  38 2.04  40 2.28  39 2.30  32 2.32  16 2.49
                            23 2.50  24 2.67  10 2.68  14 2.70  19 2.74   7 2.75   8 2.79   3 2.94
   6  0.988  0.260  0.796-  35 1.49  53 1.68  40 2.02  37 2.04  39 2.11  48 2.12  20 2.14  23 2.44
                             4 2.54  31 2.58   1 2.61  24 2.62   9 2.69   7 2.94   8 2.95   5 2.99
   7  0.254  0.995  0.781-  45 1.59  34 1.63  40 2.07  38 2.08  56 2.12  37 2.13  12 2.40   1 2.47
                            16 2.51  30 2.59  17 2.66   4 2.70  14 2.74   5 2.75  21 2.82   8 2.84
   8  0.252  0.255  0.526-  33 1.94  38 2.02  39 2.06  46 2.14  55 2.22  37 2.22   5 2.79   7 2.84
                             3 2.90  18 2.93  11 2.94  13 2.95   6 2.95  21 2.97  15 3.00  29 3.05
   9  0.002  0.534  0.004-  48 1.67  58 1.78  44 1.99  42 2.01  35 2.06  43 2.16  31 2.26  28 2.49
                            14 2.54  20 2.62  15 2.67   6 2.69   2 2.71  27 2.73  10 2.74   4 2.83
  10  0.995  0.775  0.259-  57 1.63  43 1.83  36 1.86  41 2.03  47 2.06  44 2.09  19 2.40  28 2.47
                            32 2.64   5 2.68   1 2.69  27 2.73   9 2.74  11 2.80  13 2.82   3 2.82
  11  0.260  0.534  0.274-  60 2.06  46 2.09  41 2.12  42 2.15  33 2.15  44 2.19  10 2.80  13 2.84
                            16 2.85  12 2.88   9 2.92   8 2.94  26 2.94   2 2.97  29 2.99  25 3.01
  12  0.275  0.793  0.011-  34 1.62  45 1.80  59 1.99  41 2.03  42 2.04  43 2.04   7 2.40  17 2.52
                             3 2.52   1 2.53  15 2.67  30 2.71  26 2.87  14 2.87  11 2.88  25 2.89
  13  0.002  0.538  0.530-  62 1.54  39 1.98  47 1.99  48 2.03  46 2.08  44 2.16  27 2.63  32 2.65
                            24 2.67  31 2.72  10 2.82  16 2.83  11 2.84  14 2.87  15 2.87   8 2.95
  14  0.974  0.786  0.800-  61 1.57  40 1.70  43 1.82  28 1.98  48 1.99  23 2.14  47 2.20   1 2.24
                            45 2.28  31 2.50   9 2.54  32 2.62   5 2.70   7 2.74  13 2.87  12 2.87
  15  0.266  0.536  0.787-  42 1.66  46 1.92  45 1.99  64 2.03  37 2.12  48 2.14   4 2.46  12 2.67
                             9 2.67  25 2.67  16 2.82  13 2.87   8 3.00  14 3.00   6 3.06  30 3.08
  16  0.261  0.792  0.532-  38 1.61  47 1.92  45 1.95  41 2.05  46 2.06  63 2.13   5 2.49   7 2.51
                             3 2.59  21 2.59  15 2.82  13 2.83  11 2.85  26 2.95  30 2.95  10 2.97
  17  0.522  0.001  0.992-  56 1.51  59 1.68  51 1.92  50 2.12  34 2.13  30 2.13  52 2.16  22 2.38
                            12 2.52   7 2.66  26 2.72  28 2.81  23 2.82   3 2.83  19 2.93  20 2.99
  18  0.535  0.257  0.279-  52 1.91  55 1.91  49 1.98  33 2.16  51 2.18  60 2.20  29 2.68  27 2.70
                            24 2.79  19 2.82   3 2.86  21 2.93   8 2.93  17 3.01  25 3.03  20 3.03
  19  0.795  0.008  0.249-  57 1.72  36 1.73  49 2.00  50 2.03  54 2.05  52 2.26  10 2.40   2 2.57
                            28 2.57  26 2.64   1 2.67  32 2.69   5 2.74  18 2.82  24 2.89  20 2.91
  20  0.792  0.273  0.988-  53 1.48  35 1.63  58 1.93  49 2.01  50 2.04  51 2.05   6 2.14  22 2.37
                            31 2.42   2 2.45   9 2.62  23 2.68   1 2.83  25 2.84  27 2.85  19 2.91
  21  0.526  0.990  0.543-  63 1.55  38 1.99  56 2.01  54 2.01  55 2.14  52 2.16  30 2.31  32 2.53
                            16 2.59  26 2.62   7 2.82  22 2.83   3 2.86  23 2.87  18 2.93   8 2.97
  22  0.552  0.239  0.805-  51 1.53  53 1.75  56 1.79  55 2.21  64 2.37  20 2.37  37 2.37  17 2.38
                             4 2.65  25 2.73  23 2.74  21 2.83  31 2.90  24 2.97   7 3.01  29 3.04
  23  0.810  0.004  0.774-  40 1.46  61 1.68  50 1.68  54 2.06  53 2.11  14 2.14  56 2.24   1 2.37
                            28 2.40   6 2.44   5 2.50  32 2.55  30 2.56  20 2.68  22 2.74  17 2.82
  24  0.801  0.261  0.519-  39 1.50  54 1.99  55 2.06  62 2.06  49 2.13  53 2.21   6 2.62  27 2.63
                             2 2.66   5 2.67  13 2.67  29 2.69  18 2.79  23 2.83  19 2.89  22 2.97
  25  0.533  0.528  0.001-  64 1.62  58 1.89  59 2.01  60 2.07  42 2.14  51 2.20  31 2.52  15 2.67
                            22 2.73  20 2.84  30 2.84   4 2.88  12 2.89  27 2.93  26 2.96  11 3.01
  26  0.534  0.792  0.272-  52 1.75  57 1.98  60 1.98  63 2.01  59 2.07  41 2.19   3 2.48  21 2.62
                            19 2.64  17 2.72  32 2.77  12 2.87  11 2.94  16 2.95  25 2.96  29 2.98
  27  0.786  0.495  0.276-  44 1.55  49 1.82  62 1.91  60 2.07  58 2.27  57 2.29   2 2.35  29 2.61
                            13 2.63  24 2.63  18 2.70   9 2.73  10 2.73  20 2.85  25 2.93  26 3.04
  28  0.817  0.795  0.999-  43 1.56  61 1.62  50 1.70  14 1.98  57 2.08  58 2.18   1 2.21  59 2.25
                            23 2.40  10 2.47   9 2.49  19 2.57  31 2.61  30 2.75  17 2.81  25 3.05
  29  0.554  0.502  0.518-  55 1.87  62 1.97  60 2.00  64 2.19  46 2.25  63 2.28  27 2.61  18 2.68
                            24 2.69  31 2.91  32 2.94  26 2.98  11 2.99  22 3.04   8 3.05
  30  0.538  0.822  0.786-  56 1.48  59 1.74  61 1.85  63 2.02  17 2.13  45 2.14  64 2.19  21 2.31
                            23 2.56   7 2.59  12 2.71  28 2.75  32 2.83  25 2.84  16 2.95  31 3.06
  31  0.790  0.523  0.807-  58 1.42  48 1.58  53 1.98  64 2.07  61 2.11  62 2.25   9 2.26  20 2.42
                            14 2.50  25 2.52   6 2.58  28 2.61  13 2.72  22 2.90  29 2.91  24 3.04
  32  0.786  0.798  0.522-  54 1.63  47 1.79  63 1.97  57 2.02  61 2.14  62 2.14   5 2.32  21 2.53
                            23 2.55  14 2.62  10 2.64  13 2.65  19 2.69  26 2.77  30 2.83  29 2.94
  33  0.259  0.258  0.278-   8 1.94   3 2.10  11 2.15  18 2.16   2 2.16   4 2.38
  34  0.249  0.998  0.989-  12 1.62   7 1.63   1 1.78  17 2.13   3 2.19   4 2.22
  35  0.001  0.271  0.986-   6 1.49  20 1.63   2 1.94   4 2.03   9 2.06   1 2.18
  36  0.015  0.012  0.270-  19 1.73  10 1.86   5 2.00   2 2.08   3 2.12   1 2.16
  37  0.249  0.266  0.811-   4 1.28   6 2.04  15 2.12   7 2.13   8 2.22  22 2.37
  38  0.273  0.998  0.515-  16 1.61   3 1.94  21 1.99   8 2.02   5 2.04   7 2.08
  39  0.990  0.285  0.527-  24 1.50  13 1.98   8 2.06   6 2.11   2 2.29   5 2.30
  40  0.992  0.002  0.816-   1 1.40  23 1.46  14 1.70   6 2.02   7 2.07   5 2.28
  41  0.253  0.806  0.270-   3 1.46  12 2.03  10 2.03  16 2.05  11 2.12  26 2.19
  42  0.259  0.533  0.999-  15 1.66   4 1.97   9 2.01  12 2.04  25 2.14  11 2.15
  43  0.014  0.809  0.028-   1 1.46  28 1.56  14 1.82  10 1.83  12 2.04   9 2.16
  44  0.982  0.508  0.257-  27 1.55   2 1.83   9 1.99  10 2.09  13 2.16  11 2.19
  45  0.266  0.791  0.781-   7 1.59  12 1.80  16 1.95  15 1.99  30 2.14  14 2.28
  46  0.268  0.528  0.541-  15 1.92  16 2.06  13 2.08  11 2.09   8 2.14  29 2.25
  47  0.015  0.792  0.522-   5 1.56  32 1.79  16 1.92  13 1.99  10 2.06  14 2.20
  48  0.992  0.532  0.790-  31 1.58   9 1.67  14 1.99  13 2.03   6 2.12  15 2.14
  49  0.786  0.264  0.246-   2 1.57  27 1.82  18 1.98  19 2.00  20 2.01  24 2.13
  50  0.794  0.011  0.989-  23 1.68  28 1.70   1 1.78  19 2.03  20 2.04  17 2.12
  51  0.531  0.246  1.000-  22 1.53  17 1.92  20 2.05   4 2.14  18 2.18  25 2.20
  52  0.506  0.014  0.268-   3 1.73  26 1.75  18 1.91  21 2.16  17 2.16  19 2.26
  53  0.774  0.270  0.800-  20 1.48   6 1.68  22 1.75  31 1.98  23 2.11  24 2.21
  54  0.781  0.007  0.512-  32 1.63   5 1.80  24 1.99  21 2.01  19 2.05  23 2.06
  55  0.537  0.264  0.524-  29 1.87  18 1.91  24 2.06  21 2.14  22 2.21   8 2.22
  56  0.525  0.011  0.799-  30 1.48  17 1.51  22 1.79  21 2.01   7 2.12  23 2.24
  57  0.788  0.788  0.263-  10 1.63  19 1.72  26 1.98  32 2.02  28 2.08  27 2.29
  58  0.775  0.520  0.987-  31 1.42   9 1.78  25 1.89  20 1.93  28 2.18  27 2.27
  59  0.530  0.786  0.006-  17 1.68  30 1.74  12 1.99  25 2.01  26 2.07  28 2.25
  60  0.524  0.539  0.266-  26 1.98  29 2.00  11 2.06  25 2.07  27 2.07  18 2.20
  61  0.773  0.793  0.796-  14 1.57  28 1.62  23 1.68  30 1.85  31 2.11  32 2.14
  62  0.806  0.525  0.518-  13 1.54  27 1.91  29 1.97  24 2.06  32 2.14  31 2.25
  63  0.534  0.793  0.530-  21 1.55  32 1.97  26 2.01  30 2.02  16 2.13  29 2.28
  64  0.525  0.541  0.794-  25 1.62  15 2.03  31 2.07  29 2.19  30 2.19  22 2.37
 
  LATTYP: Found a simple cubic cell.
 ALAT       =     7.8088955000
  
  Lattice vectors:
  
 A1 = (   7.8088955000,   0.0000000000,   0.0000000000)
 A2 = (   0.0000000000,   7.8088955000,   0.0000000000)
 A3 = (   0.0000000000,   0.0000000000,   7.8088955000)


Analysis of symmetry for initial positions (statically):
=====================================================================
 Subroutine PRICEL returns:
 Original cell was already a primitive cell.
 

 Routine SETGRP: Setting up the symmetry group for a 
 simple cubic supercell.


 Subroutine GETGRP returns: Found  1 space group operations
 (whereof  1 operations were pure point group operations)
 out of a pool of 48 trial point group operations.


The static configuration has the point symmetry C_1 .


Analysis of symmetry for dynamics (positions and initial velocities):
=====================================================================
 Subroutine PRICEL returns:
 Original cell was already a primitive cell.
 

 Routine SETGRP: Setting up the symmetry group for a 
 simple cubic supercell.


 Subroutine GETGRP returns: Found  1 space group operations
 (whereof  1 operations were pure point group operations)
 out of a pool of 48 trial point group operations.


The dynamic configuration has the point symmetry C_1 .


Analysis of structural, dynamic, and magnetic symmetry:
=====================================================================
 Subroutine PRICEL returns:
 Original cell was already a primitive cell.
 

 Routine SETGRP: Setting up the symmetry group for a 
 simple cubic supercell.


 Subroutine GETGRP returns: Found  1 space group operations
 (whereof  1 operations were pure point group operations)
 out of a pool of 48 trial point group operations.


The magnetic configuration has the point symmetry C_1 .


 Subroutine INISYM returns: Found  1 space group operations
 (whereof  1 operations are pure point group operations),
 and found     1 'primitive' translations

 
 
 KPOINTS: Automatic mesh                          

Automatic generation of k-mesh.
Space group operators:
 irot       det(A)        alpha          n_x          n_y          n_z        tau_x        tau_y        tau_z
    1     1.000000     0.000000     1.000000     0.000000     0.000000     0.000000     0.000000     0.000000
 
 Subroutine IBZKPT returns following result:
 ===========================================
 
 Found     36 irreducible k-points:
 
 Following reciprocal coordinates:
            Coordinates               Weight
  0.000000  0.000000  0.000000      1.000000
  0.250000  0.000000  0.000000      2.000000
  0.500000  0.000000  0.000000      1.000000
  0.000000  0.250000  0.000000      2.000000
  0.250000  0.250000  0.000000      2.000000
  0.500000  0.250000  0.000000      2.000000
 -0.250000  0.250000  0.000000      2.000000
  0.000000  0.500000  0.000000      1.000000
  0.250000  0.500000  0.000000      2.000000
  0.500000  0.500000  0.000000      1.000000
  0.000000  0.000000  0.250000      2.000000
  0.250000  0.000000  0.250000      2.000000
  0.500000  0.000000  0.250000      2.000000
 -0.250000  0.000000  0.250000      2.000000
  0.000000  0.250000  0.250000      2.000000
  0.250000  0.250000  0.250000      2.000000
  0.500000  0.250000  0.250000      2.000000
 -0.250000  0.250000  0.250000      2.000000
  0.000000  0.500000  0.250000      2.000000
  0.250000  0.500000  0.250000      2.000000
  0.500000  0.500000  0.250000      2.000000
 -0.250000  0.500000  0.250000      2.000000
  0.000000 -0.250000  0.250000      2.000000
  0.250000 -0.250000  0.250000      2.000000
  0.500000 -0.250000  0.250000      2.000000
 -0.250000 -0.250000  0.250000      2.000000
  0.000000  0.000000  0.500000      1.000000
  0.250000  0.000000  0.500000      2.000000
  0.500000  0.000000  0.500000      1.000000
  0.000000  0.250000  0.500000      2.000000
  0.250000  0.250000  0.500000      2.000000
  0.500000  0.250000  0.500000      2.000000
 -0.250000  0.250000  0.500000      2.000000
  0.000000  0.500000  0.500000      1.000000
  0.250000  0.500000  0.500000      2.000000
  0.500000  0.500000  0.500000      1.000000
 
 Following cartesian coordinates:
            Coordinates               Weight
  0.000000  0.000000  0.000000      1.000000
  0.032015  0.000000  0.000000      2.000000
  0.064030  0.000000  0.000000      1.000000
  0.000000  0.032015  0.000000      2.000000
  0.032015  0.032015  0.000000      2.000000
  0.064030  0.032015  0.000000      2.000000
 -0.032015  0.032015  0.000000      2.000000
  0.000000  0.064030  0.000000      1.000000
  0.032015  0.064030  0.000000      2.000000
  0.064030  0.064030  0.000000      1.000000
  0.000000  0.000000  0.032015      2.000000
  0.032015  0.000000  0.032015      2.000000
  0.064030  0.000000  0.032015      2.000000
 -0.032015  0.000000  0.032015      2.000000
  0.000000  0.032015  0.032015      2.000000
  0.032015  0.032015  0.032015      2.000000
  0.064030  0.032015  0.032015      2.000000
 -0.032015  0.032015  0.032015      2.000000
  0.000000  0.064030  0.032015      2.000000
  0.032015  0.064030  0.032015      2.000000
  0.064030  0.064030  0.032015      2.000000
 -0.032015  0.064030  0.032015      2.000000
  0.000000 -0.032015  0.032015      2.000000
  0.032015 -0.032015  0.032015      2.000000
  0.064030 -0.032015  0.032015      2.000000
 -0.032015 -0.032015  0.032015      2.000000
  0.000000  0.000000  0.064030      1.000000
  0.032015  0.000000  0.064030      2.000000
  0.064030  0.000000  0.064030      1.000000
  0.000000  0.032015  0.064030      2.000000
  0.032015  0.032015  0.064030      2.000000
  0.064030  0.032015  0.064030      2.000000
 -0.032015  0.032015  0.064030      2.000000
  0.000000  0.064030  0.064030      1.000000
  0.032015  0.064030  0.064030      2.000000
  0.064030  0.064030  0.064030      1.000000
 


--------------------------------------------------------------------------------------------------------




 Dimension of arrays:
   k-points           NKPTS =     36   k-points in BZ     NKDIM =     36   number of bands    NBANDS=    352
   number of dos      NEDOS =    301   number of ions     NIONS =     64
   non local maximal  LDIM  =      6   non local SUM 2l+1 LMDIM =     18
   total plane-waves  NPLWV = 216000
   max r-space proj   IRMAX =   6140   max aug-charges    IRDMAX=  14902
   dimension x,y,z NGX =    60 NGY =   60 NGZ =   60
   dimension x,y,z NGXF=   120 NGYF=  120 NGZF=  120
   support grid    NGXF=   120 NGYF=  120 NGZF=  120
   ions per type =              32  32
   NGX,Y,Z   is equivalent  to a cutoff of  12.77, 12.77, 12.77 a.u.
   NGXF,Y,Z  is equivalent  to a cutoff of  25.55, 25.55, 25.55 a.u.

 SYSTEM =  unknown system                          
 POSCAR =  NiO_Fm-3m_scale_0_950_disp_0_10_round_1 

 Startparameter for this run:
   NWRITE =      1    write-flag & timer
   PREC   = accura    normal or accurate (medium, high low for compatibility)
   ISTART =      0    job   : 0-new  1-cont  2-samecut
   ICHARG =      2    charge: 1-file 2-atom 10-const
   ISPIN  =      2    spin polarized calculation?
   LNONCOLLINEAR =      F non collinear calculations
   LSORBIT =      F    spin-orbit coupling
   INIWAV =      1    electr: 0-lowe 1-rand  2-diag
   LASPH  =      F    aspherical Exc in radial PAW
   METAGGA=      F    non-selfconsistent MetaGGA calc.

 Electronic Relaxation 1
   ENCUT  =  500.0 eV  36.75 Ry    6.06 a.u.  14.24 14.24 14.24*2*pi/ulx,y,z
   ENINI  =  500.0     initial cutoff
   ENAUG  =  605.4 eV  augmentation charge cutoff
   NELM   =     80;   NELMIN=  2; NELMDL= -5     # of ELM steps 
   EDIFF  = 0.1E-04   stopping-criterion for ELM
   LREAL  =      T    real-space projection
   NLSPLINE    = F    spline interpolate recip. space projectors
   LCOMPAT=      F    compatible to vasp.4.4
   GGA_COMPAT  = T    GGA compatible to vasp.4.4-vasp.4.6
   LMAXPAW     = -100 max onsite density
   LMAXMIX     =    2 max onsite mixed and CHGCAR
   VOSKOWN=      1    Vosko Wilk Nusair interpolation
   ROPT   =   -0.00025  -0.00025
 Ionic relaxation
   EDIFFG = 0.1E-03   stopping-criterion for IOM
   NSW    =      0    number of steps for IOM
   NBLOCK =      1;   KBLOCK =      1    inner block; outer block 
   IBRION =     -1    ionic relax: 0-MD 1-quasi-New 2-CG
   NFREE  =      0    steps in history (QN), initial steepest desc. (CG)
   ISIF   =      2    stress and relaxation
   IWAVPR =     10    prediction:  0-non 1-charg 2-wave 3-comb
   ISYM   =      2    0-nonsym 1-usesym 2-fastsym
   LCORR  =      T    Harris-Foulkes like correction to forces

   POTIM  = 0.5000    time-step for ionic-motion
   TEIN   =    0.0    initial temperature
   TEBEG  =    0.0;   TEEND  =   0.0 temperature during run
   SMASS  =  -3.00    Nose mass-parameter (am)
   estimated Nose-frequenzy (Omega)   =  0.10E-29 period in steps =****** mass=  -0.139E-26a.u.
   SCALEE = 1.0000    scale energy and forces
   NPACO  =    256;   APACO  = 16.0  distance and # of slots for P.C.
   PSTRESS=    0.0 pullay stress

  Mass of Ions in am
   POMASS =  58.69 16.00
  Ionic Valenz
   ZVAL   =  10.00  6.00
  Atomic Wigner-Seitz radii
   RWIGS  =   1.15  0.73
  virtual crystal weights 
   VCA    =   1.00  1.00
   NELECT =     512.0000    total number of electrons
   NUPDOWN=      -1.0000    fix difference up-down

 DOS related values:
   EMIN   =  10.00;   EMAX   =-10.00  energy-range for DOS
   EFERMI =   0.00
   ISMEAR =     0;   SIGMA  =   0.05  broadening in eV -4-tet -1-fermi 0-gaus

 Electronic relaxation 2 (details)
   IALGO  =     38    algorithm
   LDIAG  =      T    sub-space diagonalisation (order eigenvalues)
   LSUBROT=      F    optimize rotation matrix (better conditioning)
   TURBO    =      0    0=normal 1=particle mesh
   IRESTART =      0    0=no restart 2=restart with 2 vectors
   NREBOOT  =      0    no. of reboots
   NMIN     =      0    reboot dimension
   EREF     =   0.00    reference energy to select bands
   IMIX   =      4    mixing-type and parameters
     AMIX     =   0.40;   BMIX     =  1.00
     AMIX_MAG =   1.60;   BMIX_MAG =  1.00
     AMIN     =   0.10
     WC   =   100.;   INIMIX=   1;  MIXPRE=   1;  MAXMIX= -45

 Intra band minimization:
   WEIMIN = 0.0000     energy-eigenvalue tresh-hold
   EBREAK =  0.71E-08  absolut break condition
   DEPER  =   0.30     relativ break condition  

   TIME   =   0.40     timestep for ELM

  volume/ion in A,a.u.               =       7.44        50.21
  Fermi-wavevector in a.u.,A,eV,Ry     =   1.677163  3.169378 38.271486  2.812875
  Thomas-Fermi vector in A             =   2.761477
 
 Write flags
   LWAVE        =      F    write WAVECAR
   LDOWNSAMPLE  =      F    k-point downsampling of WAVECAR
   LCHARG       =      T    write CHGCAR
   LVTOT        =      F    write LOCPOT, total local potential
   LVHAR        =      F    write LOCPOT, Hartree potential only
   LELF         =      F    write electronic localiz. function (ELF)
   LORBIT       =      0    0 simple, 1 ext, 2 COOP (PROOUT), +10 PAW based schemes


 Dipole corrections
   LMONO  =      F    monopole corrections only (constant potential shift)
   LDIPOL =      F    correct potential (dipole corrections)
   IDIPOL =      0    1-x, 2-y, 3-z, 4-all directions 
   EPSILON=  1.0000000 bulk dielectric constant

 Exchange correlation treatment:
   GGA     =    PS    GGA type
   LEXCH   =    14    internal setting for exchange type
   VOSKOWN=      1    Vosko Wilk Nusair interpolation
   LHFCALC =     F    Hartree Fock is set to
   LHFONE  =     F    Hartree Fock one center treatment
   AEXX    =    0.0000 exact exchange contribution

 Linear response parameters
   LEPSILON=     F    determine dielectric tensor
   LRPA    =     F    only Hartree local field effects (RPA)
   LNABLA  =     F    use nabla operator in PAW spheres
   LVEL    =     F    velocity operator in full k-point grid
   LINTERFAST=   F  fast interpolation
   KINTER  =     0    interpolate to denser k-point grid
   CSHIFT  =0.1000    complex shift for real part using Kramers Kronig
   OMEGAMAX=  -1.0    maximum frequency
   DEG_THRESHOLD= 0.2000000E-02 threshold for treating states as degnerate
   RTIME   =   -0.100 relaxation time in fs
  (WPLASMAI=    0.000 imaginary part of plasma frequency in eV, 0.658/RTIME)
   DFIELD  = 0.0000000 0.0000000 0.0000000 field for delta impulse in time
 
 Orbital magnetization related:
   ORBITALMAG=     F  switch on orbital magnetization
   LCHIMAG   =     F  perturbation theory with respect to B field
   DQ        =  0.001000  dq finite difference perturbation B field
   LLRAUG    =     F  two centre corrections for induced B field



--------------------------------------------------------------------------------------------------------


 Static calculation
 charge density and potential will be updated during run
 spin polarized calculation
 Variant of blocked Davidson
 Davidson routine will perform the subspace rotation
 perform sub-space diagonalisation
    after iterative eigenvector-optimisation
 modified Broyden-mixing scheme, WC =      100.0
 initial mixing is a Kerker type mixing with AMIX =  0.4000 and BMIX =      1.0000
 Hartree-type preconditioning will be used
 using additional bands           96
 real space projection scheme for non local part
 use partial core corrections
 calculate Harris-corrections to forces 
   (improved forces if not selfconsistent)
 use gradient corrections 
 use of overlap-Matrix (Vanderbilt PP)
 Gauss-broadening in eV      SIGMA  =   0.05


--------------------------------------------------------------------------------------------------------


  energy-cutoff  :      500.00
  volume of cell :      476.18
      direct lattice vectors                 reciprocal lattice vectors
     7.808895500  0.000000000  0.000000000     0.128059083  0.000000000  0.000000000
     0.000000000  7.808895500  0.000000000     0.000000000  0.128059083  0.000000000
     0.000000000  0.000000000  7.808895500     0.000000000  0.000000000  0.128059083

  length of vectors
     7.808895500  7.808895500  7.808895500     0.128059083  0.128059083  0.128059083


 
 k-points in units of 2pi/SCALE and weight: Automatic mesh                          
   0.00000000  0.00000000  0.00000000       0.016
   0.03201477  0.00000000  0.00000000       0.031
   0.06402954  0.00000000  0.00000000       0.016
   0.00000000  0.03201477  0.00000000       0.031
   0.03201477  0.03201477  0.00000000       0.031
   0.06402954  0.03201477  0.00000000       0.031
  -0.03201477  0.03201477  0.00000000       0.031
   0.00000000  0.06402954  0.00000000       0.016
   0.03201477  0.06402954  0.00000000       0.031
   0.06402954  0.06402954  0.00000000       0.016
   0.00000000  0.00000000  0.03201477       0.031
   0.03201477  0.00000000  0.03201477       0.031
   0.06402954  0.00000000  0.03201477       0.031
  -0.03201477  0.00000000  0.03201477       0.031
   0.00000000  0.03201477  0.03201477       0.031
   0.03201477  0.03201477  0.03201477       0.031
   0.06402954  0.03201477  0.03201477       0.031
  -0.03201477  0.03201477  0.03201477       0.031
   0.00000000  0.06402954  0.03201477       0.031
   0.03201477  0.06402954  0.03201477       0.031
   0.06402954  0.06402954  0.03201477       0.031
  -0.03201477  0.06402954  0.03201477       0.031
   0.00000000 -0.03201477  0.03201477       0.031
   0.03201477 -0.03201477  0.03201477       0.031
   0.06402954 -0.03201477  0.03201477       0.031
  -0.03201477 -0.03201477  0.03201477       0.031
   0.00000000  0.00000000  0.06402954       0.016
   0.03201477  0.00000000  0.06402954       0.031
   0.06402954  0.00000000  0.06402954       0.016
   0.00000000  0.03201477  0.06402954       0.031
   0.03201477  0.03201477  0.06402954       0.031
   0.06402954  0.03201477  0.06402954       0.031
  -0.03201477  0.03201477  0.06402954       0.031
   0.00000000  0.06402954  0.06402954       0.016
   0.03201477  0.06402954  0.06402954       0.031
   0.06402954  0.06402954  0.06402954       0.016
 
 k-points in reciprocal lattice and weights: Automatic mesh                          
   0.00000000  0.00000000  0.00000000       0.016
   0.25000000  0.00000000  0.00000000       0.031
   0.50000000  0.00000000  0.00000000       0.016
   0.00000000  0.25000000  0.00000000       0.031
   0.25000000  0.25000000  0.00000000       0.031
   0.50000000  0.25000000  0.00000000       0.031
  -0.25000000  0.25000000  0.00000000       0.031
   0.00000000  0.50000000  0.00000000       0.016
   0.25000000  0.50000000  0.00000000       0.031
   0.50000000  0.50000000  0.00000000       0.016
   0.00000000  0.00000000  0.25000000       0.031
   0.25000000  0.00000000  0.25000000       0.031
   0.50000000  0.00000000  0.25000000       0.031
  -0.25000000  0.00000000  0.25000000       0.031
   0.00000000  0.25000000  0.25000000       0.031
   0.25000000  0.25000000  0.25000000       0.031
   0.50000000  0.25000000  0.25000000       0.031
  -0.25000000  0.25000000  0.25000000       0.031
   0.00000000  0.50000000  0.25000000       0.031
   0.25000000  0.50000000  0.25000000       0.031
   0.50000000  0.50000000  0.25000000       0.031
  -0.25000000  0.50000000  0.25000000       0.031
   0.00000000 -0.25000000  0.25000000       0.031
   0.25000000 -0.25000000  0.25000000       0.031
   0.50000000 -0.25000000  0.25000000       0.031
  -0.25000000 -0.25000000  0.25000000       0.031
   0.00000000  0.00000000  0.50000000       0.016
   0.25000000  0.00000000  0.50000000       0.031
   0.50000000  0.00000000  0.50000000       0.016
   0.00000000  0.25000000  0.50000000       0.031
   0.25000000  0.25000000  0.50000000       0.031
   0.50000000  0.25000000  0.50000000       0.031
  -0.25000000  0.25000000  0.50000000       0.031
   0.00000000  0.50000000  0.50000000       0.016
   0.25000000  0.50000000  0.50000000       0.031
   0.50000000  0.50000000  0.50000000       0.016
 
 position of ions in fractional coordinates (direct lattice) 
   0.02080122  0.99216590  0.99323628
   0.98625966  0.27424023  0.23368460
   0.28550179  0.99025205  0.26724348
   0.25996448  0.28188151  0.97361803
   0.01153628  0.99124424  0.52474207
   0.98801662  0.25972734  0.79626537
   0.25430055  0.99491921  0.78067381
   0.25233427  0.25456198  0.52615361
   0.00153874  0.53421964  0.00384395
   0.99548912  0.77484270  0.25868424
   0.26048281  0.53382803  0.27390184
   0.27508150  0.79313089  0.01133504
   0.00204942  0.53753593  0.53035778
   0.97410388  0.78555246  0.80007665
   0.26610447  0.53607403  0.78662657
   0.26058701  0.79186277  0.53156687
   0.52191243  0.00055830  0.99206033
   0.53525472  0.25743201  0.27883883
   0.79464076  0.00760131  0.24913655
   0.79164278  0.27264139  0.98778700
   0.52600055  0.99007335  0.54262739
   0.55150631  0.23936475  0.80530389
   0.81031723  0.00432855  0.77411597
   0.80052961  0.26084105  0.51858204
   0.53309607  0.52807918  0.00099657
   0.53423471  0.79245099  0.27189859
   0.78550236  0.49513548  0.27646099
   0.81747995  0.79512576  0.99871742
   0.55436969  0.50203117  0.51803143
   0.53786015  0.82185119  0.78628969
   0.79003291  0.52341763  0.80652420
   0.78579445  0.79818260  0.52222044
   0.25902905  0.25823973  0.27767684
   0.24907279  0.99779190  0.98875823
   0.00054059  0.27062137  0.98590557
   0.01465923  0.01154569  0.26959279
   0.24884972  0.26615980  0.81072896
   0.27266044  0.99754337  0.51494889
   0.99043196  0.28483131  0.52696643
   0.99184269  0.00244485  0.81636936
   0.25349714  0.80551780  0.26972643
   0.25934055  0.53257171  0.99903224
   0.01449154  0.80893632  0.02798828
   0.98211660  0.50782260  0.25669775
   0.26569730  0.79099770  0.78088524
   0.26799294  0.52787582  0.54077986
   0.01535323  0.79184478  0.52150992
   0.99182048  0.53173902  0.79046409
   0.78606451  0.26357555  0.24557388
   0.79350959  0.01083586  0.98899312
   0.53080485  0.24635291  0.99950447
   0.50562436  0.01436077  0.26839424
   0.77372167  0.27020803  0.79962630
   0.78148881  0.00666645  0.51166146
   0.53658435  0.26375423  0.52392659
   0.52501284  0.01112688  0.79908339
   0.78772639  0.78794909  0.26338084
   0.77510522  0.51969393  0.98723217
   0.52950189  0.78567492  0.00634163
   0.52407856  0.53894671  0.26589239
   0.77317741  0.79348895  0.79591742
   0.80603462  0.52490141  0.51840991
   0.53352246  0.79255654  0.52990996
   0.52537951  0.54117498  0.79420537
 
 position of ions in cartesian coordinates  (Angst):
   0.16243455  7.74771983  7.75607832
   7.70159862  2.14151330  1.82481862
   2.22945364  7.73277478  2.08687641
   2.03003546  2.20118325  7.60288145
   0.09008560  7.74052269  4.09765599
   7.71531854  2.02818366  6.21795306
   1.98580642  7.76922014  6.09620020
   1.97045195  1.98784790  4.10867856
   0.01201586  4.17166534  0.03001700
   7.77367051  6.05066567  2.02003820
   2.03408304  4.16860730  2.13887085
   2.14808269  6.19347624  0.08851414
   0.01600371  4.19756190  4.14150848
   7.60667541  6.13429707  6.24771495
   2.07798200  4.18614608  6.14268468
   2.03489673  6.18357362  4.15095014
   4.07555963  0.00435971  7.74689545
   4.17974817  2.01025966  2.17742328
   6.20526665  0.05935784  1.94548128
   6.18185574  2.12902812  7.71352546
   4.10748333  7.73137933  4.23732058
   4.30665514  1.86917432  6.28853392
   6.32768257  0.03380119  6.04499071
   6.25125207  2.03688050  4.04955296
   4.16289150  4.12371513  0.00778211
   4.17178302  6.18816697  2.12322768
   6.13390584  3.86646122  2.15885498
   6.38361550  6.20905397  7.79887997
   4.32901498  3.92030894  4.04525330
   4.20009370  6.41775006  6.14005402
   6.16928444  4.08731358  6.29806320
   6.13618674  6.23292451  4.07796484
   2.02273078  2.01656707  2.16834943
   1.94498339  7.79165268  7.72110969
   0.00422141  2.11325400  7.69883357
   0.11447240  0.09015909  2.10522192
   1.94324146  2.07841406  6.33089773
   2.12917688  7.78971193  4.02118207
   7.73417968  2.22421793  4.11502578
   7.74519592  0.01909158  6.37494302
   1.97953268  6.29020432  2.10626551
   2.02516325  4.15879683  7.80133836
   0.11316292  6.31689919  0.21855755
   7.66924590  3.96553362  2.00452590
   2.07480245  6.17681838  6.09785124
   2.09272886  4.12212712  4.22289342
   0.11989177  6.18343314  4.07241647
   7.74502248  4.15229444  6.17265148
   6.13829561  2.05823393  1.91766077
   6.19643347  0.08461610  7.72294392
   4.14499960  1.92374413  7.80502596
   3.94836779  0.11214175  2.09586257
   6.04191167  2.11002627  6.24419822
   6.10256445  0.05205761  3.99551087
   4.19013112  2.05962922  4.09128799
   4.09977040  0.08688864  6.23995869
   6.15127306  6.15301210  2.05671346
   6.05271566  4.05823559  7.70919285
   4.13482493  6.13525335  0.04952113
   4.09247471  4.20857854  2.07632589
   6.03766160  6.19627229  6.21523596
   6.29424012  4.09890026  4.04820881
   4.16622114  6.18899120  4.13801150
   4.10263369  4.22597887  6.20186674
 


--------------------------------------------------------------------------------------------------------


 k-point  1 :   0.0000 0.0000 0.0000  plane waves:   12053
 k-point  2 :   0.2500 0.0000 0.0000  plane waves:   12088
 k-point  3 :   0.5000 0.0000 0.0000  plane waves:   12140
 k-point  4 :   0.0000 0.2500 0.0000  plane waves:   12088
 k-point  5 :   0.2500 0.2500 0.0000  plane waves:   12108
 k-point  6 :   0.5000 0.2500 0.0000  plane waves:   12074
 k-point  7 :  -0.2500 0.2500 0.0000  plane waves:   12108
 k-point  8 :   0.0000 0.5000 0.0000  plane waves:   12140
 k-point  9 :   0.2500 0.5000 0.0000  plane waves:   12074
 k-point 10 :   0.5000 0.5000 0.0000  plane waves:   12168
 k-point 11 :   0.0000 0.0000 0.2500  plane waves:   12088
 k-point 12 :   0.2500 0.0000 0.2500  plane waves:   12108
 k-point 13 :   0.5000 0.0000 0.2500  plane waves:   12074
 k-point 14 :  -0.2500 0.0000 0.2500  plane waves:   12108
 k-point 15 :   0.0000 0.2500 0.2500  plane waves:   12108
 k-point 16 :   0.2500 0.2500 0.2500  plane waves:   12067
 k-point 17 :   0.5000 0.2500 0.2500  plane waves:   12064
 k-point 18 :  -0.2500 0.2500 0.2500  plane waves:   12067
 k-point 19 :   0.0000 0.5000 0.2500  plane waves:   12074
 k-point 20 :   0.2500 0.5000 0.2500  plane waves:   12064
 k-point 21 :   0.5000 0.5000 0.2500  plane waves:   12116
 k-point 22 :  -0.2500 0.5000 0.2500  plane waves:   12064
 k-point 23 :   0.0000-0.2500 0.2500  plane waves:   12108
 k-point 24 :   0.2500-0.2500 0.2500  plane waves:   12067
 k-point 25 :   0.5000-0.2500 0.2500  plane waves:   12064
 k-point 26 :  -0.2500-0.2500 0.2500  plane waves:   12067
 k-point 27 :   0.0000 0.0000 0.5000  plane waves:   12140
 k-point 28 :   0.2500 0.0000 0.5000  plane waves:   12074
 k-point 29 :   0.5000 0.0000 0.5000  plane waves:   12168
 k-point 30 :   0.0000 0.2500 0.5000  plane waves:   12074
 k-point 31 :   0.2500 0.2500 0.5000  plane waves:   12064
 k-point 32 :   0.5000 0.2500 0.5000  plane waves:   12116
 k-point 33 :  -0.2500 0.2500 0.5000  plane waves:   12064
 k-point 34 :   0.0000 0.5000 0.5000  plane waves:   12168
 k-point 35 :   0.2500 0.5000 0.5000  plane waves:   12116
 k-point 36 :   0.5000 0.5000 0.5000  plane waves:   11992

 maximum and minimum number of plane-waves per node :     12168    11992

 maximum number of plane-waves:     12168
 maximum index in each direction: 
   IXMAX=   14   IYMAX=   14   IZMAX=   14
   IXMIN=  -14   IYMIN=  -14   IZMIN=  -14

 The following grids will avoid any aliasing or wrap around errors in the Hartre
 e energy
  - symmetry arguments have not been applied
  - exchange correlation energies might require even more grid points
  - we recommend to set PREC=Normal or Accurate and rely on VASP defaults
 NGX is ok and might be reduce to    60
 NGY is ok and might be reduce to    60
 NGZ is ok and might be reduce to    60

 serial   3D FFT for wavefunctions
 parallel 3D FFT for charge:
    minimum data exchange during FFTs selected (reduces bandwidth)


 total amount of memory used by VASP MPI-rank0   435270. kBytes
=======================================================================

   base      :      30000. kBytes
   nonlr-proj:      42121. kBytes
   fftplans  :       4751. kBytes
   grid      :      26734. kBytes
   one-center:       1990. kBytes
   wavefun   :     329674. kBytes
 
     INWAV:  cpu time    0.0000: real time    0.0000
 Broyden mixing: mesh for mixing (old mesh)
   NGX = 29   NGY = 29   NGZ = 29
  (NGX  =120   NGY  =120   NGZ  =120)
  gives a total of  24389 points

 initial charge density was supplied:
 charge density of overlapping atoms calculated
 number of electron     512.0000000 magnetization      80.0000000
 keeping initial charge density in first step


--------------------------------------------------------------------------------------------------------


 Maximum index for non-local projection operator         5928
 Maximum index for augmentation-charges         1319 (set IRDMAX)


--------------------------------------------------------------------------------------------------------


 First call to EWALD:  gamma=   0.227
 Maximum number of real-space cells 3x 3x 3
 Maximum number of reciprocal cells 3x 3x 3

    FEWALD:  cpu time    0.0034: real time    0.0034


--------------------------------------- Iteration      1(   1)  ---------------------------------------


    POTLOK:  cpu time    0.1365: real time    0.1395
    SETDIJ:  cpu time    0.0256: real time    0.0256
     EDDAV:  cpu time  139.1593: real time  139.4893
    --------------------------------------------
      LOOP:  cpu time  139.3259: real time  139.6590

 eigenvalue-minimisations  : 50688
 total energy-change (2. order) : 0.6851366E+04  (-0.2020470E+05)
 number of electron     512.0000000 magnetization      80.0000000
 augmentation part      512.0000000 magnetization      80.0000000

 Free energy of the ion-electron system (eV)
  ---------------------------------------------------
  alpha Z        PSCENC =      2551.59597371
  Ewald energy   TEWEN  =    -41391.71661545
  -Hartree energ DENC   =    -11924.72733452
  -exchange      EXHF   =         0.00000000
  -V(xc)+E(xc)   XCENC  =      2002.67287112
  PAW double counting   =     41846.49563633   -44035.77946198
  entropy T*S    EENTRO =        -0.01035129
  eigenvalues    EBANDS =      9555.75408784
  atomic energy  EATOM  =     48247.08154143
  Solvation  Ediel_sol  =         0.00000000
  ---------------------------------------------------
  free energy    TOTEN  =      6851.36634720 eV

  energy without entropy =     6851.37669848  energy(sigma->0) =     6851.37152284


--------------------------------------------------------------------------------------------------------




--------------------------------------- Iteration      1(   2)  ---------------------------------------


     EDDAV:  cpu time  138.5452: real time  138.8738
    --------------------------------------------
      LOOP:  cpu time  138.5453: real time  138.8739

 eigenvalue-minimisations  : 50688
 total energy-change (2. order) :-0.5691669E+04  (-0.5106012E+04)
 number of electron     512.0000000 magnetization      80.0000000
 augmentation part      512.0000000 magnetization      80.0000000

 Free energy of the ion-electron system (eV)
  ---------------------------------------------------
  alpha Z        PSCENC =      2551.59597371
  Ewald energy   TEWEN  =    -41391.71661545
  -Hartree energ DENC   =    -11924.72733452
  -exchange      EXHF   =         0.00000000
  -V(xc)+E(xc)   XCENC  =      2002.67287112
  PAW double counting   =     41846.49563633   -44035.77946198
  entropy T*S    EENTRO =        -0.02708732
  eigenvalues    EBANDS =      3864.10167214
  atomic energy  EATOM  =     48247.08154143
  Solvation  Ediel_sol  =         0.00000000
  ---------------------------------------------------
  free energy    TOTEN  =      1159.69719547 eV

  energy without entropy =     1159.72428279  energy(sigma->0) =     1159.71073913


--------------------------------------------------------------------------------------------------------




--------------------------------------- Iteration      1(   3)  ---------------------------------------


     EDDAV:  cpu time  148.0135: real time  148.3745
    --------------------------------------------
      LOOP:  cpu time  148.0165: real time  148.4134

 eigenvalue-minimisations  : 51616
 total energy-change (2. order) :-0.1383246E+04  (-0.1240407E+04)
 number of electron     512.0000000 magnetization      80.0000000
 augmentation part      512.0000000 magnetization      80.0000000

 Free energy of the ion-electron system (eV)
  ---------------------------------------------------
  alpha Z        PSCENC =      2551.59597371
  Ewald energy   TEWEN  =    -41391.71661545
  -Hartree energ DENC   =    -11924.72733452
  -exchange      EXHF   =         0.00000000
  -V(xc)+E(xc)   XCENC  =      2002.67287112
  PAW double counting   =     41846.49563633   -44035.77946198
  entropy T*S    EENTRO =        -0.08086634
  eigenvalues    EBANDS =      2480.90906528
  atomic energy  EATOM  =     48247.08154143
  Solvation  Ediel_sol  =         0.00000000
  ---------------------------------------------------
  free energy    TOTEN  =      -223.54919042 eV

  energy without entropy =     -223.46832408  energy(sigma->0) =     -223.50875725


--------------------------------------------------------------------------------------------------------




--------------------------------------- Iteration      1(   4)  ---------------------------------------


     EDDAV:  cpu time  154.9741: real time  155.3795
    --------------------------------------------
      LOOP:  cpu time  154.9714: real time  155.3410

 eigenvalue-minimisations  : 58048
 total energy-change (2. order) :-0.1554722E+03  (-0.1483873E+03)
 number of electron     512.0000000 magnetization      80.0000000
 augmentation part      512.0000000 magnetization      80.0000000

 Free energy of the ion-electron system (eV)
  ---------------------------------------------------
  alpha Z        PSCENC =      2551.59597371
  Ewald energy   TEWEN  =    -41391.71661545
  -Hartree energ DENC   =    -11924.72733452
  -exchange      EXHF   =         0.00000000
  -V(xc)+E(xc)   XCENC  =      2002.67287112
  PAW double counting   =     41846.49563633   -44035.77946198
  entropy T*S    EENTRO =        -0.08382002
  eigenvalues    EBANDS =      2325.43984529
  atomic energy  EATOM  =     48247.08154143
  Solvation  Ediel_sol  =         0.00000000
  ---------------------------------------------------
  free energy    TOTEN  =      -379.02136409 eV

  energy without entropy =     -378.93754407  energy(sigma->0) =     -378.97945408


--------------------------------------------------------------------------------------------------------




--------------------------------------- Iteration      1(   5)  ---------------------------------------


     EDDAV:  cpu time  150.9021: real time  151.2599
    CHARGE:  cpu time    3.6821: real time    3.6908
    MIXING:  cpu time    0.0031: real time    0.0031
    --------------------------------------------
      LOOP:  cpu time  154.5825: real time  154.9490

 eigenvalue-minimisations  : 57552
 total energy-change (2. order) :-0.4046401E+01  (-0.4011706E+01)
 number of electron     512.0000018 magnetization      64.6732340
 augmentation part      208.8124135 magnetization      51.5756232

 Broyden mixing:
  rms(total) = 0.19016E+02    rms(broyden)= 0.19014E+02
  rms(prec ) = 0.20650E+02
  weight for this iteration     100.00

 Free energy of the ion-electron system (eV)
  ---------------------------------------------------
  alpha Z        PSCENC =      2551.59597371
  Ewald energy   TEWEN  =    -41391.71661545
  -Hartree energ DENC   =    -11924.72733452
  -exchange      EXHF   =         0.00000000
  -V(xc)+E(xc)   XCENC  =      2002.67287112
  PAW double counting   =     41846.49563633   -44035.77946198
  entropy T*S    EENTRO =        -0.08392008
  eigenvalues    EBANDS =      2321.39354475
  atomic energy  EATOM  =     48247.08154143
  Solvation  Ediel_sol  =         0.00000000
  ---------------------------------------------------
  free energy    TOTEN  =      -383.06776469 eV

  energy without entropy =     -382.98384461  energy(sigma->0) =     -383.02580465


--------------------------------------------------------------------------------------------------------




--------------------------------------- Iteration      1(   6)  ---------------------------------------


    POTLOK:  cpu time    0.1207: real time    0.1209
    SETDIJ:  cpu time    0.0252: real time    0.0253
     EDDAV:  cpu time  189.8503: real time  190.3026
    CHARGE:  cpu time    3.6069: real time    3.6489
    MIXING:  cpu time    0.0029: real time    0.0030
    --------------------------------------------
      LOOP:  cpu time  193.6061: real time  194.1008

 eigenvalue-minimisations  : 74512
 total energy-change (2. order) :-0.5352204E+02  (-0.5530035E+02)
 number of electron     512.0000023 magnetization      52.8965071
 augmentation part      223.1276901 magnetization      47.6982511

 Broyden mixing:
  rms(total) = 0.18178E+02    rms(broyden)= 0.18177E+02
  rms(prec ) = 0.24753E+02
  weight for this iteration     100.00

 eigenvalues of (default mixing * dielectric matrix)
  average eigenvalue GAMMA=   0.4588
  0.4588

 Free energy of the ion-electron system (eV)
  ---------------------------------------------------
  alpha Z        PSCENC =      2551.59597371
  Ewald energy   TEWEN  =    -41391.71661545
  -Hartree energ DENC   =    -11731.37099990
  -exchange      EXHF   =         0.00000000
  -V(xc)+E(xc)   XCENC  =      1997.58228183
  PAW double counting   =     50471.17561888   -52565.90185129
  entropy T*S    EENTRO =        -0.03867885
  eigenvalues    EBANDS =      1985.00292568
  atomic energy  EATOM  =     48247.08154143
  Solvation  Ediel_sol  =         0.00000000
  ---------------------------------------------------
  free energy    TOTEN  =      -436.58980396 eV

  energy without entropy =     -436.55112511  energy(sigma->0) =     -436.57046453


--------------------------------------------------------------------------------------------------------




--------------------------------------- Iteration      1(   7)  ---------------------------------------


    POTLOK:  cpu time    0.1202: real time    0.1205
    SETDIJ:  cpu time    0.0252: real time    0.0253
     EDDAV:  cpu time  157.5278: real time  157.9015
    CHARGE:  cpu time    3.7812: real time    3.7902
    MIXING:  cpu time    0.0032: real time    0.0032
    --------------------------------------------
      LOOP:  cpu time  161.4577: real time  161.8408

 eigenvalue-minimisations  : 59168
 total energy-change (2. order) : 0.5698243E+01  (-0.6231077E+02)
 number of electron     512.0000013 magnetization      42.7262679
 augmentation part      222.6141369 magnetization      36.8703163

 Broyden mixing:
  rms(total) = 0.19791E+02    rms(broyden)= 0.19790E+02
  rms(prec ) = 0.24355E+02
  weight for this iteration     100.00

 eigenvalues of (default mixing * dielectric matrix)
  average eigenvalue GAMMA=   0.3880
  0.5833  0.1928

 Free energy of the ion-electron system (eV)
  ---------------------------------------------------
  alpha Z        PSCENC =      2551.59597371
  Ewald energy   TEWEN  =    -41391.71661545
  -Hartree energ DENC   =    -11625.30444914
  -exchange      EXHF   =         0.00000000
  -V(xc)+E(xc)   XCENC  =      1989.22325649
  PAW double counting   =     53097.70757892   -55269.54473946
  entropy T*S    EENTRO =        -0.06462588
  eigenvalues    EBANDS =      1970.13051827
  atomic energy  EATOM  =     48247.08154143
  Solvation  Ediel_sol  =         0.00000000
  ---------------------------------------------------
  free energy    TOTEN  =      -430.89156109 eV

  energy without entropy =     -430.82693522  energy(sigma->0) =     -430.85924816


--------------------------------------------------------------------------------------------------------




--------------------------------------- Iteration      1(   8)  ---------------------------------------


    POTLOK:  cpu time    0.1213: real time    0.1215
    SETDIJ:  cpu time    0.0268: real time    0.0268
     EDDAV:  cpu time  164.6897: real time  165.0804
    CHARGE:  cpu time    3.5981: real time    3.6067
    MIXING:  cpu time    0.0029: real time    0.0029
    --------------------------------------------
      LOOP:  cpu time  168.4388: real time  168.8384

 eigenvalue-minimisations  : 63216
 total energy-change (2. order) :-0.4921821E+01  (-0.3022702E+02)
 number of electron     512.0000027 magnetization      29.6191132
 augmentation part      219.1335892 magnetization      25.7979717

 Broyden mixing:
  rms(total) = 0.18857E+02    rms(broyden)= 0.18856E+02
  rms(prec ) = 0.27963E+02
  weight for this iteration     100.00

 eigenvalues of (default mixing * dielectric matrix)
  average eigenvalue GAMMA=   0.4384
  0.8391  0.2381  0.2381

 Free energy of the ion-electron system (eV)
  ---------------------------------------------------
  alpha Z        PSCENC =      2551.59597371
  Ewald energy   TEWEN  =    -41391.71661545
  -Hartree energ DENC   =    -11667.71906396
  -exchange      EXHF   =         0.00000000
  -V(xc)+E(xc)   XCENC  =      1987.04215823
  PAW double counting   =     55946.04122991   -58194.50859657
  entropy T*S    EENTRO =        -0.04103613
  eigenvalues    EBANDS =      2086.41102656
  atomic energy  EATOM  =     48247.08154143
  Solvation  Ediel_sol  =         0.00000000
  ---------------------------------------------------
  free energy    TOTEN  =      -435.81338226 eV

  energy without entropy =     -435.77234614  energy(sigma->0) =     -435.79286420


--------------------------------------------------------------------------------------------------------




--------------------------------------- Iteration      1(   9)  ---------------------------------------


    POTLOK:  cpu time    0.1193: real time    0.1196
    SETDIJ:  cpu time    0.0252: real time    0.0253
     EDDAV:  cpu time  167.2986: real time  167.6953
    CHARGE:  cpu time    3.6438: real time    3.6524
    MIXING:  cpu time    0.0034: real time    0.0034
    --------------------------------------------
      LOOP:  cpu time  171.0903: real time  171.4960

 eigenvalue-minimisations  : 63216
 total energy-change (2. order) : 0.2777059E+02  (-0.4423922E+02)
 number of electron     512.0000020 magnetization      20.8896590
 augmentation part      218.0870759 magnetization      16.1069385

 Broyden mixing:
  rms(total) = 0.12060E+02    rms(broyden)= 0.12059E+02
  rms(prec ) = 0.17619E+02
  weight for this iteration     100.00

 eigenvalues of (default mixing * dielectric matrix)
  average eigenvalue GAMMA=   0.5964
  1.4456  0.5516  0.2305  0.1580

 Free energy of the ion-electron system (eV)
  ---------------------------------------------------
  alpha Z        PSCENC =      2551.59597371
  Ewald energy   TEWEN  =    -41391.71661545
  -Hartree energ DENC   =    -11746.38221363
  -exchange      EXHF   =         0.00000000
  -V(xc)+E(xc)   XCENC  =      1986.20334345
  PAW double counting   =     59439.31135597   -61767.64049347
  entropy T*S    EENTRO =        -0.06021230
  eigenvalues    EBANDS =      2273.56452991
  atomic energy  EATOM  =     48247.08154143
  Solvation  Ediel_sol  =         0.00000000
  ---------------------------------------------------
  free energy    TOTEN  =      -408.04279037 eV

  energy without entropy =     -407.98257807  energy(sigma->0) =     -408.01268422


--------------------------------------------------------------------------------------------------------




--------------------------------------- Iteration      1(  10)  ---------------------------------------


    POTLOK:  cpu time    0.1234: real time    0.1237
    SETDIJ:  cpu time    0.0258: real time    0.0258
     EDDAV:  cpu time  171.6681: real time  172.0751
    CHARGE:  cpu time    3.6536: real time    3.6680
    MIXING:  cpu time    0.0035: real time    0.0035
    --------------------------------------------
      LOOP:  cpu time  175.4743: real time  175.8961

 eigenvalue-minimisations  : 63760
 total energy-change (2. order) :-0.1102224E+03  (-0.4155168E+02)
 number of electron     512.0000015 magnetization       4.6247904
 augmentation part      217.3266131 magnetization       2.9880274

 Broyden mixing:
  rms(total) = 0.18140E+02    rms(broyden)= 0.18139E+02
  rms(prec ) = 0.30001E+02
  weight for this iteration     100.00

 eigenvalues of (default mixing * dielectric matrix)
  average eigenvalue GAMMA=   0.6403
  2.1055  0.5401  0.2615  0.1470  0.1470

 Free energy of the ion-electron system (eV)
  ---------------------------------------------------
  alpha Z        PSCENC =      2551.59597371
  Ewald energy   TEWEN  =    -41391.71661545
  -Hartree energ DENC   =    -11740.25534846
  -exchange      EXHF   =         0.00000000
  -V(xc)+E(xc)   XCENC  =      1984.02878694
  PAW double counting   =     61940.03957791   -64310.25984680
  entropy T*S    EENTRO =        -0.03109324
  eigenvalues    EBANDS =      2201.25181018
  atomic energy  EATOM  =     48247.08154143
  Solvation  Ediel_sol  =         0.00000000
  ---------------------------------------------------
  free energy    TOTEN  =      -518.26521377 eV

  energy without entropy =     -518.23412054  energy(sigma->0) =     -518.24966716


--------------------------------------------------------------------------------------------------------




--------------------------------------- Iteration      1(  11)  ---------------------------------------


    POTLOK:  cpu time    0.1256: real time    0.1324
    SETDIJ:  cpu time    0.0258: real time    0.0259
     EDDAV:  cpu time  166.1134: real time  166.5082
    CHARGE:  cpu time    3.7459: real time    3.7548
    MIXING:  cpu time    0.0038: real time    0.0038
    --------------------------------------------
      LOOP:  cpu time  170.0144: real time  170.4251

 eigenvalue-minimisations  : 63024
 total energy-change (2. order) : 0.4831949E+02  (-0.1461475E+02)
 number of electron     512.0000021 magnetization       1.3954596
 augmentation part      218.8296140 magnetization       0.1224052

 Broyden mixing:
  rms(total) = 0.13756E+02    rms(broyden)= 0.13755E+02
  rms(prec ) = 0.22052E+02
  weight for this iteration     100.00

 eigenvalues of (default mixing * dielectric matrix)
  average eigenvalue GAMMA=   0.5879
  2.2202  0.5081  0.2613  0.2613  0.1383  0.1383

 Free energy of the ion-electron system (eV)
  ---------------------------------------------------
  alpha Z        PSCENC =      2551.59597371
  Ewald energy   TEWEN  =    -41391.71661545
  -Hartree energ DENC   =    -11739.46140620
  -exchange      EXHF   =         0.00000000
  -V(xc)+E(xc)   XCENC  =      1982.80717781
  PAW double counting   =     66268.43886625   -68701.05561636
  entropy T*S    EENTRO =        -0.04523138
  eigenvalues    EBANDS =      2312.40958968
  atomic energy  EATOM  =     48247.08154143
  Solvation  Ediel_sol  =         0.00000000
  ---------------------------------------------------
  free energy    TOTEN  =      -469.94572051 eV

  energy without entropy =     -469.90048913  energy(sigma->0) =     -469.92310482


--------------------------------------------------------------------------------------------------------




--------------------------------------- Iteration      1(  12)  ---------------------------------------


    POTLOK:  cpu time    0.1221: real time    0.1224
    SETDIJ:  cpu time    0.0350: real time    0.0351
     EDDAV:  cpu time  169.0794: real time  169.4803
    CHARGE:  cpu time    3.8410: real time    3.8502
    MIXING:  cpu time    0.0037: real time    0.0037
    --------------------------------------------
      LOOP:  cpu time  173.0811: real time  173.4916

 eigenvalue-minimisations  : 64784
 total energy-change (2. order) : 0.8723913E+02  (-0.8723844E+01)
 number of electron     512.0000018 magnetization       0.9727559
 augmentation part      219.5583272 magnetization       0.1368404

 Broyden mixing:
  rms(total) = 0.90097E+01    rms(broyden)= 0.90083E+01
  rms(prec ) = 0.14824E+02
  weight for this iteration     100.00

 eigenvalues of (default mixing * dielectric matrix)
  average eigenvalue GAMMA=   0.5429
  2.1820  0.4534  0.3715  0.3715  0.1435  0.1435  0.1347

 Free energy of the ion-electron system (eV)
  ---------------------------------------------------
  alpha Z        PSCENC =      2551.59597371
  Ewald energy   TEWEN  =    -41391.71661545
  -Hartree energ DENC   =    -11724.75309837
  -exchange      EXHF   =         0.00000000
  -V(xc)+E(xc)   XCENC  =      1982.07784017
  PAW double counting   =     67275.04925496   -69724.73613503
  entropy T*S    EENTRO =        -0.05446928
  eigenvalues    EBANDS =      2402.74911907
  atomic energy  EATOM  =     48247.08154143
  Solvation  Ediel_sol  =         0.00000000
  ---------------------------------------------------
  free energy    TOTEN  =      -382.70658878 eV

  energy without entropy =     -382.65211950  energy(sigma->0) =     -382.67935414


--------------------------------------------------------------------------------------------------------




--------------------------------------- Iteration      1(  13)  ---------------------------------------


    POTLOK:  cpu time    0.1256: real time    0.1259
    SETDIJ:  cpu time    0.0270: real time    0.0271
     EDDAV:  cpu time  165.2976: real time  165.6894
    CHARGE:  cpu time    3.8099: real time    3.8189
    MIXING:  cpu time    0.0040: real time    0.0040
    --------------------------------------------
      LOOP:  cpu time  169.2640: real time  169.6653

 eigenvalue-minimisations  : 62912
 total energy-change (2. order) : 0.4170573E+02  (-0.4445540E+01)
 number of electron     512.0000016 magnetization       2.2969921
 augmentation part      220.4013673 magnetization       2.2165532

 Broyden mixing:
  rms(total) = 0.73681E+01    rms(broyden)= 0.73664E+01
  rms(prec ) = 0.10877E+02
  weight for this iteration     100.00

 eigenvalues of (default mixing * dielectric matrix)
  average eigenvalue GAMMA=   0.4997
  2.0258  0.4769  0.4769  0.3075  0.3075  0.1380  0.1380  0.1269

 Free energy of the ion-electron system (eV)
  ---------------------------------------------------
  alpha Z        PSCENC =      2551.59597371
  Ewald energy   TEWEN  =    -41391.71661545
  -Hartree energ DENC   =    -11691.83196370
  -exchange      EXHF   =         0.00000000
  -V(xc)+E(xc)   XCENC  =      1980.80599394
  PAW double counting   =     67512.72981560   -69967.73600889
  entropy T*S    EENTRO =        -0.06512904
  eigenvalues    EBANDS =      2418.13553703
  atomic energy  EATOM  =     48247.08154143
  Solvation  Ediel_sol  =         0.00000000
  ---------------------------------------------------
  free energy    TOTEN  =      -341.00085536 eV

  energy without entropy =     -340.93572632  energy(sigma->0) =     -340.96829084


--------------------------------------------------------------------------------------------------------




--------------------------------------- Iteration      1(  14)  ---------------------------------------


    POTLOK:  cpu time    0.1223: real time    0.1226
    SETDIJ:  cpu time    0.0260: real time    0.0260
     EDDAV:  cpu time  179.4949: real time  179.9205
    CHARGE:  cpu time    3.8553: real time    3.8645
    MIXING:  cpu time    0.0044: real time    0.0044
    --------------------------------------------
      LOOP:  cpu time  183.5029: real time  183.9380

 eigenvalue-minimisations  : 70288
 total energy-change (2. order) : 0.1233423E+02  (-0.4095889E+01)
 number of electron     512.0000013 magnetization       3.2090728
 augmentation part      219.8312765 magnetization       2.9299898

 Broyden mixing:
  rms(total) = 0.57480E+01    rms(broyden)= 0.57464E+01
  rms(prec ) = 0.83328E+01
  weight for this iteration     100.00

 eigenvalues of (default mixing * dielectric matrix)
  average eigenvalue GAMMA=   0.4740
  1.9451  0.5449  0.5449  0.3438  0.3438  0.1427  0.1427  0.1293  0.1293

 Free energy of the ion-electron system (eV)
  ---------------------------------------------------
  alpha Z        PSCENC =      2551.59597371
  Ewald energy   TEWEN  =    -41391.71661545
  -Hartree energ DENC   =    -11677.83951899
  -exchange      EXHF   =         0.00000000
  -V(xc)+E(xc)   XCENC  =      1980.11308109
  PAW double counting   =     67034.18490738   -69479.90923769
  entropy T*S    EENTRO =        -0.05982074
  eigenvalues    EBANDS =      2407.88306815
  atomic energy  EATOM  =     48247.08154143
  Solvation  Ediel_sol  =         0.00000000
  ---------------------------------------------------
  free energy    TOTEN  =      -328.66662110 eV

  energy without entropy =     -328.60680036  energy(sigma->0) =     -328.63671073


--------------------------------------------------------------------------------------------------------




--------------------------------------- Iteration      1(  15)  ---------------------------------------


    POTLOK:  cpu time    0.1228: real time    0.1231
    SETDIJ:  cpu time    0.0264: real time    0.0265
     EDDAV:  cpu time  176.7649: real time  177.1839
    CHARGE:  cpu time    3.7507: real time    3.7992
    MIXING:  cpu time    0.0043: real time    0.0043
    --------------------------------------------
      LOOP:  cpu time  180.6692: real time  181.1370

 eigenvalue-minimisations  : 66544
 total energy-change (2. order) : 0.6169130E+01  (-0.2091031E+01)
 number of electron     512.0000015 magnetization       3.5512378
 augmentation part      219.7118794 magnetization       3.0204877

 Broyden mixing:
  rms(total) = 0.43376E+01    rms(broyden)= 0.43368E+01
  rms(prec ) = 0.68896E+01
  weight for this iteration     100.00

 eigenvalues of (default mixing * dielectric matrix)
  average eigenvalue GAMMA=   0.4486
  1.8941  0.5666  0.5666  0.3532  0.3532  0.1943  0.1425  0.1425  0.1366  0.1366

 Free energy of the ion-electron system (eV)
  ---------------------------------------------------
  alpha Z        PSCENC =      2551.59597371
  Ewald energy   TEWEN  =    -41391.71661545
  -Hartree energ DENC   =    -11677.09595971
  -exchange      EXHF   =         0.00000000
  -V(xc)+E(xc)   XCENC  =      1979.81610413
  PAW double counting   =     66571.60715797   -69005.79802592
  entropy T*S    EENTRO =        -0.06659852
  eigenvalues    EBANDS =      2402.07893094
  atomic energy  EATOM  =     48247.08154143
  Solvation  Ediel_sol  =         0.00000000
  ---------------------------------------------------
  free energy    TOTEN  =      -322.49749143 eV

  energy without entropy =     -322.43089290  energy(sigma->0) =     -322.46419216


--------------------------------------------------------------------------------------------------------




--------------------------------------- Iteration      1(  16)  ---------------------------------------


    POTLOK:  cpu time    0.1247: real time    0.1555
    SETDIJ:  cpu time    0.0256: real time    0.0256
     EDDAV:  cpu time  166.4843: real time  166.8790
    CHARGE:  cpu time    3.9566: real time    3.9661
    MIXING:  cpu time    0.0044: real time    0.0044
    --------------------------------------------
      LOOP:  cpu time  170.5957: real time  171.0306

 eigenvalue-minimisations  : 64592
 total energy-change (2. order) : 0.3037675E+01  (-0.1541739E+01)
 number of electron     512.0000015 magnetization       3.4895997
 augmentation part      219.7249609 magnetization       3.0287512

 Broyden mixing:
  rms(total) = 0.37689E+01    rms(broyden)= 0.37682E+01
  rms(prec ) = 0.58249E+01
  weight for this iteration     100.00

 eigenvalues of (default mixing * dielectric matrix)
  average eigenvalue GAMMA=   0.4555
  1.8189  0.6955  0.6955  0.4421  0.3478  0.3478  0.1416  0.1416  0.1342  0.1342
  0.1112

 Free energy of the ion-electron system (eV)
  ---------------------------------------------------
  alpha Z        PSCENC =      2551.59597371
  Ewald energy   TEWEN  =    -41391.71661545
  -Hartree energ DENC   =    -11677.46303470
  -exchange      EXHF   =         0.00000000
  -V(xc)+E(xc)   XCENC  =      1979.74647664
  PAW double counting   =     66322.18156732   -68746.74965700
  entropy T*S    EENTRO =        -0.06410378
  eigenvalues    EBANDS =      2395.92803501
  atomic energy  EATOM  =     48247.08154143
  Solvation  Ediel_sol  =         0.00000000
  ---------------------------------------------------
  free energy    TOTEN  =      -319.45981682 eV

  energy without entropy =     -319.39571304  energy(sigma->0) =     -319.42776493


--------------------------------------------------------------------------------------------------------




--------------------------------------- Iteration      1(  17)  ---------------------------------------


    POTLOK:  cpu time    0.1225: real time    0.1228
    SETDIJ:  cpu time    0.0262: real time    0.0263
     EDDAV:  cpu time  164.1526: real time  164.5418
    CHARGE:  cpu time    3.9869: real time    3.9963
    MIXING:  cpu time    0.0046: real time    0.0046
    --------------------------------------------
      LOOP:  cpu time  168.2927: real time  168.6918

 eigenvalue-minimisations  : 63904
 total energy-change (2. order) : 0.2474926E+01  (-0.7066385E+00)
 number of electron     512.0000014 magnetization       2.6806604
 augmentation part      219.7239330 magnetization       2.1926015

 Broyden mixing:
  rms(total) = 0.36952E+01    rms(broyden)= 0.36947E+01
  rms(prec ) = 0.54841E+01
  weight for this iteration     100.00

 eigenvalues of (default mixing * dielectric matrix)
  average eigenvalue GAMMA=   0.4533
  1.7928  0.8389  0.8389  0.4783  0.3536  0.3536  0.1398  0.1398  0.1500  0.1297
  0.1265  0.0981

 Free energy of the ion-electron system (eV)
  ---------------------------------------------------
  alpha Z        PSCENC =      2551.59597371
  Ewald energy   TEWEN  =    -41391.71661545
  -Hartree energ DENC   =    -11675.71030961
  -exchange      EXHF   =         0.00000000
  -V(xc)+E(xc)   XCENC  =      1979.70648490
  PAW double counting   =     66168.75493455   -68583.02938512
  entropy T*S    EENTRO =        -0.06183509
  eigenvalues    EBANDS =      2386.39431948
  atomic energy  EATOM  =     48247.08154143
  Solvation  Ediel_sol  =         0.00000000
  ---------------------------------------------------
  free energy    TOTEN  =      -316.98489119 eV

  energy without entropy =     -316.92305610  energy(sigma->0) =     -316.95397365


--------------------------------------------------------------------------------------------------------




--------------------------------------- Iteration      1(  18)  ---------------------------------------


    POTLOK:  cpu time    0.1245: real time    0.1248
    SETDIJ:  cpu time    0.0260: real time    0.0260
     EDDAV:  cpu time  171.0322: real time  171.4377
    CHARGE:  cpu time    3.7701: real time    3.7790
    MIXING:  cpu time    0.0048: real time    0.0048
    --------------------------------------------
      LOOP:  cpu time  174.9575: real time  175.3723

 eigenvalue-minimisations  : 66832
 total energy-change (2. order) : 0.2986011E+01  (-0.7243758E+00)
 number of electron     512.0000016 magnetization       2.1952478
 augmentation part      219.9285988 magnetization       1.8590451

 Broyden mixing:
  rms(total) = 0.25184E+01    rms(broyden)= 0.25176E+01
  rms(prec ) = 0.34877E+01
  weight for this iteration     100.00

 eigenvalues of (default mixing * dielectric matrix)
  average eigenvalue GAMMA=   0.4694
  1.7365  1.0348  1.0348  0.4650  0.3624  0.3624  0.3119  0.1420  0.1420  0.1538
  0.1278  0.1278  0.1003

 Free energy of the ion-electron system (eV)
  ---------------------------------------------------
  alpha Z        PSCENC =      2551.59597371
  Ewald energy   TEWEN  =    -41391.71661545
  -Hartree energ DENC   =    -11673.44321693
  -exchange      EXHF   =         0.00000000
  -V(xc)+E(xc)   XCENC  =      1979.76915721
  PAW double counting   =     66171.52633785   -68574.15028993
  entropy T*S    EENTRO =        -0.06307863
  eigenvalues    EBANDS =      2375.40131028
  atomic energy  EATOM  =     48247.08154143
  Solvation  Ediel_sol  =         0.00000000
  ---------------------------------------------------
  free energy    TOTEN  =      -313.99888045 eV

  energy without entropy =     -313.93580182  energy(sigma->0) =     -313.96734113


--------------------------------------------------------------------------------------------------------




--------------------------------------- Iteration      1(  19)  ---------------------------------------


    POTLOK:  cpu time    0.1212: real time    0.1215
    SETDIJ:  cpu time    0.0259: real time    0.0260
     EDDAV:  cpu time  177.6547: real time  178.0759
    CHARGE:  cpu time    3.9928: real time    4.0023
    MIXING:  cpu time    0.0055: real time    0.0055
    --------------------------------------------
      LOOP:  cpu time  181.8001: real time  182.2311

 eigenvalue-minimisations  : 70256
 total energy-change (2. order) : 0.9679253E+00  (-0.4919644E+00)
 number of electron     512.0000015 magnetization       1.2560194
 augmentation part      219.6657255 magnetization       1.1058444

 Broyden mixing:
  rms(total) = 0.21676E+01    rms(broyden)= 0.21664E+01
  rms(prec ) = 0.28418E+01
  weight for this iteration     100.00

 eigenvalues of (default mixing * dielectric matrix)
  average eigenvalue GAMMA=   0.5035
  1.7844  1.2831  1.2831  0.5085  0.5085  0.3706  0.3706  0.1808  0.1426  0.1426
  0.1322  0.1322  0.1167  0.0926

 Free energy of the ion-electron system (eV)
  ---------------------------------------------------
  alpha Z        PSCENC =      2551.59597371
  Ewald energy   TEWEN  =    -41391.71661545
  -Hartree energ DENC   =    -11672.85820240
  -exchange      EXHF   =         0.00000000
  -V(xc)+E(xc)   XCENC  =      1979.80556088
  PAW double counting   =     66129.76940107   -68522.66986411
  entropy T*S    EENTRO =        -0.06453097
  eigenvalues    EBANDS =      2366.02578071
  atomic energy  EATOM  =     48247.08154143
  Solvation  Ediel_sol  =         0.00000000
  ---------------------------------------------------
  free energy    TOTEN  =      -313.03095513 eV

  energy without entropy =     -312.96642416  energy(sigma->0) =     -312.99868964


--------------------------------------------------------------------------------------------------------




--------------------------------------- Iteration      1(  20)  ---------------------------------------


    POTLOK:  cpu time    0.1204: real time    0.1207
    SETDIJ:  cpu time    0.0255: real time    0.0256
     EDDAV:  cpu time  169.6514: real time  170.0536
    CHARGE:  cpu time    3.9787: real time    3.9881
    MIXING:  cpu time    0.0052: real time    0.0052
    --------------------------------------------
      LOOP:  cpu time  173.7812: real time  174.1932

 eigenvalue-minimisations  : 66640
 total energy-change (2. order) :-0.1614450E+01  (-0.6719966E+00)
 number of electron     512.0000016 magnetization       0.1632742
 augmentation part      219.4642132 magnetization       0.2347375

 Broyden mixing:
  rms(total) = 0.27421E+01    rms(broyden)= 0.27412E+01
  rms(prec ) = 0.42757E+01
  weight for this iteration     100.00

 eigenvalues of (default mixing * dielectric matrix)
  average eigenvalue GAMMA=   0.5035
  1.8342  1.3950  1.3950  0.5340  0.5340  0.3787  0.3787  0.2253  0.1416  0.1416
  0.1396  0.1396  0.1177  0.0989  0.0989

 Free energy of the ion-electron system (eV)
  ---------------------------------------------------
  alpha Z        PSCENC =      2551.59597371
  Ewald energy   TEWEN  =    -41391.71661545
  -Hartree energ DENC   =    -11677.34969506
  -exchange      EXHF   =         0.00000000
  -V(xc)+E(xc)   XCENC  =      1979.73084187
  PAW double counting   =     66242.27990416   -68628.73048120
  entropy T*S    EENTRO =        -0.06827327
  eigenvalues    EBANDS =      2362.53139858
  atomic energy  EATOM  =     48247.08154143
  Solvation  Ediel_sol  =         0.00000000
  ---------------------------------------------------
  free energy    TOTEN  =      -314.64540523 eV

  energy without entropy =     -314.57713196  energy(sigma->0) =     -314.61126860


--------------------------------------------------------------------------------------------------------




--------------------------------------- Iteration      1(  21)  ---------------------------------------


    POTLOK:  cpu time    0.1209: real time    0.1211
    SETDIJ:  cpu time    0.0262: real time    0.0262
     EDDAV:  cpu time  166.9692: real time  167.3650
    CHARGE:  cpu time    4.0127: real time    4.0222
    MIXING:  cpu time    0.0053: real time    0.0053
    --------------------------------------------
      LOOP:  cpu time  171.1342: real time  171.5399

 eigenvalue-minimisations  : 64928
 total energy-change (2. order) : 0.5988002E+00  (-0.8937264E+00)
 number of electron     512.0000015 magnetization      -0.6748095
 augmentation part      219.5218743 magnetization      -0.4819241

 Broyden mixing:
  rms(total) = 0.19685E+01    rms(broyden)= 0.19673E+01
  rms(prec ) = 0.29981E+01
  weight for this iteration     100.00

 eigenvalues of (default mixing * dielectric matrix)
  average eigenvalue GAMMA=   0.5118
  1.8681  1.4944  1.4944  0.5433  0.5433  0.5083  0.3595  0.3595  0.1418  0.1418
  0.1682  0.1307  0.1307  0.1224  0.0987  0.0834

 Free energy of the ion-electron system (eV)
  ---------------------------------------------------
  alpha Z        PSCENC =      2551.59597371
  Ewald energy   TEWEN  =    -41391.71661545
  -Hartree energ DENC   =    -11679.27342025
  -exchange      EXHF   =         0.00000000
  -V(xc)+E(xc)   XCENC  =      1979.64928054
  PAW double counting   =     66400.63216087   -68780.96143774
  entropy T*S    EENTRO =        -0.06876892
  eigenvalues    EBANDS =      2359.01468081
  atomic energy  EATOM  =     48247.08154143
  Solvation  Ediel_sol  =         0.00000000
  ---------------------------------------------------
  free energy    TOTEN  =      -314.04660500 eV

  energy without entropy =     -313.97783608  energy(sigma->0) =     -314.01222054


--------------------------------------------------------------------------------------------------------




[...]
   0.121E+03 -.215E+03 -.436E+03   -.121E+03 0.222E+03 0.456E+03   -.812E+00 -.951E+00 -.512E+01   0.164E+00 -.323E+00 -.632E+00
   0.219E+03 -.156E+03 -.141E+02   -.222E+03 0.155E+03 0.159E+02   0.172E+01 0.166E+01 -.203E+01   -.188E+00 0.408E+00 -.794E+00
   0.278E+03 -.217E+03 -.127E+03   -.281E+03 0.221E+03 0.128E+03   -.202E+01 0.666E+00 -.819E+00   -.281E+00 0.240E+00 -.237E+00
   0.302E+03 -.613E+02 -.399E+03   -.310E+03 0.593E+02 0.420E+03   0.190E+01 0.101E+01 -.337E+01   -.122E+01 0.287E+00 0.771E-01
   0.107E+03 -.331E+03 0.156E+03   -.108E+03 0.342E+03 -.160E+03   0.628E+00 -.336E+00 0.275E+01   0.174E+00 0.131E+00 0.605E+00
   0.312E+03 -.274E+03 0.383E+03   -.314E+03 0.277E+03 -.397E+03   0.118E+00 -.168E+01 0.500E+00   -.795E-01 0.652E+00 0.805E+00
   0.345E+03 -.293E+03 0.421E+03   -.365E+03 0.303E+03 -.434E+03   0.335E+01 -.239E+01 0.727E+00   -.810E+00 -.108E+00 0.128E+00
   0.271E+03 -.428E+02 0.724E+02   -.284E+03 0.409E+02 -.730E+02   -.104E+01 0.403E+00 0.125E+00   -.373E+00 -.367E+00 0.109E+00
   0.219E+03 0.115E+03 -.296E+03   -.220E+03 -.115E+03 0.302E+03   0.921E+00 -.140E+01 0.132E+01   -.300E+00 0.201E-01 -.960E-01
   0.869E+02 0.264E+03 -.607E+02   -.849E+02 -.269E+03 0.616E+02   -.174E+01 0.158E+01 0.103E+00   -.440E-01 -.405E+00 -.938E+00
   0.346E+03 -.809E+02 -.531E+02   -.357E+03 0.840E+02 0.553E+02   0.281E+00 -.114E+01 -.104E+01   -.905E+00 -.109E+00 -.842E+00
   0.421E+03 0.336E+03 -.400E+03   -.439E+03 -.345E+03 0.414E+03   0.729E+01 0.797E+00 -.340E+01   -.115E+01 -.168E+00 -.168E+00
   0.235E+03 -.101E+02 0.217E+01   -.237E+03 0.886E+01 -.174E+01   0.120E+01 0.284E+01 0.184E+00   -.334E+00 -.114E+00 0.327E+00
   0.162E+03 0.433E+03 0.255E+03   -.163E+03 -.455E+03 -.262E+03   -.186E+00 0.696E+01 0.452E+00   0.291E-01 -.557E+00 0.873E+00
   0.339E+03 0.259E+02 0.458E+03   -.348E+03 -.247E+02 -.484E+03   0.849E+00 -.420E+00 0.166E+01   -.157E+01 0.117E+00 0.962E+00
   0.220E+03 0.321E+03 0.106E+03   -.224E+03 -.329E+03 -.108E+03   0.186E+01 0.180E+00 0.186E+01   -.424E+00 0.329E+00 0.440E+00
   -.598E+02 -.934E+02 0.789E+01   0.591E+02 0.933E+02 -.122E+02   0.353E+00 0.400E+00 0.316E+01   0.310E+00 0.237E-02 -.602E-01
   -.137E+03 -.243E+03 -.216E+03   0.143E+03 0.266E+03 0.234E+03   -.557E+01 -.162E+02 -.120E+02   0.275E+00 -.268E+00 0.145E+00
   -.261E+03 -.527E+02 -.251E+03   0.281E+03 0.531E+02 0.278E+03   -.128E+02 -.424E+00 -.128E+02   -.232E+00 -.171E-01 0.109E+00
   -.189E+03 -.183E+03 -.815E+02   0.204E+03 0.190E+03 0.838E+02   -.108E+02 -.510E+01 -.307E+01   0.632E-01 0.281E+00 -.529E-01
   -.120E+03 -.569E+02 0.381E+03   0.120E+03 0.512E+02 -.445E+03   -.258E+01 0.432E+00 0.208E+02   0.473E+00 0.236E+00 -.332E+00
   -.446E+02 -.225E+03 0.375E+02   0.465E+02 0.243E+03 -.409E+02   -.216E+01 -.106E+02 0.495E+01   0.299E+00 0.235E+00 -.797E-01
   -.276E+03 -.196E+02 0.682E+02   0.302E+03 0.224E+02 -.714E+02   -.130E+02 -.198E+01 0.452E+01   0.187E+00 -.599E-01 -.147E-01
   -.271E+03 -.192E+03 0.306E+03   0.301E+03 0.207E+03 -.341E+03   -.148E+02 -.103E+02 0.141E+02   -.307E+00 0.980E-01 0.773E-01
   -.569E+02 0.277E+03 -.588E+02   0.513E+02 -.307E+03 0.610E+02   0.259E+01 0.124E+02 -.215E+01   0.163E+00 0.130E+00 -.331E+00
   -.104E+03 0.586E+02 -.209E+03   0.105E+03 -.581E+02 0.225E+03   -.171E+01 0.933E+00 -.992E+01   0.169E+01 0.251E+00 -.110E+00
   -.255E+03 0.273E+03 -.211E+03   0.280E+03 -.303E+03 0.224E+03   -.153E+02 0.130E+02 -.639E+01   -.342E-01 0.135E-01 -.142E+00
   -.260E+03 -.159E+02 -.805E+02   0.284E+03 0.223E+02 0.833E+02   -.126E+02 -.364E+01 -.417E+01   0.118E+00 -.195E+00 -.134E+00
   -.590E+02 0.244E+03 0.143E+03   0.588E+02 -.263E+03 -.150E+03   -.781E+00 0.117E+02 0.453E+01   0.695E+00 -.323E+00 0.372E+00
   -.107E+03 0.932E+02 0.842E+02   0.112E+03 -.956E+02 -.869E+02   -.565E+01 0.263E+01 0.200E+01   0.200E+00 -.121E+00 0.234E+00
   -.135E+03 0.213E+03 0.476E+02   0.143E+03 -.234E+03 -.471E+02   -.634E+01 0.110E+02 -.122E+01   -.174E+00 0.362E-01 0.138E+00
   -.255E+03 0.568E+02 0.228E+03   0.276E+03 -.599E+02 -.245E+03   -.128E+02 0.357E+01 0.116E+02   0.431E+00 -.340E-01 0.423E-01
   0.214E+03 0.169E+02 -.868E+02   -.235E+03 -.238E+02 0.891E+02   0.120E+02 0.403E+01 -.256E+01   -.392E+00 -.415E-01 -.335E+00
   0.235E+03 -.180E+03 -.241E+03   -.250E+03 0.195E+03 0.253E+03   0.103E+02 -.951E+01 -.573E+01   -.248E+00 -.121E+00 -.136E+00
   0.162E+03 -.137E+03 -.283E+03   -.168E+03 0.141E+03 0.313E+03   0.491E+01 -.461E+01 -.168E+02   0.152E+00 0.145E+01 -.723E-01
   -.277E+02 -.153E+03 -.322E+02   0.357E+02 0.163E+03 0.335E+02   -.447E+01 -.816E+01 -.241E+01   -.141E+00 0.510E+00 -.605E-01
   0.177E+03 -.713E+02 0.317E+03   -.188E+03 0.730E+02 -.353E+03   0.754E+01 -.170E+01 0.189E+02   -.626E+00 -.229E+00 0.308E+00
   0.136E+03 -.196E+03 0.918E+02   -.146E+03 0.213E+03 -.976E+02   0.829E+01 -.108E+02 0.537E+01   -.329E+00 -.161E+00 0.174E+00
   0.136E+03 -.435E+02 -.720E+01   -.140E+03 0.390E+02 0.120E+02   0.455E+01 0.331E+01 -.370E+01   -.158E+00 -.194E+00 0.109E+00
   0.992E+02 -.221E+03 0.219E+03   -.103E+03 0.246E+03 -.242E+03   0.320E+01 -.124E+02 0.123E+02   0.257E+00 -.414E+00 -.491E-01
   0.215E+03 0.186E+03 -.606E+02   -.232E+03 -.201E+03 0.616E+02   0.111E+02 0.116E+02 -.776E+00   -.246E+00 -.118E-01 -.241E+00
   0.200E+03 -.162E+02 -.308E+03   -.208E+03 0.187E+02 0.349E+03   0.671E+01 -.198E+01 -.192E+02   -.219E+01 0.740E-01 0.539E+00
   0.363E+02 0.220E+03 -.198E+03   -.315E+02 -.236E+03 0.211E+03   -.416E+01 0.125E+02 -.745E+01   0.149E-01 -.187E+01 -.852E+00
   0.108E+03 0.669E+02 -.307E+02   -.111E+03 -.668E+02 0.301E+02   0.300E+01 0.354E+00 0.143E+01   -.106E+00 -.408E+00 -.163E+01
   0.270E+03 0.233E+03 0.224E+03   -.295E+03 -.250E+03 -.240E+03   0.159E+02 0.112E+02 0.809E+01   -.937E+00 0.255E+00 0.258E+00
   0.207E+03 0.605E+01 -.319E+01   -.226E+03 -.592E+01 0.664E+01   0.822E+01 0.348E+00 -.240E+01   -.113E+00 0.147E+00 0.288E-01
   0.853E+02 0.300E+03 0.754E+02   -.889E+02 -.329E+03 -.773E+02   0.355E+01 0.179E+02 -.315E+00   0.159E+00 0.239E+00 0.733E+00
   0.105E+03 0.665E+02 0.234E+03   -.107E+03 -.650E+02 -.257E+03   0.259E+01 -.973E+00 0.127E+02   -.270E+00 0.580E-01 0.245E+01
 -----------------------------------------------------------------------------------------------
   0.370E+02 -.324E+02 -.124E+02   0.909E-12 0.469E-12 -.171E-12   -.343E+02 0.329E+02 0.104E+02   -.270E+01 -.411E+00 0.201E+01
 
 
 POSITION                                       TOTAL-FORCE (eV/Angst)
 -----------------------------------------------------------------------------------
      0.16243      7.74772      7.75608         6.927118     19.810658     23.653236
      7.70160      2.14151      1.82482        11.130980     -1.580736      1.496638
      2.22945      7.73277      2.08688        -1.117959     17.619555     -1.042932
      2.03004      2.20118      7.60288         4.215921      4.043279     43.914286
      0.09009      7.74052      4.09766         2.657972     11.118709      0.407861
      7.71532      2.02818      6.21795         6.236711     -0.097729    -18.355092
      1.98581      7.76922      6.09620         0.365765      9.577629     -8.058028
      1.97045      1.98785      4.10868         0.387286      0.607126      0.380243
      0.01202      4.17167      0.03002         3.904294      0.422561      6.865499
      7.77367      6.05067      2.02004         7.559512     -3.387605      2.083131
      2.03408      4.16861      2.13887         0.437419     -0.692335      0.123757
      2.14808      6.19348      0.08851         0.775936     -8.435244      3.728982
      0.01600      4.19756      4.14151        12.334984      0.289307      0.494890
      7.60668      6.13430      6.24771        12.966354     -7.505918     -8.381874
      2.07798      4.18615      6.14268         0.481759     -0.783149     -5.704063
      2.03490      6.18357      4.15095         0.715928     -8.574767     -0.145027
      4.07556      0.00436      7.74690        -0.529132      5.335897     14.591982
      4.17975      2.01026      2.17742        -1.157445      0.915421     -1.042735
      6.20527      0.05936      1.94548        -5.541526      4.511242      0.099751
      6.18186      2.12903      7.71353        -7.318791     -0.741631     18.347003
      4.10748      7.73138      4.23732        -0.307530     11.229112     -0.091263
      4.30666      1.86917      6.28853        -2.438126      2.364653    -13.194165
      6.32768      0.03380      6.04499       -17.425894      7.608184    -11.862683
      6.25125      2.03688      4.04955       -13.829612     -1.776136     -0.329343
      4.16289      4.12372      0.00778        -0.937296     -0.741248      7.724334
      4.17178      6.18817      2.12323         0.199281     -3.663595      0.067425
      6.13391      3.86646      2.15885       -11.290935      1.841148      0.343551
      6.38362      6.20905      7.79888       -12.077514     -8.205509     10.848466
      4.32901      3.92031      4.04525        -1.407706      1.484187      0.937896
      4.20009      6.41775      6.14005        -0.996440    -15.642796     -6.206041
      6.16928      4.08731      6.29806        -9.272473      0.864450    -23.643485
      6.13619      6.23292      4.07796        -2.703690     -8.363105      0.328717
      2.02273      2.01657      2.16835        -0.039193      0.296931     -1.176012
      1.94498      7.79165      7.72111         1.043020      6.485110      5.871690
      0.00422      2.11325      7.69883         7.056295      0.032769     14.244955
      0.11447      0.09016      2.10522         4.159819      2.312648     -0.893752
      1.94324      2.07841      6.33090        -2.903823     -5.002627    -44.022059
      2.12918      7.78971      4.02118         0.017697      7.610155      1.444763
      7.73418      2.22422      4.11503        13.777019      0.734405      1.275222
      7.74520      0.01909      6.37494        14.426002      4.757178    -20.875662
      1.97953      6.29020      2.10627        -2.817477    -17.226680     -0.205466
      2.02516      4.15880      7.80134         0.081233      1.631039      6.170017
      0.11316      6.31690      0.21856         9.608518    -17.473018      6.568688
      7.66925      3.96553      2.00453        10.867936      2.533636     -1.591867
      2.07480      6.17682      6.09785        -0.312645     -8.003283     -1.899562
      2.09273      4.12213      4.22289        -0.492587      0.126542     -0.505680
      0.11989      6.18343      4.07242         1.560179     -9.867828     -0.555610
      7.74502      4.15229      6.17265         9.539319      0.421167     -5.450860
      6.13830      2.05823      1.91766        -9.074239     -2.939597     -0.578793
      6.19643      0.08462      7.72294        -4.871478      5.676233      6.587242
      4.14500      1.92374      7.80503        -1.185050      1.223763     12.840918
      3.94837      0.11214      2.09586         3.417809      2.402747     -1.166189
      6.04191      2.11003      6.24420        -3.805505     -0.254980    -16.096161
      6.10256      0.05206      3.99551        -2.115045      6.622972     -0.232445
      4.19013      2.05963      4.09129         0.087251     -1.427174      1.220644
      4.09977      0.08689      6.23996        -0.481610     12.782057    -10.760053
      6.15127      6.15301      2.05671        -6.356094     -3.055312      0.022766
      6.05272      4.05824      7.70919        -3.688072      0.602801     22.416297
      4.13482      6.13525      0.04952         0.651766     -5.280664      4.703574
      4.09247      4.20858      2.07633         0.115676      0.019821     -0.817866
      6.03766      6.19627      6.21524       -10.060088     -5.497215     -7.091575
      6.29424      4.09890      4.04821       -11.119570      0.628798      1.078655
      4.16622      6.18899      4.13801         0.139327    -10.895477     -1.561824
      4.10263      4.22598      6.20187        -0.171539      0.571466     -7.344910
 -----------------------------------------------------------------------------------
    total drift:                                0.025670      0.018435     -0.025600


--------------------------------------------------------------------------------------------------------



  FREE ENERGIE OF THE ION-ELECTRON SYSTEM (eV)
  ---------------------------------------------------
  free  energy   TOTEN  =      -312.8013333759 eV

  energy  without entropy=     -312.7412167875  energy(sigma->0) =     -312.77127508
 


--------------------------------------------------------------------------------------------------------


    POTLOK:  cpu time    0.1457: real time    0.1460


--------------------------------------------------------------------------------------------------------


     LOOP+:  cpu time14175.7438: real time14209.7074
    4ORBIT:  cpu time    0.0000: real time    0.0000

volume of typ            1:    42.8 %

volume of typ            2:    11.0 %
 
total charge     
 
# of ion       s       p       d       tot
------------------------------------------
    1        0.474   0.750   8.365   9.589
    2        0.283   0.373   8.137   8.793
    3        0.343   0.468   8.144   8.954
    4        0.396   0.527   8.338   9.261
    5        0.294   0.380   8.187   8.860
    6        0.339   0.478   8.260   9.077
    7        0.323   0.420   8.209   8.953
    8        0.191   0.198   8.002   8.391
    9        0.275   0.361   8.177   8.813
   10        0.284   0.387   8.140   8.811
   11        0.176   0.177   8.014   8.367
   12        0.287   0.382   8.133   8.801
   13        0.284   0.366   8.117   8.767
   14        0.321   0.483   8.327   9.131
   15        0.256   0.318   8.069   8.643
   16        0.267   0.347   8.108   8.722
   17        0.338   0.463   8.228   9.029
   18        0.203   0.231   8.011   8.446
   19        0.271   0.347   8.123   8.741
   20        0.367   0.537   8.256   9.160
   21        0.283   0.366   8.149   8.799
   22        0.312   0.421   8.188   8.921
   23        0.383   0.577   8.315   9.275
   24        0.297   0.377   8.174   8.848
   25        0.259   0.321   8.011   8.590
   26        0.234   0.283   8.094   8.611
   27        0.298   0.390   8.160   8.847
   28        0.365   0.562   8.291   9.219
   29        0.201   0.221   8.019   8.440
   30        0.331   0.486   8.215   9.031
   31        0.401   0.558   8.306   9.265
   32        0.278   0.366   8.149   8.793
   33        1.262   2.759   0.005   4.026
   34        1.274   2.924   0.027   4.225
   35        1.273   2.966   0.035   4.274
   36        1.273   2.842   0.014   4.128
   37        1.292   2.955   0.044   4.291
   38        1.263   2.869   0.018   4.150
   39        1.269   2.874   0.021   4.163
   40        1.293   3.073   0.062   4.428
   41        1.268   2.899   0.025   4.192
   42        1.258   2.848   0.014   4.121
   43        1.282   3.012   0.048   4.341
   44        1.262   2.888   0.022   4.172
   45        1.264   2.894   0.021   4.178
   46        1.258   2.782   0.006   4.046
   47        1.263   2.905   0.025   4.192
   48        1.267   2.920   0.025   4.212
   49        1.256   2.903   0.023   4.182
   50        1.287   2.916   0.025   4.228
   51        1.266   2.875   0.021   4.162
   52        1.259   2.860   0.015   4.134
   53        1.274   2.978   0.037   4.289
   54        1.264   2.878   0.021   4.163
   55        1.256   2.798   0.008   4.062
   56        1.275   2.995   0.045   4.315
   57        1.267   2.888   0.021   4.176
   58        1.278   2.956   0.037   4.271
   59        1.268   2.868   0.018   4.154
   60        1.256   2.785   0.007   4.048
   61        1.280   2.970   0.039   4.288
   62        1.264   2.887   0.021   4.171
   63        1.263   2.868   0.020   4.152
   64        1.266   2.832   0.013   4.112
--------------------------------------------------
tot          50.21  105.59  262.20  418.00
 
magnetization (x)
 
# of ion       s       p       d       tot
------------------------------------------
    1        0.000   0.003   0.014   0.017
    2       -0.001   0.001   0.068   0.068
    3        0.004   0.005   0.259   0.267
    4        0.007   0.006   0.121   0.134
    5        0.001  -0.001  -0.098  -0.098
    6        0.001   0.000   0.001   0.002
    7        0.003   0.001  -0.035  -0.031
    8        0.001  -0.001  -1.062  -1.062
    9        0.004   0.003  -0.034  -0.027
   10        0.000   0.002   0.356   0.358
   11        0.003   0.001  -1.139  -1.135
   12        0.002   0.001   0.006   0.009
   13        0.004   0.003   0.510   0.517
   14        0.000   0.001  -0.018  -0.017
   15        0.003  -0.001   0.540   0.542
   16       -0.000   0.000   0.382   0.383
   17        0.003   0.001  -0.017  -0.014
   18       -0.001  -0.003  -1.041  -1.044
   19        0.001   0.001   0.138   0.140
   20        0.000  -0.001  -0.047  -0.048
   21        0.002   0.002   0.345   0.349
   22        0.001   0.004   0.203   0.208
   23       -0.000  -0.001  -0.052  -0.053
   24        0.006   0.003   0.324   0.332
   25        0.003   0.001   0.361   0.365
   26       -0.001  -0.002   0.031   0.028
   27        0.003   0.005   0.300   0.307
   28       -0.000  -0.000   0.003   0.003
   29        0.003  -0.003  -1.073  -1.073
   30        0.001  -0.000   0.000   0.001
   31        0.002   0.000  -0.067  -0.066
   32        0.002   0.001  -0.043  -0.039
   33       -0.007  -0.103  -0.000  -0.111
   34        0.001   0.001   0.000   0.002
   35        0.002   0.002   0.000   0.004
   36        0.005   0.028   0.000   0.033
   37       -0.001   0.027   0.000   0.026
   38        0.003   0.028   0.000   0.032
   39        0.001   0.018   0.000   0.020
   40        0.000  -0.005   0.000  -0.005
   41       -0.000   0.002   0.000   0.002
   42        0.001  -0.001   0.000  -0.000
   43        0.003   0.013   0.000   0.016
   44        0.002   0.018   0.000   0.021
   45        0.004   0.012   0.000   0.017
   46       -0.004  -0.053  -0.000  -0.057
   47        0.005   0.023   0.000   0.029
   48        0.004   0.017  -0.000   0.021
   49       -0.003   0.008   0.000   0.005
   50       -0.000  -0.001  -0.000  -0.002
   51       -0.001   0.022   0.000   0.021
   52       -0.002  -0.003  -0.000  -0.005
   53        0.002   0.001   0.000   0.002
   54        0.004   0.018   0.000   0.022
   55       -0.007  -0.090  -0.000  -0.097
   56        0.002   0.013  -0.000   0.015
   57        0.002   0.003   0.000   0.004
   58        0.004   0.002   0.000   0.006
   59        0.003   0.009   0.000   0.012
   60       -0.007  -0.080  -0.000  -0.087
   61       -0.001  -0.014   0.000  -0.015
   62        0.004   0.036   0.001   0.041
   63       -0.000   0.021   0.000   0.021
   64        0.003   0.016   0.000   0.020
--------------------------------------------------
tot           0.08    0.02   -0.76   -0.66
 

 total amount of memory used by VASP MPI-rank0   435270. kBytes
=======================================================================

   base      :      30000. kBytes
   nonlr-proj:      42121. kBytes
   fftplans  :       4751. kBytes
   grid      :      26734. kBytes
   one-center:       1990. kBytes
   wavefun   :     329674. kBytes
 
  
  
 General timing and accounting informations for this job:
 ========================================================
  
                  Total CPU time used (sec):    14255.941
                            User time (sec):    14242.886
                          System time (sec):       13.056
                         Elapsed time (sec):    14293.510
  
                   Maximum memory used (kb):      560924.
                   Average memory used (kb):           0.
  
                          Minor page faults:        42499
                          Major page faults:           12
                 Voluntary context switches:         1183
