 vasp.5.4.4.18Apr17-6-g9f103f2a35 (build May 12 2020 04:58:55) complex          
  
 MD_VERSION_INFO: Compiled 2020-05-12T11:58:55-UTC in devlin.sd.materialsdesign.
 com:/home/medea2/data/build/wwolf/vasp-gpu5.4.4/13047/x86_64/src/src/build/std 
 from svn 13047
 
 This VASP executable licensed from Materials Design, Inc.
 
 executed on                        Lin64 date 2023.03.24  03:29:27
 running on   16 total cores
 distrk:  each k-point on   16 cores,    1 groups
 distr:  one band on NCORES_PER_BAND=   1 cores,   16 groups


--------------------------------------------------------------------------------------------------------


 INCAR:
 POTCAR:    PAW_PBE Ni 02Aug2007                  
 POTCAR:    PAW_PBE O 08Apr2002                   

 ----------------------------------------------------------------------------- 
|                                                                             |
|           W    W    AA    RRRRR   N    N  II  N    N   GGGG   !!!           |
|           W    W   A  A   R    R  NN   N  II  NN   N  G    G  !!!           |
|           W    W  A    A  R    R  N N  N  II  N N  N  G       !!!           |
|           W WW W  AAAAAA  RRRRR   N  N N  II  N  N N  G  GGG   !            |
|           WW  WW  A    A  R   R   N   NN  II  N   NN  G    G                |
|           W    W  A    A  R    R  N    N  II  N    N   GGGG   !!!           |
|                                                                             |
|      For optimal performance we recommend to set                            |
|        NCORE= 4 - approx SQRT( number of cores)                             |
|      NCORE specifies how many cores store one orbital (NPAR=cpu/NCORE).     |
|      This setting can  greatly improve the performance of VASP for DFT.     |
|      The default,   NCORE=1            might be grossly inefficient         |
|      on modern multi-core architectures or massively parallel machines.     |
|      Do your own testing !!!!                                               |
|      Unfortunately you need to use the default for GW and RPA calculations. |
|      (for HF NCORE is supported but not extensively tested yet)             |
|                                                                             |
 ----------------------------------------------------------------------------- 

 POTCAR:    PAW_PBE Ni 02Aug2007                  
  local pseudopotential read in
  partial core-charges read in
  partial kinetic energy density read in
  atomic valenz-charges read in
  non local Contribution for L=           2  read in
    real space projection operators read in
  non local Contribution for L=           2  read in
    real space projection operators read in
  non local Contribution for L=           0  read in
    real space projection operators read in
  non local Contribution for L=           0  read in
    real space projection operators read in
  non local Contribution for L=           1  read in
    real space projection operators read in
  non local Contribution for L=           1  read in
    real space projection operators read in
    PAW grid and wavefunctions read in
 
   number of l-projection  operators is LMAX  =           6
   number of lm-projection operators is LMMAX =          18
 
 POTCAR:    PAW_PBE O 08Apr2002                   
  local pseudopotential read in
  partial core-charges read in
  partial kinetic energy density read in
  kinetic energy density of atom read in
  atomic valenz-charges read in
  non local Contribution for L=           0  read in
    real space projection operators read in
  non local Contribution for L=           0  read in
    real space projection operators read in
  non local Contribution for L=           1  read in
    real space projection operators read in
  non local Contribution for L=           1  read in
    real space projection operators read in
    PAW grid and wavefunctions read in
 
   number of l-projection  operators is LMAX  =           4
   number of lm-projection operators is LMMAX =           8
 
 Optimization of the real space projectors (new method)

 maximal supplied QI-value         = 16.25
 optimisation between [QCUT,QGAM] = [ 11.38, 22.75] = [ 36.24,144.96] Ry 
 Optimized for a Real-space Cutoff    1.47 Angstroem

   l    n(q)    QCUT    max X(q) W(low)/X(q) W(high)/X(q)  e(spline) 
   2      9    11.376    60.317    0.17E-03    0.16E-04    0.16E-06
   2      9    11.376    55.921    0.17E-03    0.16E-04    0.17E-06
   0     10    11.376    51.690    0.45E-04    0.60E-04    0.21E-06
   0     10    11.376    30.015    0.37E-04    0.55E-04    0.19E-06
   1     10    11.376    18.849    0.83E-04    0.11E-03    0.92E-07
   1     10    11.376    14.624    0.69E-04    0.92E-04    0.82E-07
 Optimization of the real space projectors (new method)

 maximal supplied QI-value         = 24.76
 optimisation between [QCUT,QGAM] = [ 11.39, 22.77] = [ 36.31,145.25] Ry 
 Optimized for a Real-space Cutoff    1.10 Angstroem

   l    n(q)    QCUT    max X(q) W(low)/X(q) W(high)/X(q)  e(spline) 
   0      7    11.387    20.381    0.22E-03    0.48E-03    0.18E-06
   0      7    11.387    15.268    0.22E-03    0.52E-03    0.19E-06
   1      7    11.387     5.964    0.22E-03    0.73E-03    0.24E-06
   1      7    11.387     5.382    0.19E-03    0.60E-03    0.21E-06

 ----------------------------------------------------------------------------- 
|                                                                             |
|  ADVICE TO THIS USER RUNNING 'VASP/VAMP'   (HEAR YOUR MASTER'S VOICE ...):  |
|                                                                             |
|      You enforced a specific xc-type in the INCAR file,                     |
|      a different type was found on the POTCAR file                          |
|          I HOPE YOU KNOW, WHAT YOU ARE  DOING                               |
|                                                                             |
 ----------------------------------------------------------------------------- 

  PAW_PBE Ni 02Aug2007                  :
 energy of atom  1       EATOM=-1077.6739
 kinetic energy error for atom=    0.0030 (will be added to EATOM!!)
  PAW_PBE O 08Apr2002                   :
 energy of atom  2       EATOM= -432.3788
 kinetic energy error for atom=    0.0224 (will be added to EATOM!!)
 
 
 POSCAR: NiO_Cmmm_scale_1_025_disp_0_10_round_2  
  positions in direct lattice
  No initial velocities read in
 exchange correlation table for  LEXCH =       14
   RHO(1)=    0.500       N(1)  =     2000
   RHO(2)=  100.500       N(2)  =     4000
 


--------------------------------------------------------------------------------------------------------


 ion  position               nearest neighbor table
   1  1.000  0.009  0.018-  28 1.59  30 2.13   4 2.84  13 2.91  10 3.06
   2  0.014  0.011  0.333-  29 1.59  28 1.78  11 2.80   5 2.92  14 2.96  20 3.05
   3  0.988  0.008  0.660-  30 1.67  29 1.89  15 2.81   6 2.83  12 2.97  21 3.00   9 3.05
   4  0.998  0.323  0.998-  31 1.88  33 1.98  13 2.81   1 2.84  19 2.91   7 2.99
   5  0.974  0.314  0.345-  32 1.45  31 1.80  20 2.72   8 2.85   2 2.92   6 3.05  23 3.07  17 3.08

   6  0.993  0.324  0.633-  32 1.61  33 1.92   3 2.83  18 2.93  15 2.94  21 2.99   5 3.05
   7  0.979  0.645  0.996-  34 1.60  36 1.94  22 2.88   4 2.99  25 3.04
   8  0.983  0.634  0.323-  34 1.88  35 2.03   5 2.85  23 2.91  17 2.96  26 3.00
   9  0.949  0.651  0.647-  35 1.43  36 1.79  27 2.70  24 2.94   3 3.05
  10  0.338  0.011  0.985-  37 1.72  39 1.87  22 2.86  19 2.88  13 3.04   1 3.06
  11  0.327  0.015  0.325-  38 1.72  37 1.89  14 2.79   2 2.80  23 2.84
  12  0.312  0.996  0.654-  39 1.66  38 1.78  15 2.82  24 2.88   3 2.97  21 3.04  18 3.05
  13  0.317  0.337  0.002-  40 1.86  42 1.94  25 2.81   4 2.81  16 2.82   1 2.91  22 2.99  10 3.04
                            14 3.08
  14  0.345  0.331  0.292-  40 1.23  41 2.16  23 2.70  26 2.73  11 2.79   2 2.96  17 3.06  13 3.08

  15  0.311  0.309  0.653-  41 1.67  42 1.77   3 2.81  12 2.82  24 2.87   6 2.94  27 3.00
  16  0.346  0.663  0.018-  43 1.32  45 2.23  25 2.75  13 2.82  19 3.02
  17  0.320  0.653  0.341-  44 1.47  43 2.12   8 2.96  14 3.06  26 3.06   5 3.08
  18  0.311  0.657  0.646-  45 1.72  44 1.78   6 2.93  12 3.05
  19  0.661  0.014  0.992-  46 1.75  48 1.78  10 2.88   4 2.91  22 2.95  16 3.02
  20  0.674  0.009  0.336-  47 1.57  46 1.93   5 2.72   2 3.05  23 3.06
  21  0.653  0.002  0.644-  47 1.69  48 1.92  24 2.90   6 2.99   3 3.00  12 3.04
  22  0.649  0.335  0.999-  49 1.76  51 1.99  25 2.79  10 2.86   7 2.88  19 2.95  13 2.99
  23  0.642  0.332  0.330-  50 1.74  49 1.74  26 2.66  14 2.70  11 2.84   8 2.91  20 3.06   5 3.07

  24  0.633  0.315  0.637-  50 1.53  51 1.84  15 2.87  12 2.88  27 2.88  21 2.90   9 2.94
  25  0.639  0.640  0.000-  52 1.72  54 2.05  16 2.75  22 2.79  13 2.81   7 3.04
  26  0.648  0.630  0.328-  52 1.77  53 1.82  23 2.66  14 2.73   8 3.00  17 3.06
  27  0.645  0.641  0.626-  53 1.35  54 1.92   9 2.70  24 2.88  15 3.00
  28  0.981  0.009  0.167-   1 1.59   2 1.78
  29  0.989  0.998  0.482-   2 1.59   3 1.89
  30  0.990  0.005  0.817-   3 1.67   1 2.13
  31  0.993  0.322  0.175-   5 1.80   4 1.88
  32  0.974  0.328  0.482-   5 1.45   6 1.61
  33  0.972  0.336  0.813-   6 1.92   4 1.98
  34  0.984  0.658  0.146-   7 1.60   8 1.88
  35  0.957  0.635  0.513-   9 1.43   8 2.03
  36  0.948  0.621  0.814-   9 1.79   7 1.94
  37  0.336  0.033  0.147-  10 1.72  11 1.89
  38  0.338  0.003  0.487-  11 1.72  12 1.78
  39  0.328  0.986  0.809-  12 1.66  10 1.87
  40  0.320  0.329  0.178-  14 1.23  13 1.86
  41  0.327  0.325  0.496-  15 1.67  14 2.16
  42  0.315  0.328  0.819-  15 1.77  13 1.94
  43  0.321  0.648  0.141-  16 1.32  17 2.12
  44  0.340  0.675  0.479-  17 1.47  18 1.78
  45  0.338  0.679  0.808-  18 1.72  16 2.23
  46  0.639  0.003  0.156-  19 1.75  20 1.93
  47  0.664  0.002  0.485-  20 1.57  21 1.69
  48  0.647  0.989  0.825-  19 1.78  21 1.92
  49  0.647  0.326  0.165-  23 1.74  22 1.76
  50  0.648  0.330  0.494-  24 1.53  23 1.74
  51  0.640  0.318  0.811-  24 1.84  22 1.99
  52  0.641  0.651  0.162-  25 1.72  26 1.77
  53  0.651  0.652  0.499-  27 1.35  26 1.82
  54  0.650  0.660  0.807-  27 1.92  25 2.05
 
  LATTYP: Found a hexagonal cell.
 ALAT       =     8.9938830029
 C/A-ratio  =     1.1769065427
  
  Lattice vectors:
  
 A1 = (   8.9938830000,   0.0000000000,   0.0000000000)
 A2 = (  -4.4969415000,   7.7889311600,   0.0000000000)
 A3 = (   0.0000000000,   0.0000000000,  10.5849597500)


Analysis of symmetry for initial positions (statically):
=====================================================================
 Subroutine PRICEL returns:
 Original cell was already a primitive cell.
 

 Routine SETGRP: Setting up the symmetry group for a 
 hexagonal supercell.


 Subroutine GETGRP returns: Found  1 space group operations
 (whereof  1 operations were pure point group operations)
 out of a pool of 24 trial point group operations.


The static configuration has the point symmetry C_1 .


Analysis of symmetry for dynamics (positions and initial velocities):
=====================================================================
 Subroutine PRICEL returns:
 Original cell was already a primitive cell.
 

 Routine SETGRP: Setting up the symmetry group for a 
 hexagonal supercell.


 Subroutine GETGRP returns: Found  1 space group operations
 (whereof  1 operations were pure point group operations)
 out of a pool of 24 trial point group operations.


The dynamic configuration has the point symmetry C_1 .


Analysis of structural, dynamic, and magnetic symmetry:
=====================================================================
 Subroutine PRICEL returns:
 Original cell was already a primitive cell.
 

 Routine SETGRP: Setting up the symmetry group for a 
 hexagonal supercell.


 Subroutine GETGRP returns: Found  1 space group operations
 (whereof  1 operations were pure point group operations)
 out of a pool of 24 trial point group operations.


The magnetic configuration has the point symmetry C_1 .


 Subroutine INISYM returns: Found  1 space group operations
 (whereof  1 operations are pure point group operations),
 and found     1 'primitive' translations

 
 
 KPOINTS: Automatic mesh                          

Automatic generation of k-mesh.
Space group operators:
 irot       det(A)        alpha          n_x          n_y          n_z        tau_x        tau_y        tau_z
    1     1.000000     0.000000     1.000000     0.000000     0.000000     0.000000     0.000000     0.000000
 
 Subroutine IBZKPT returns following result:
 ===========================================
 
 Found     26 irreducible k-points:
 
 Following reciprocal coordinates:
            Coordinates               Weight
  0.000000  0.000000  0.000000      1.000000
  0.250000 -0.000000  0.000000      2.000000
  0.500000 -0.000000  0.000000      1.000000
  0.000000  0.250000  0.000000      2.000000
  0.250000  0.250000  0.000000      2.000000
  0.500000  0.250000  0.000000      2.000000
 -0.250000  0.250000  0.000000      2.000000
  0.000000  0.500000  0.000000      1.000000
  0.250000  0.500000  0.000000      2.000000
  0.500000  0.500000  0.000000      1.000000
  0.000000  0.000000  0.333333      2.000000
  0.250000 -0.000000  0.333333      2.000000
  0.500000 -0.000000  0.333333      2.000000
 -0.250000  0.000000  0.333333      2.000000
  0.000000  0.250000  0.333333      2.000000
  0.250000  0.250000  0.333333      2.000000
  0.500000  0.250000  0.333333      2.000000
 -0.250000  0.250000  0.333333      2.000000
  0.000000  0.500000  0.333333      2.000000
  0.250000  0.500000  0.333333      2.000000
  0.500000  0.500000  0.333333      2.000000
 -0.250000  0.500000  0.333333      2.000000
  0.000000 -0.250000  0.333333      2.000000
  0.250000 -0.250000  0.333333      2.000000
  0.500000 -0.250000  0.333333      2.000000
 -0.250000 -0.250000  0.333333      2.000000
 
 Following cartesian coordinates:
            Coordinates               Weight
  0.000000  0.000000  0.000000      1.000000
  0.027797  0.016048  0.000000      2.000000
  0.055593  0.032097  0.000000      1.000000
  0.000000  0.032097  0.000000      2.000000
  0.027797  0.048145  0.000000      2.000000
  0.055593  0.064194  0.000000      2.000000
 -0.027797  0.016048  0.000000      2.000000
  0.000000  0.064194  0.000000      1.000000
  0.027797  0.080242  0.000000      2.000000
  0.055593  0.096290  0.000000      1.000000
  0.000000  0.000000  0.031491      2.000000
  0.027797  0.016048  0.031491      2.000000
  0.055593  0.032097  0.031491      2.000000
 -0.027797 -0.016048  0.031491      2.000000
  0.000000  0.032097  0.031491      2.000000
  0.027797  0.048145  0.031491      2.000000
  0.055593  0.064194  0.031491      2.000000
 -0.027797  0.016048  0.031491      2.000000
  0.000000  0.064194  0.031491      2.000000
  0.027797  0.080242  0.031491      2.000000
  0.055593  0.096290  0.031491      2.000000
 -0.027797  0.048145  0.031491      2.000000
  0.000000 -0.032097  0.031491      2.000000
  0.027797 -0.016048  0.031491      2.000000
  0.055593  0.000000  0.031491      2.000000
 -0.027797 -0.048145  0.031491      2.000000
 


--------------------------------------------------------------------------------------------------------




 Dimension of arrays:
   k-points           NKPTS =     26   k-points in BZ     NKDIM =     26   number of bands    NBANDS=    304
   number of dos      NEDOS =    301   number of ions     NIONS =     54
   non local maximal  LDIM  =      6   non local SUM 2l+1 LMDIM =     18
   total plane-waves  NPLWV = 392000
   max r-space proj   IRMAX =   7147   max aug-charges    IRDMAX=  17334
   dimension x,y,z NGX =    70 NGY =   70 NGZ =   80
   dimension x,y,z NGXF=   140 NGYF=  140 NGZF=  160
   support grid    NGXF=   140 NGYF=  140 NGZF=  160
   ions per type =              27  27
   NGX,Y,Z   is equivalent  to a cutoff of  12.94, 12.94, 12.56 a.u.
   NGXF,Y,Z  is equivalent  to a cutoff of  25.88, 25.88, 25.13 a.u.

 SYSTEM =  unknown system                          
 POSCAR =  NiO_Cmmm_scale_1_025_disp_0_10_round_2  

 Startparameter for this run:
   NWRITE =      1    write-flag & timer
   PREC   = accura    normal or accurate (medium, high low for compatibility)
   ISTART =      0    job   : 0-new  1-cont  2-samecut
   ICHARG =      2    charge: 1-file 2-atom 10-const
   ISPIN  =      2    spin polarized calculation?
   LNONCOLLINEAR =      F non collinear calculations
   LSORBIT =      F    spin-orbit coupling
   INIWAV =      1    electr: 0-lowe 1-rand  2-diag
   LASPH  =      F    aspherical Exc in radial PAW
   METAGGA=      F    non-selfconsistent MetaGGA calc.

 Electronic Relaxation 1
   ENCUT  =  500.0 eV  36.75 Ry    6.06 a.u.  16.40 16.40 19.30*2*pi/ulx,y,z
   ENINI  =  500.0     initial cutoff
   ENAUG  =  605.4 eV  augmentation charge cutoff
   NELM   =     80;   NELMIN=  2; NELMDL= -5     # of ELM steps 
   EDIFF  = 0.1E-04   stopping-criterion for ELM
   LREAL  =      T    real-space projection
   NLSPLINE    = F    spline interpolate recip. space projectors
   LCOMPAT=      F    compatible to vasp.4.4
   GGA_COMPAT  = T    GGA compatible to vasp.4.4-vasp.4.6
   LMAXPAW     = -100 max onsite density
   LMAXMIX     =    2 max onsite mixed and CHGCAR
   VOSKOWN=      1    Vosko Wilk Nusair interpolation
   ROPT   =   -0.00025  -0.00025
 Ionic relaxation
   EDIFFG = 0.1E-03   stopping-criterion for IOM
   NSW    =      0    number of steps for IOM
   NBLOCK =      1;   KBLOCK =      1    inner block; outer block 
   IBRION =     -1    ionic relax: 0-MD 1-quasi-New 2-CG
   NFREE  =      0    steps in history (QN), initial steepest desc. (CG)
   ISIF   =      2    stress and relaxation
   IWAVPR =     10    prediction:  0-non 1-charg 2-wave 3-comb
   ISYM   =      2    0-nonsym 1-usesym 2-fastsym
   LCORR  =      T    Harris-Foulkes like correction to forces

   POTIM  = 0.5000    time-step for ionic-motion
   TEIN   =    0.0    initial temperature
   TEBEG  =    0.0;   TEEND  =   0.0 temperature during run
   SMASS  =  -3.00    Nose mass-parameter (am)
   estimated Nose-frequenzy (Omega)   =  0.10E-29 period in steps =****** mass=  -0.185E-26a.u.
   SCALEE = 1.0000    scale energy and forces
   NPACO  =    256;   APACO  = 16.0  distance and # of slots for P.C.
   PSTRESS=    0.0 pullay stress

  Mass of Ions in am
   POMASS =  58.69 16.00
  Ionic Valenz
   ZVAL   =  10.00  6.00
  Atomic Wigner-Seitz radii
   RWIGS  =   1.15  0.73
  virtual crystal weights 
   VCA    =   1.00  1.00
   NELECT =     432.0000    total number of electrons
   NUPDOWN=      -1.0000    fix difference up-down

 DOS related values:
   EMIN   =  10.00;   EMAX   =-10.00  energy-range for DOS
   EFERMI =   0.00
   ISMEAR =     0;   SIGMA  =   0.05  broadening in eV -4-tet -1-fermi 0-gaus

 Electronic relaxation 2 (details)
   IALGO  =     38    algorithm
   LDIAG  =      T    sub-space diagonalisation (order eigenvalues)
   LSUBROT=      F    optimize rotation matrix (better conditioning)
   TURBO    =      0    0=normal 1=particle mesh
   IRESTART =      0    0=no restart 2=restart with 2 vectors
   NREBOOT  =      0    no. of reboots
   NMIN     =      0    reboot dimension
   EREF     =   0.00    reference energy to select bands
   IMIX   =      4    mixing-type and parameters
     AMIX     =   0.40;   BMIX     =  1.00
     AMIX_MAG =   1.60;   BMIX_MAG =  1.00
     AMIN     =   0.10
     WC   =   100.;   INIMIX=   1;  MIXPRE=   1;  MAXMIX= -45

 Intra band minimization:
   WEIMIN = 0.0000     energy-eigenvalue tresh-hold
   EBREAK =  0.82E-08  absolut break condition
   DEPER  =   0.30     relativ break condition  

   TIME   =   0.40     timestep for ELM

  volume/ion in A,a.u.               =      13.73        92.67
  Fermi-wavevector in a.u.,A,eV,Ry     =   1.367303  2.583827 25.436315  1.869516
  Thomas-Fermi vector in A             =   2.493367
 
 Write flags
   LWAVE        =      F    write WAVECAR
   LDOWNSAMPLE  =      F    k-point downsampling of WAVECAR
   LCHARG       =      T    write CHGCAR
   LVTOT        =      F    write LOCPOT, total local potential
   LVHAR        =      F    write LOCPOT, Hartree potential only
   LELF         =      F    write electronic localiz. function (ELF)
   LORBIT       =      0    0 simple, 1 ext, 2 COOP (PROOUT), +10 PAW based schemes


 Dipole corrections
   LMONO  =      F    monopole corrections only (constant potential shift)
   LDIPOL =      F    correct potential (dipole corrections)
   IDIPOL =      0    1-x, 2-y, 3-z, 4-all directions 
   EPSILON=  1.0000000 bulk dielectric constant

 Exchange correlation treatment:
   GGA     =    PS    GGA type
   LEXCH   =    14    internal setting for exchange type
   VOSKOWN=      1    Vosko Wilk Nusair interpolation
   LHFCALC =     F    Hartree Fock is set to
   LHFONE  =     F    Hartree Fock one center treatment
   AEXX    =    0.0000 exact exchange contribution

 Linear response parameters
   LEPSILON=     F    determine dielectric tensor
   LRPA    =     F    only Hartree local field effects (RPA)
   LNABLA  =     F    use nabla operator in PAW spheres
   LVEL    =     F    velocity operator in full k-point grid
   LINTERFAST=   F  fast interpolation
   KINTER  =     0    interpolate to denser k-point grid
   CSHIFT  =0.1000    complex shift for real part using Kramers Kronig
   OMEGAMAX=  -1.0    maximum frequency
   DEG_THRESHOLD= 0.2000000E-02 threshold for treating states as degnerate
   RTIME   =   -0.100 relaxation time in fs
  (WPLASMAI=    0.000 imaginary part of plasma frequency in eV, 0.658/RTIME)
   DFIELD  = 0.0000000 0.0000000 0.0000000 field for delta impulse in time
 
 Orbital magnetization related:
   ORBITALMAG=     F  switch on orbital magnetization
   LCHIMAG   =     F  perturbation theory with respect to B field
   DQ        =  0.001000  dq finite difference perturbation B field
   LLRAUG    =     F  two centre corrections for induced B field



--------------------------------------------------------------------------------------------------------


 Static calculation
 charge density and potential will be updated during run
 spin polarized calculation
 Variant of blocked Davidson
 Davidson routine will perform the subspace rotation
 perform sub-space diagonalisation
    after iterative eigenvector-optimisation
 modified Broyden-mixing scheme, WC =      100.0
 initial mixing is a Kerker type mixing with AMIX =  0.4000 and BMIX =      1.0000
 Hartree-type preconditioning will be used
 using additional bands           88
 real space projection scheme for non local part
 use partial core corrections
 calculate Harris-corrections to forces 
   (improved forces if not selfconsistent)
 use gradient corrections 
 use of overlap-Matrix (Vanderbilt PP)
 Gauss-broadening in eV      SIGMA  =   0.05


--------------------------------------------------------------------------------------------------------


  energy-cutoff  :      500.00
  volume of cell :      741.51
      direct lattice vectors                 reciprocal lattice vectors
     8.993883000  0.000000000  0.000000000     0.111186681  0.064193660  0.000000000
    -4.496941500  7.788931160  0.000000000     0.000000000  0.128387320  0.000000000
     0.000000000  0.000000000 10.584959750     0.000000000  0.000000000  0.094473671

  length of vectors
     8.993883000  8.993883003 10.584959750     0.128387320  0.128387320  0.094473671


 
 k-points in units of 2pi/SCALE and weight: Automatic mesh                          
   0.00000000  0.00000000  0.00000000       0.021
   0.02779667  0.01604842  0.00000000       0.042
   0.05559334  0.03209683  0.00000000       0.021
   0.00000000  0.03209683  0.00000000       0.042
   0.02779667  0.04814525  0.00000000       0.042
   0.05559334  0.06419366  0.00000000       0.042
  -0.02779667  0.01604842  0.00000000       0.042
   0.00000000  0.06419366  0.00000000       0.021
   0.02779667  0.08024208  0.00000000       0.042
   0.05559334  0.09629049  0.00000000       0.021
   0.00000000  0.00000000  0.03149122       0.042
   0.02779667  0.01604842  0.03149122       0.042
   0.05559334  0.03209683  0.03149122       0.042
  -0.02779667 -0.01604842  0.03149122       0.042
   0.00000000  0.03209683  0.03149122       0.042
   0.02779667  0.04814525  0.03149122       0.042
   0.05559334  0.06419366  0.03149122       0.042
  -0.02779667  0.01604842  0.03149122       0.042
   0.00000000  0.06419366  0.03149122       0.042
   0.02779667  0.08024208  0.03149122       0.042
   0.05559334  0.09629049  0.03149122       0.042
  -0.02779667  0.04814525  0.03149122       0.042
   0.00000000 -0.03209683  0.03149122       0.042
   0.02779667 -0.01604842  0.03149122       0.042
   0.05559334  0.00000000  0.03149122       0.042
  -0.02779667 -0.04814525  0.03149122       0.042
 
 k-points in reciprocal lattice and weights: Automatic mesh                          
   0.00000000  0.00000000  0.00000000       0.021
   0.25000000 -0.00000000  0.00000000       0.042
   0.50000000 -0.00000000  0.00000000       0.021
   0.00000000  0.25000000  0.00000000       0.042
   0.25000000  0.25000000  0.00000000       0.042
   0.50000000  0.25000000  0.00000000       0.042
  -0.25000000  0.25000000  0.00000000       0.042
   0.00000000  0.50000000  0.00000000       0.021
   0.25000000  0.50000000  0.00000000       0.042
   0.50000000  0.50000000  0.00000000       0.021
   0.00000000  0.00000000  0.33333333       0.042
   0.25000000 -0.00000000  0.33333333       0.042
   0.50000000 -0.00000000  0.33333333       0.042
  -0.25000000  0.00000000  0.33333333       0.042
   0.00000000  0.25000000  0.33333333       0.042
   0.25000000  0.25000000  0.33333333       0.042
   0.50000000  0.25000000  0.33333333       0.042
  -0.25000000  0.25000000  0.33333333       0.042
   0.00000000  0.50000000  0.33333333       0.042
   0.25000000  0.50000000  0.33333333       0.042
   0.50000000  0.50000000  0.33333333       0.042
  -0.25000000  0.50000000  0.33333333       0.042
   0.00000000 -0.25000000  0.33333333       0.042
   0.25000000 -0.25000000  0.33333333       0.042
   0.50000000 -0.25000000  0.33333333       0.042
  -0.25000000 -0.25000000  0.33333333       0.042
 
 position of ions in fractional coordinates (direct lattice) 
   0.99989043  0.00906456  0.01810101
   0.01418687  0.01132388  0.33284056
   0.98819340  0.00837348  0.65971490
   0.99776063  0.32265966  0.99765327
   0.97367623  0.31370067  0.34521190
   0.99344738  0.32445382  0.63305551
   0.97915174  0.64516546  0.99561553
   0.98286932  0.63419045  0.32276861
   0.94860013  0.65134206  0.64655888
   0.33841845  0.01062895  0.98495009
   0.32745208  0.01514316  0.32513412
   0.31173900  0.99616624  0.65394772
   0.31747799  0.33706804  0.00219761
   0.34489953  0.33111972  0.29208319
   0.31142998  0.30926664  0.65261907
   0.34597970  0.66312814  0.01786390
   0.32024448  0.65294050  0.34136795
   0.31071032  0.65720850  0.64625577
   0.66065715  0.01413406  0.99166348
   0.67414702  0.00869032  0.33604892
   0.65254694  0.00221501  0.64357360
   0.64883147  0.33541992  0.99881199
   0.64228372  0.33159421  0.32966960
   0.63251238  0.31461889  0.63723940
   0.63896626  0.64029349  0.00029739
   0.64769857  0.62999276  0.32775802
   0.64465481  0.64071930  0.62579750
   0.98080242  0.00923178  0.16701748
   0.98864044  0.99834331  0.48184491
   0.98975897  0.00496649  0.81703498
   0.99290901  0.32168776  0.17533498
   0.97399010  0.32832275  0.48195719
   0.97230245  0.33589723  0.81258648
   0.98394562  0.65778608  0.14610331
   0.95710938  0.63491766  0.51301625
   0.94796282  0.62057987  0.81380246
   0.33592856  0.03275346  0.14667695
   0.33759846  0.00283435  0.48722281
   0.32759711  0.98593651  0.80910574
   0.32015921  0.32946010  0.17753004
   0.32693729  0.32471433  0.49565749
   0.31472549  0.32832844  0.81932125
   0.32058260  0.64823667  0.14077419
   0.34010045  0.67456364  0.47920342
   0.33807427  0.67863500  0.80756653
   0.63877401  0.00307822  0.15588858
   0.66391070  0.00234923  0.48456987
   0.64749078  0.98899601  0.82487493
   0.64739510  0.32646154  0.16514431
   0.64796476  0.32986721  0.49351413
   0.63964736  0.31813813  0.81092046
   0.64107873  0.65135149  0.16231347
   0.65098226  0.65227029  0.49893770
   0.64978152  0.66029837  0.80704007
 
 position of ions in cartesian coordinates  (Angst):
   8.95213474  0.07060323  0.19159846
   0.07667222  0.08820092  3.52310393
   8.85004077  0.06522046  6.98305566
   7.52276075  2.51317388 10.56011971
   7.34643653  2.44339292  3.65405407
   7.47589965  2.52714847  6.70086709
   5.90510486  5.02514935 10.53855031
   5.98789431  4.93966576  3.41649275
   5.60255144  5.07325847  6.84379972
   2.99589818  0.08278816 10.42565706
   2.87696779  0.11794903  3.44153157
  -1.67595721  7.75907027  6.92201029
   1.33958464  2.62539976  0.02326161
   1.61296001  2.57906870  3.09168881
   1.41021081  2.40885657  6.90794659
   0.12965249  5.16505943  0.18908866
  -0.05599385  5.08570861  3.61336601
  -0.16093591  5.11895176  6.84059131
   5.87831307  0.11008922 10.49671802
   6.02411956  0.06768830  3.55706429
   5.85897006  0.01725256  6.81220065
   4.32715057  2.61256267 10.57238471
   4.28546487  2.58276447  3.48953945
   4.27391960  2.45054488  6.74515340
   2.86742542  4.98720192  0.00314786
   2.99228457  4.90697024  3.46930545
   2.91667273  4.99051852  6.62404135
   8.77970744  0.07190570  1.76787330
   4.40222498  7.77602732  5.10030898
   8.87944236  0.03868365  8.64828238
   7.48349643  2.50560382  1.85591371
   7.28350480  2.55728330  5.10149746
   7.23426428  2.61628040  8.60119518
   5.89146626  5.12345050  1.54649766
   5.75294221  4.94532995  5.43025636
   5.73515532  4.83365389  8.61406628
   2.87401177  0.25511445  1.55256961
   3.02357514  0.02207656  5.15723383
  -1.48732873  7.67939160  8.56435169
   1.39791168  2.56614204  1.87914833
   1.48021439  2.52917756  5.24651458
   1.35413045  2.55732762  8.67248245
  -0.03179999  5.04907080  1.49008913
   0.02535043  5.25412975  5.07234891
  -0.01118147  5.28584130  8.54805922
   5.73121613  0.02397604  1.65007434
   5.96057081  0.01829799  5.12915257
   1.37599912  7.70322184  8.73126793
   4.35451734  2.54278646  1.74804587
   4.34432569  2.56931299  5.22382720
   4.32226496  2.47795599  8.58356043
   2.83669754  5.07333192  1.71808155
   2.92163695  5.08048839  5.28123547
   2.87473582  5.14301855  8.54248666
 


--------------------------------------------------------------------------------------------------------


 k-point  1 :   0.0000 0.0000 0.0000  plane waves:   18915
 k-point  2 :   0.2500-0.0000 0.0000  plane waves:   18838
 k-point  3 :   0.5000-0.0000 0.0000  plane waves:   18796
 k-point  4 :   0.0000 0.2500 0.0000  plane waves:   18838
 k-point  5 :   0.2500 0.2500 0.0000  plane waves:   18834
 k-point  6 :   0.5000 0.2500 0.0000  plane waves:   18834
 k-point  7 :  -0.2500 0.2500 0.0000  plane waves:   18838
 k-point  8 :   0.0000 0.5000 0.0000  plane waves:   18796
 k-point  9 :   0.2500 0.5000 0.0000  plane waves:   18834
 k-point 10 :   0.5000 0.5000 0.0000  plane waves:   18796
 k-point 11 :   0.0000 0.0000 0.3333  plane waves:   18842
 k-point 12 :   0.2500-0.0000 0.3333  plane waves:   18820
 k-point 13 :   0.5000-0.0000 0.3333  plane waves:   18826
 k-point 14 :  -0.2500 0.0000 0.3333  plane waves:   18820
 k-point 15 :   0.0000 0.2500 0.3333  plane waves:   18820
 k-point 16 :   0.2500 0.2500 0.3333  plane waves:   18831
 k-point 17 :   0.5000 0.2500 0.3333  plane waves:   18831
 k-point 18 :  -0.2500 0.2500 0.3333  plane waves:   18820
 k-point 19 :   0.0000 0.5000 0.3333  plane waves:   18826
 k-point 20 :   0.2500 0.5000 0.3333  plane waves:   18831
 k-point 21 :   0.5000 0.5000 0.3333  plane waves:   18826
 k-point 22 :  -0.2500 0.5000 0.3333  plane waves:   18831
 k-point 23 :   0.0000-0.2500 0.3333  plane waves:   18820
 k-point 24 :   0.2500-0.2500 0.3333  plane waves:   18820
 k-point 25 :   0.5000-0.2500 0.3333  plane waves:   18831
 k-point 26 :  -0.2500-0.2500 0.3333  plane waves:   18831

 maximum and minimum number of plane-waves per node :     18915    18796

 maximum number of plane-waves:     18915
 maximum index in each direction: 
   IXMAX=   16   IYMAX=   16   IZMAX=   19
   IXMIN=  -16   IYMIN=  -16   IZMIN=  -19

 The following grids will avoid any aliasing or wrap around errors in the Hartre
 e energy
  - symmetry arguments have not been applied
  - exchange correlation energies might require even more grid points
  - we recommend to set PREC=Normal or Accurate and rely on VASP defaults
 NGX is ok and might be reduce to    70
 NGY is ok and might be reduce to    70
 NGZ is ok and might be reduce to    80

 serial   3D FFT for wavefunctions
 parallel 3D FFT for charge:
    minimum data exchange during FFTs selected (reduces bandwidth)


 total amount of memory used by VASP MPI-rank0   439655. kBytes
=======================================================================

   base      :      30000. kBytes
   nonlr-proj:      41409. kBytes
   fftplans  :       8419. kBytes
   grid      :      47806. kBytes
   one-center:       1679. kBytes
   wavefun   :     310342. kBytes
 
     INWAV:  cpu time    0.0000: real time    0.0000
 Broyden mixing: mesh for mixing (old mesh)
   NGX = 33   NGY = 33   NGZ = 39
  (NGX  =140   NGY  =140   NGZ  =160)
  gives a total of  42471 points

 initial charge density was supplied:
 charge density of overlapping atoms calculated
 number of electron     432.0000000 magnetization      67.5000000
 keeping initial charge density in first step


--------------------------------------------------------------------------------------------------------


 Maximum index for non-local projection operator         6903
 Maximum index for augmentation-charges         1243 (set IRDMAX)


--------------------------------------------------------------------------------------------------------


 First call to EWALD:  gamma=   0.196
 Maximum number of real-space cells 3x 3x 2
 Maximum number of reciprocal cells 3x 3x 3

    FEWALD:  cpu time    0.0024: real time    0.0024


--------------------------------------- Iteration      1(   1)  ---------------------------------------


    POTLOK:  cpu time    0.2381: real time    0.3144
    SETDIJ:  cpu time    0.0251: real time    0.0287
     EDDAV:  cpu time   99.7319: real time   99.9680
    --------------------------------------------
      LOOP:  cpu time   99.9981: real time  100.3141

 eigenvalue-minimisations  : 31616
 total energy-change (2. order) : 0.4842425E+04  (-0.1806193E+05)
 number of electron     432.0000000 magnetization      67.5000000
 augmentation part      432.0000000 magnetization      67.5000000

 Free energy of the ion-electron system (eV)
  ---------------------------------------------------
  alpha Z        PSCENC =      1166.52487208
  Ewald energy   TEWEN  =    -28016.54046401
  -Hartree energ DENC   =    -13357.39504850
  -exchange      EXHF   =         0.00000000
  -V(xc)+E(xc)   XCENC  =      1622.31611040
  PAW double counting   =     35307.98069315   -37155.18892105
  entropy T*S    EENTRO =        -0.01366866
  eigenvalues    EBANDS =      4566.26656129
  atomic energy  EATOM  =     40708.47505058
  Solvation  Ediel_sol  =         0.00000000
  ---------------------------------------------------
  free energy    TOTEN  =      4842.42518529 eV

  energy without entropy =     4842.43885395  energy(sigma->0) =     4842.43201962


--------------------------------------------------------------------------------------------------------




--------------------------------------- Iteration      1(   2)  ---------------------------------------


     EDDAV:  cpu time  101.2180: real time  101.4576
    --------------------------------------------
      LOOP:  cpu time  101.2181: real time  101.4576

 eigenvalue-minimisations  : 31616
 total energy-change (2. order) :-0.4124751E+04  (-0.3738694E+04)
 number of electron     432.0000000 magnetization      67.5000000
 augmentation part      432.0000000 magnetization      67.5000000

 Free energy of the ion-electron system (eV)
  ---------------------------------------------------
  alpha Z        PSCENC =      1166.52487208
  Ewald energy   TEWEN  =    -28016.54046401
  -Hartree energ DENC   =    -13357.39504850
  -exchange      EXHF   =         0.00000000
  -V(xc)+E(xc)   XCENC  =      1622.31611040
  PAW double counting   =     35307.98069315   -37155.18892105
  entropy T*S    EENTRO =        -0.03729984
  eigenvalues    EBANDS =       441.53920209
  atomic energy  EATOM  =     40708.47505058
  Solvation  Ediel_sol  =         0.00000000
  ---------------------------------------------------
  free energy    TOTEN  =       717.67419491 eV

  energy without entropy =      717.71149474  energy(sigma->0) =      717.69284483


--------------------------------------------------------------------------------------------------------




--------------------------------------- Iteration      1(   3)  ---------------------------------------


     EDDAV:  cpu time  101.9115: real time  102.1528
    --------------------------------------------
      LOOP:  cpu time  101.9113: real time  102.1526

 eigenvalue-minimisations  : 32576
 total energy-change (2. order) :-0.1004992E+04  (-0.8869423E+03)
 number of electron     432.0000000 magnetization      67.5000000
 augmentation part      432.0000000 magnetization      67.5000000

 Free energy of the ion-electron system (eV)
  ---------------------------------------------------
  alpha Z        PSCENC =      1166.52487208
  Ewald energy   TEWEN  =    -28016.54046401
  -Hartree energ DENC   =    -13357.39504850
  -exchange      EXHF   =         0.00000000
  -V(xc)+E(xc)   XCENC  =      1622.31611040
  PAW double counting   =     35307.98069315   -37155.18892105
  entropy T*S    EENTRO =        -0.05739985
  eigenvalues    EBANDS =      -563.43306002
  atomic energy  EATOM  =     40708.47505058
  Solvation  Ediel_sol  =         0.00000000
  ---------------------------------------------------
  free energy    TOTEN  =      -287.31816722 eV

  energy without entropy =     -287.26076737  energy(sigma->0) =     -287.28946730


--------------------------------------------------------------------------------------------------------




--------------------------------------- Iteration      1(   4)  ---------------------------------------


     EDDAV:  cpu time  109.5951: real time  109.8628
    --------------------------------------------
      LOOP:  cpu time  109.5951: real time  109.8628

 eigenvalue-minimisations  : 35120
 total energy-change (2. order) :-0.1188992E+03  (-0.1151283E+03)
 number of electron     432.0000000 magnetization      67.5000000
 augmentation part      432.0000000 magnetization      67.5000000

 Free energy of the ion-electron system (eV)
  ---------------------------------------------------
  alpha Z        PSCENC =      1166.52487208
  Ewald energy   TEWEN  =    -28016.54046401
  -Hartree energ DENC   =    -13357.39504850
  -exchange      EXHF   =         0.00000000
  -V(xc)+E(xc)   XCENC  =      1622.31611040
  PAW double counting   =     35307.98069315   -37155.18892105
  entropy T*S    EENTRO =        -0.06312025
  eigenvalues    EBANDS =      -682.32649859
  atomic energy  EATOM  =     40708.47505058
  Solvation  Ediel_sol  =         0.00000000
  ---------------------------------------------------
  free energy    TOTEN  =      -406.21732619 eV

  energy without entropy =     -406.15420594  energy(sigma->0) =     -406.18576606


--------------------------------------------------------------------------------------------------------




--------------------------------------- Iteration      1(   5)  ---------------------------------------


     EDDAV:  cpu time  106.8121: real time  107.0650
    CHARGE:  cpu time    4.3463: real time    4.3566
    MIXING:  cpu time    0.0054: real time    0.0388
    --------------------------------------------
      LOOP:  cpu time  111.1610: real time  111.4575

 eigenvalue-minimisations  : 34544
 total energy-change (2. order) :-0.3051417E+01  (-0.3040372E+01)
 number of electron     432.0000025 magnetization      61.8724582
 augmentation part      158.9747505 magnetization      50.5002337

 Broyden mixing:
  rms(total) = 0.12978E+02    rms(broyden)= 0.12977E+02
  rms(prec ) = 0.14891E+02
  weight for this iteration     100.00

 Free energy of the ion-electron system (eV)
  ---------------------------------------------------
  alpha Z        PSCENC =      1166.52487208
  Ewald energy   TEWEN  =    -28016.54046401
  -Hartree energ DENC   =    -13357.39504850
  -exchange      EXHF   =         0.00000000
  -V(xc)+E(xc)   XCENC  =      1622.31611040
  PAW double counting   =     35307.98069315   -37155.18892105
  entropy T*S    EENTRO =        -0.06375093
  eigenvalues    EBANDS =      -685.37728500
  atomic energy  EATOM  =     40708.47505058
  Solvation  Ediel_sol  =         0.00000000
  ---------------------------------------------------
  free energy    TOTEN  =      -409.26874328 eV

  energy without entropy =     -409.20499235  energy(sigma->0) =     -409.23686781


--------------------------------------------------------------------------------------------------------




--------------------------------------- Iteration      1(   6)  ---------------------------------------


    POTLOK:  cpu time    0.2048: real time    0.2053
    SETDIJ:  cpu time    0.0238: real time    0.0238
     EDDAV:  cpu time  127.2119: real time  127.5129
    CHARGE:  cpu time    4.3273: real time    4.3376
    MIXING:  cpu time    0.0051: real time    0.0238
    --------------------------------------------
      LOOP:  cpu time  131.7729: real time  132.1035

 eigenvalue-minimisations  : 42752
 total energy-change (2. order) :-0.1015769E+03  (-0.8884793E+02)
 number of electron     432.0000057 magnetization      54.4555141
 augmentation part      212.1679430 magnetization      48.8396282

 Broyden mixing:
  rms(total) = 0.19201E+02    rms(broyden)= 0.19199E+02
  rms(prec ) = 0.21781E+02
  weight for this iteration     100.00

 eigenvalues of (default mixing * dielectric matrix)
  average eigenvalue GAMMA=   0.2554
  0.2554

 Free energy of the ion-electron system (eV)
  ---------------------------------------------------
  alpha Z        PSCENC =      1166.52487208
  Ewald energy   TEWEN  =    -28016.54046401
  -Hartree energ DENC   =    -12517.97939553
  -exchange      EXHF   =         0.00000000
  -V(xc)+E(xc)   XCENC  =      1597.89882717
  PAW double counting   =     38109.17810312   -39714.45715235
  entropy T*S    EENTRO =        -0.04375436
  eigenvalues    EBANDS =     -1843.90170145
  atomic energy  EATOM  =     40708.47505058
  Solvation  Ediel_sol  =         0.00000000
  ---------------------------------------------------
  free energy    TOTEN  =      -510.84561476 eV

  energy without entropy =     -510.80186039  energy(sigma->0) =     -510.82373758


--------------------------------------------------------------------------------------------------------




--------------------------------------- Iteration      1(   7)  ---------------------------------------


    POTLOK:  cpu time    0.2037: real time    0.2042
    SETDIJ:  cpu time    0.0243: real time    0.0244
     EDDAV:  cpu time  125.6776: real time  125.9751
    CHARGE:  cpu time    4.3090: real time    4.3192
    MIXING:  cpu time    0.0046: real time    0.0046
    --------------------------------------------
      LOOP:  cpu time  130.2193: real time  130.5275

 eigenvalue-minimisations  : 42432
 total energy-change (2. order) : 0.2072607E+03  (-0.3283819E+02)
 number of electron     432.0000044 magnetization      46.3883040
 augmentation part      188.8084317 magnetization      38.2610111

 Broyden mixing:
  rms(total) = 0.66605E+01    rms(broyden)= 0.66574E+01
  rms(prec ) = 0.89694E+01
  weight for this iteration     100.00

 eigenvalues of (default mixing * dielectric matrix)
  average eigenvalue GAMMA=   0.5680
  0.5680  0.5680

 Free energy of the ion-electron system (eV)
  ---------------------------------------------------
  alpha Z        PSCENC =      1166.52487208
  Ewald energy   TEWEN  =    -28016.54046401
  -Hartree energ DENC   =    -12866.20475693
  -exchange      EXHF   =         0.00000000
  -V(xc)+E(xc)   XCENC  =      1596.57991604
  PAW double counting   =     39925.62266904   -41731.74268513
  entropy T*S    EENTRO =        -0.05641323
  eigenvalues    EBANDS =     -1086.24306318
  atomic energy  EATOM  =     40708.47505058
  Solvation  Ediel_sol  =         0.00000000
  ---------------------------------------------------
  free energy    TOTEN  =      -303.58487474 eV

  energy without entropy =     -303.52846151  energy(sigma->0) =     -303.55666813


--------------------------------------------------------------------------------------------------------




--------------------------------------- Iteration      1(   8)  ---------------------------------------


    POTLOK:  cpu time    0.2016: real time    0.2021
    SETDIJ:  cpu time    0.0236: real time    0.0237
     EDDAV:  cpu time  127.6839: real time  127.9861
    CHARGE:  cpu time    4.3297: real time    4.3399
    MIXING:  cpu time    0.0046: real time    0.0046
    --------------------------------------------
      LOOP:  cpu time  132.2434: real time  132.5564

 eigenvalue-minimisations  : 42928
 total energy-change (2. order) :-0.9857283E+02  (-0.1472638E+02)
 number of electron     432.0000035 magnetization      39.4138904
 augmentation part      179.6262954 magnetization      34.5851577

 Broyden mixing:
  rms(total) = 0.15110E+02    rms(broyden)= 0.15109E+02
  rms(prec ) = 0.21078E+02
  weight for this iteration     100.00

 eigenvalues of (default mixing * dielectric matrix)
  average eigenvalue GAMMA=   0.4883
  0.8694  0.4728  0.1226

 Free energy of the ion-electron system (eV)
  ---------------------------------------------------
  alpha Z        PSCENC =      1166.52487208
  Ewald energy   TEWEN  =    -28016.54046401
  -Hartree energ DENC   =    -12903.12711366
  -exchange      EXHF   =         0.00000000
  -V(xc)+E(xc)   XCENC  =      1596.31742457
  PAW double counting   =     41016.28954834   -42875.54063462
  entropy T*S    EENTRO =        -0.03901504
  eigenvalues    EBANDS =     -1094.51737642
  atomic energy  EATOM  =     40708.47505058
  Solvation  Ediel_sol  =         0.00000000
  ---------------------------------------------------
  free energy    TOTEN  =      -402.15770817 eV

  energy without entropy =     -402.11869313  energy(sigma->0) =     -402.13820065


--------------------------------------------------------------------------------------------------------




--------------------------------------- Iteration      1(   9)  ---------------------------------------


    POTLOK:  cpu time    0.2022: real time    0.2026
    SETDIJ:  cpu time    0.0240: real time    0.0241
     EDDAV:  cpu time  121.3949: real time  121.6826
    CHARGE:  cpu time    4.1293: real time    4.1391
    MIXING:  cpu time    0.0054: real time    0.0166
    --------------------------------------------
      LOOP:  cpu time  125.7558: real time  126.0651

 eigenvalue-minimisations  : 40304
 total energy-change (2. order) : 0.3442332E+02  (-0.2247054E+02)
 number of electron     432.0000049 magnetization      34.0259819
 augmentation part      180.4889700 magnetization      26.7687869

 Broyden mixing:
  rms(total) = 0.10909E+02    rms(broyden)= 0.10909E+02
  rms(prec ) = 0.14758E+02
  weight for this iteration     100.00

 eigenvalues of (default mixing * dielectric matrix)
  average eigenvalue GAMMA=   0.4718
  1.1048  0.4482  0.1671  0.1671

 Free energy of the ion-electron system (eV)
  ---------------------------------------------------
  alpha Z        PSCENC =      1166.52487208
  Ewald energy   TEWEN  =    -28016.54046401
  -Hartree energ DENC   =    -12935.00522074
  -exchange      EXHF   =         0.00000000
  -V(xc)+E(xc)   XCENC  =      1596.48763247
  PAW double counting   =     41993.21031078   -43890.85421134
  entropy T*S    EENTRO =        -0.07781992
  eigenvalues    EBANDS =      -989.95454289
  atomic energy  EATOM  =     40708.47505058
  Solvation  Ediel_sol  =         0.00000000
  ---------------------------------------------------
  free energy    TOTEN  =      -367.73439299 eV

  energy without entropy =     -367.65657307  energy(sigma->0) =     -367.69548303


--------------------------------------------------------------------------------------------------------




--------------------------------------- Iteration      1(  10)  ---------------------------------------


    POTLOK:  cpu time    0.1989: real time    0.1994
    SETDIJ:  cpu time    0.0234: real time    0.0235
     EDDAV:  cpu time  116.7190: real time  116.9954
    CHARGE:  cpu time    4.3853: real time    4.3957
    MIXING:  cpu time    0.0050: real time    0.0050
    --------------------------------------------
      LOOP:  cpu time  121.3316: real time  121.6190

 eigenvalue-minimisations  : 38672
 total energy-change (2. order) : 0.3679634E+02  (-0.8372642E+01)
 number of electron     432.0000041 magnetization      29.4945868
 augmentation part      180.8687179 magnetization      21.8056793

 Broyden mixing:
  rms(total) = 0.74969E+01    rms(broyden)= 0.74959E+01
  rms(prec ) = 0.10089E+02
  weight for this iteration     100.00

 eigenvalues of (default mixing * dielectric matrix)
  average eigenvalue GAMMA=   0.4708
  1.3154  0.4454  0.2300  0.2300  0.1330

 Free energy of the ion-electron system (eV)
  ---------------------------------------------------
  alpha Z        PSCENC =      1166.52487208
  Ewald energy   TEWEN  =    -28016.54046401
  -Hartree energ DENC   =    -12941.46912293
  -exchange      EXHF   =         0.00000000
  -V(xc)+E(xc)   XCENC  =      1595.91984661
  PAW double counting   =     42772.50557674   -44690.95095929
  entropy T*S    EENTRO =        -0.07731465
  eigenvalues    EBANDS =      -925.32553858
  atomic energy  EATOM  =     40708.47505058
  Solvation  Ediel_sol  =         0.00000000
  ---------------------------------------------------
  free energy    TOTEN  =      -330.93805344 eV

  energy without entropy =     -330.86073879  energy(sigma->0) =     -330.89939612


--------------------------------------------------------------------------------------------------------




--------------------------------------- Iteration      1(  11)  ---------------------------------------


    POTLOK:  cpu time    0.2016: real time    0.2020
    SETDIJ:  cpu time    0.0236: real time    0.0237
     EDDAV:  cpu time  121.6883: real time  121.9763
    CHARGE:  cpu time    4.3852: real time    4.3956
    MIXING:  cpu time    0.0053: real time    0.0053
    --------------------------------------------
      LOOP:  cpu time  126.3040: real time  126.6029

 eigenvalue-minimisations  : 40384
 total energy-change (2. order) : 0.1887710E+02  (-0.5230638E+01)
 number of electron     432.0000036 magnetization      27.4541394
 augmentation part      179.5250768 magnetization      21.0410591

 Broyden mixing:
  rms(total) = 0.84500E+01    rms(broyden)= 0.84493E+01
  rms(prec ) = 0.11869E+02
  weight for this iteration     100.00

 eigenvalues of (default mixing * dielectric matrix)
  average eigenvalue GAMMA=   0.4395
  1.4293  0.4183  0.2740  0.2740  0.1208  0.1208

 Free energy of the ion-electron system (eV)
  ---------------------------------------------------
  alpha Z        PSCENC =      1166.52487208
  Ewald energy   TEWEN  =    -28016.54046401
  -Hartree energ DENC   =    -12924.89286643
  -exchange      EXHF   =         0.00000000
  -V(xc)+E(xc)   XCENC  =      1594.61940204
  PAW double counting   =     43373.86958678   -45301.06116000
  entropy T*S    EENTRO =        -0.08480747
  eigenvalues    EBANDS =      -912.97057086
  atomic energy  EATOM  =     40708.47505058
  Solvation  Ediel_sol  =         0.00000000
  ---------------------------------------------------
  free energy    TOTEN  =      -312.06095729 eV

  energy without entropy =     -311.97614983  energy(sigma->0) =     -312.01855356


--------------------------------------------------------------------------------------------------------




--------------------------------------- Iteration      1(  12)  ---------------------------------------


    POTLOK:  cpu time    0.2013: real time    0.2018
    SETDIJ:  cpu time    0.0237: real time    0.0238
     EDDAV:  cpu time  135.3646: real time  135.6849
    CHARGE:  cpu time    4.6301: real time    4.6410
    MIXING:  cpu time    0.0055: real time    0.0055
    --------------------------------------------
      LOOP:  cpu time  140.2252: real time  140.5570

 eigenvalue-minimisations  : 46000
 total energy-change (2. order) : 0.1314653E+02  (-0.8163078E+01)
 number of electron     432.0000035 magnetization      25.4345748
 augmentation part      180.7594529 magnetization      18.7655664

 Broyden mixing:
  rms(total) = 0.51526E+01    rms(broyden)= 0.51519E+01
  rms(prec ) = 0.71077E+01
  weight for this iteration     100.00

 eigenvalues of (default mixing * dielectric matrix)
  average eigenvalue GAMMA=   0.4324
  1.5034  0.4004  0.3743  0.3743  0.1409  0.1409  0.0927

 Free energy of the ion-electron system (eV)
  ---------------------------------------------------
  alpha Z        PSCENC =      1166.52487208
  Ewald energy   TEWEN  =    -28016.54046401
  -Hartree energ DENC   =    -12922.33044527
  -exchange      EXHF   =         0.00000000
  -V(xc)+E(xc)   XCENC  =      1594.11061702
  PAW double counting   =     43627.21452045   -45558.15342405
  entropy T*S    EENTRO =        -0.08688477
  eigenvalues    EBANDS =      -898.12826574
  atomic energy  EATOM  =     40708.47505058
  Solvation  Ediel_sol  =         0.00000000
  ---------------------------------------------------
  free energy    TOTEN  =      -298.91442371 eV

  energy without entropy =     -298.82753894  energy(sigma->0) =     -298.87098132


--------------------------------------------------------------------------------------------------------




--------------------------------------- Iteration      1(  13)  ---------------------------------------


    POTLOK:  cpu time    0.1979: real time    0.1984
    SETDIJ:  cpu time    0.0233: real time    0.0233
     EDDAV:  cpu time  119.5128: real time  119.7956
    CHARGE:  cpu time    4.3680: real time    4.3784
    MIXING:  cpu time    0.0058: real time    0.0058
    --------------------------------------------
      LOOP:  cpu time  124.1078: real time  124.4016

 eigenvalue-minimisations  : 40032
 total energy-change (2. order) : 0.2784468E+01  (-0.3454194E+01)
 number of electron     432.0000043 magnetization      23.4068726
 augmentation part      180.1602737 magnetization      17.0455702

 Broyden mixing:
  rms(total) = 0.56138E+01    rms(broyden)= 0.56133E+01
  rms(prec ) = 0.78440E+01
  weight for this iteration     100.00

 eigenvalues of (default mixing * dielectric matrix)
  average eigenvalue GAMMA=   0.4219
  1.5910  0.4701  0.4701  0.3454  0.1444  0.1444  0.1047  0.1047

 Free energy of the ion-electron system (eV)
  ---------------------------------------------------
  alpha Z        PSCENC =      1166.52487208
  Ewald energy   TEWEN  =    -28016.54046401
  -Hartree energ DENC   =    -12918.49017949
  -exchange      EXHF   =         0.00000000
  -V(xc)+E(xc)   XCENC  =      1593.19864131
  PAW double counting   =     43826.77486680   -45756.69487565
  entropy T*S    EENTRO =        -0.09498533
  eigenvalues    EBANDS =      -899.28288226
  atomic energy  EATOM  =     40708.47505058
  Solvation  Ediel_sol  =         0.00000000
  ---------------------------------------------------
  free energy    TOTEN  =      -296.12995597 eV

  energy without entropy =     -296.03497064  energy(sigma->0) =     -296.08246330


--------------------------------------------------------------------------------------------------------




--------------------------------------- Iteration      1(  14)  ---------------------------------------


    POTLOK:  cpu time    0.2019: real time    0.2023
    SETDIJ:  cpu time    0.0238: real time    0.0238
     EDDAV:  cpu time  128.4820: real time  128.7861
    CHARGE:  cpu time    4.3953: real time    4.4057
    MIXING:  cpu time    0.0062: real time    0.0062
    --------------------------------------------
      LOOP:  cpu time  133.1092: real time  133.4242

 eigenvalue-minimisations  : 43248
 total energy-change (2. order) : 0.4898488E+01  (-0.3704367E+01)
 number of electron     432.0000039 magnetization      21.6199085
 augmentation part      180.1645676 magnetization      15.6562736

 Broyden mixing:
  rms(total) = 0.40827E+01    rms(broyden)= 0.40820E+01
  rms(prec ) = 0.59866E+01
  weight for this iteration     100.00

 eigenvalues of (default mixing * dielectric matrix)
  average eigenvalue GAMMA=   0.4182
  1.6238  0.5754  0.5754  0.3169  0.1623  0.1623  0.1279  0.1279  0.0920

 Free energy of the ion-electron system (eV)
  ---------------------------------------------------
  alpha Z        PSCENC =      1166.52487208
  Ewald energy   TEWEN  =    -28016.54046401
  -Hartree energ DENC   =    -12915.06061836
  -exchange      EXHF   =         0.00000000
  -V(xc)+E(xc)   XCENC  =      1592.59447725
  PAW double counting   =     44025.07467979   -45954.35981833
  entropy T*S    EENTRO =        -0.08320643
  eigenvalues    EBANDS =      -897.85644054
  atomic energy  EATOM  =     40708.47505058
  Solvation  Ediel_sol  =         0.00000000
  ---------------------------------------------------
  free energy    TOTEN  =      -291.23146798 eV

  energy without entropy =     -291.14826154  energy(sigma->0) =     -291.18986476


--------------------------------------------------------------------------------------------------------




--------------------------------------- Iteration      1(  15)  ---------------------------------------


    POTLOK:  cpu time    0.2017: real time    0.2022
    SETDIJ:  cpu time    0.0251: real time    0.0252
     EDDAV:  cpu time  123.8520: real time  124.1451
    CHARGE:  cpu time    4.3935: real time    4.4039
    MIXING:  cpu time    0.0061: real time    0.0061
    --------------------------------------------
      LOOP:  cpu time  128.4784: real time  128.7825

 eigenvalue-minimisations  : 41632
 total energy-change (2. order) :-0.2026084E+01  (-0.2141068E+01)
 number of electron     432.0000031 magnetization      19.5274057
 augmentation part      180.0356436 magnetization      14.2469134

 Broyden mixing:
  rms(total) = 0.49289E+01    rms(broyden)= 0.49283E+01
  rms(prec ) = 0.68225E+01
  weight for this iteration     100.00

 eigenvalues of (default mixing * dielectric matrix)
  average eigenvalue GAMMA=   0.4139
  1.7252  0.6286  0.6286  0.2949  0.2949  0.1321  0.1321  0.1332  0.0961  0.0734

 Free energy of the ion-electron system (eV)
  ---------------------------------------------------
  alpha Z        PSCENC =      1166.52487208
  Ewald energy   TEWEN  =    -28016.54046401
  -Hartree energ DENC   =    -12911.12292196
  -exchange      EXHF   =         0.00000000
  -V(xc)+E(xc)   XCENC  =      1592.16627121
  PAW double counting   =     44163.66926686   -46089.87074452
  entropy T*S    EENTRO =        -0.08400692
  eigenvalues    EBANDS =      -906.47487567
  atomic energy  EATOM  =     40708.47505058
  Solvation  Ediel_sol  =         0.00000000
  ---------------------------------------------------
  free energy    TOTEN  =      -293.25755236 eV

  energy without entropy =     -293.17354544  energy(sigma->0) =     -293.21554890


--------------------------------------------------------------------------------------------------------




--------------------------------------- Iteration      1(  16)  ---------------------------------------


    POTLOK:  cpu time    0.2019: real time    0.2024
    SETDIJ:  cpu time    0.0238: real time    0.0239
     EDDAV:  cpu time  124.1932: real time  124.4870
    CHARGE:  cpu time    4.3967: real time    4.4071
    MIXING:  cpu time    0.0075: real time    0.0250
    --------------------------------------------
      LOOP:  cpu time  128.8232: real time  129.1454

 eigenvalue-minimisations  : 41280
 total energy-change (2. order) : 0.2095725E+01  (-0.2458559E+01)
 number of electron     432.0000038 magnetization      17.5433435
 augmentation part      181.2817690 magnetization      12.1864131

 Broyden mixing:
  rms(total) = 0.37690E+01    rms(broyden)= 0.37685E+01
  rms(prec ) = 0.53608E+01
  weight for this iteration     100.00

 eigenvalues of (default mixing * dielectric matrix)
  average eigenvalue GAMMA=   0.4135
  1.8381  0.6620  0.6620  0.3548  0.3548  0.1394  0.1394  0.1202  0.0959  0.0959
  0.0864

 Free energy of the ion-electron system (eV)
  ---------------------------------------------------
  alpha Z        PSCENC =      1166.52487208
  Ewald energy   TEWEN  =    -28016.54046401
  -Hartree energ DENC   =    -12907.59710064
  -exchange      EXHF   =         0.00000000
  -V(xc)+E(xc)   XCENC  =      1591.88230695
  PAW double counting   =     44354.68002614   -46280.00895663
  entropy T*S    EENTRO =        -0.08831099
  eigenvalues    EBANDS =      -908.48925071
  atomic energy  EATOM  =     40708.47505058
  Solvation  Ediel_sol  =         0.00000000
  ---------------------------------------------------
  free energy    TOTEN  =      -291.16182723 eV

  energy without entropy =     -291.07351624  energy(sigma->0) =     -291.11767174


--------------------------------------------------------------------------------------------------------




--------------------------------------- Iteration      1(  17)  ---------------------------------------


    POTLOK:  cpu time    0.2083: real time    0.2088
    SETDIJ:  cpu time    0.0249: real time    0.0250
     EDDAV:  cpu time  121.6747: real time  121.9627
    CHARGE:  cpu time    4.1355: real time    4.1453
    MIXING:  cpu time    0.0066: real time    0.0066
    --------------------------------------------
      LOOP:  cpu time  126.0501: real time  126.3484

 eigenvalue-minimisations  : 40160
 total energy-change (2. order) : 0.3221088E+01  (-0.1493686E+01)
 number of electron     432.0000043 magnetization      15.7147671
 augmentation part      182.0129717 magnetization      10.8617440

 Broyden mixing:
  rms(total) = 0.22769E+01    rms(broyden)= 0.22764E+01
  rms(prec ) = 0.30535E+01
  weight for this iteration     100.00

 eigenvalues of (default mixing * dielectric matrix)
  average eigenvalue GAMMA=   0.4120
  1.9370  0.6884  0.6884  0.3922  0.3922  0.1512  0.1512  0.1348  0.1348  0.1072
  0.0880  0.0785

 Free energy of the ion-electron system (eV)
  ---------------------------------------------------
  alpha Z        PSCENC =      1166.52487208
  Ewald energy   TEWEN  =    -28016.54046401
  -Hartree energ DENC   =    -12902.72230224
  -exchange      EXHF   =         0.00000000
  -V(xc)+E(xc)   XCENC  =      1591.74591528
  PAW double counting   =     44544.66699878   -46470.14020652
  entropy T*S    EENTRO =        -0.07557960
  eigenvalues    EBANDS =      -909.87502348
  atomic energy  EATOM  =     40708.47505058
  Solvation  Ediel_sol  =         0.00000000
  ---------------------------------------------------
  free energy    TOTEN  =      -287.94073913 eV

  energy without entropy =     -287.86515953  energy(sigma->0) =     -287.90294933


--------------------------------------------------------------------------------------------------------




--------------------------------------- Iteration      1(  18)  ---------------------------------------


    POTLOK:  cpu time    0.1986: real time    0.1991
    SETDIJ:  cpu time    0.0234: real time    0.0234
     EDDAV:  cpu time  117.9064: real time  118.1854
    CHARGE:  cpu time    4.3923: real time    4.4027
    MIXING:  cpu time    0.0069: real time    0.0069
    --------------------------------------------
      LOOP:  cpu time  122.5275: real time  122.8175

 eigenvalue-minimisations  : 39072
 total energy-change (2. order) : 0.5784981E+00  (-0.6251081E+00)
 number of electron     432.0000041 magnetization      13.9935055
 augmentation part      182.2391256 magnetization       9.2666158

 Broyden mixing:
  rms(total) = 0.18336E+01    rms(broyden)= 0.18331E+01
  rms(prec ) = 0.25134E+01
  weight for this iteration     100.00

 eigenvalues of (default mixing * dielectric matrix)
  average eigenvalue GAMMA=   0.4117
  1.9990  0.7341  0.7341  0.4222  0.4222  0.2209  0.1696  0.1357  0.1357  0.1023
  0.1023  0.0926  0.0815

 Free energy of the ion-electron system (eV)
  ---------------------------------------------------
  alpha Z        PSCENC =      1166.52487208
  Ewald energy   TEWEN  =    -28016.54046401
  -Hartree energ DENC   =    -12900.76418082
  -exchange      EXHF   =         0.00000000
  -V(xc)+E(xc)   XCENC  =      1591.61353644
  PAW double counting   =     44706.86071891   -46633.28103555
  entropy T*S    EENTRO =        -0.08061963
  eigenvalues    EBANDS =      -910.17011902
  atomic energy  EATOM  =     40708.47505058
  Solvation  Ediel_sol  =         0.00000000
  ---------------------------------------------------
  free energy    TOTEN  =      -287.36224101 eV

  energy without entropy =     -287.28162138  energy(sigma->0) =     -287.32193120


--------------------------------------------------------------------------------------------------------




--------------------------------------- Iteration      1(  19)  ---------------------------------------


    POTLOK:  cpu time    0.2023: real time    0.2028
    SETDIJ:  cpu time    0.0247: real time    0.0247
     EDDAV:  cpu time  123.8217: real time  124.1147
    CHARGE:  cpu time    4.3933: real time    4.4037
    MIXING:  cpu time    0.0072: real time    0.0072
    --------------------------------------------
      LOOP:  cpu time  128.4493: real time  128.7532

 eigenvalue-minimisations  : 41200
 total energy-change (2. order) : 0.4371646E+00  (-0.3049779E+00)
 number of electron     432.0000041 magnetization      13.5925344
 augmentation part      182.2540292 magnetization       9.3886940

 Broyden mixing:
  rms(total) = 0.13953E+01    rms(broyden)= 0.13950E+01
  rms(prec ) = 0.18947E+01
  weight for this iteration     100.00

 eigenvalues of (default mixing * dielectric matrix)
  average eigenvalue GAMMA=   0.4007
  1.9419  0.7556  0.7556  0.4500  0.4500  0.2413  0.2413  0.1377  0.1377  0.1347
  0.0978  0.0978  0.0888  0.0804

 Free energy of the ion-electron system (eV)
  ---------------------------------------------------
  alpha Z        PSCENC =      1166.52487208
  Ewald energy   TEWEN  =    -28016.54046401
  -Hartree energ DENC   =    -12901.97436754
  -exchange      EXHF   =         0.00000000
  -V(xc)+E(xc)   XCENC  =      1591.51468049
  PAW double counting   =     44836.89231354   -46764.06211454
  entropy T*S    EENTRO =        -0.07985502
  eigenvalues    EBANDS =      -907.67519203
  atomic energy  EATOM  =     40708.47505058
  Solvation  Ediel_sol  =         0.00000000
  ---------------------------------------------------
  free energy    TOTEN  =      -286.92507646 eV

  energy without entropy =     -286.84522143  energy(sigma->0) =     -286.88514895


--------------------------------------------------------------------------------------------------------




--------------------------------------- Iteration      1(  20)  ---------------------------------------


    POTLOK:  cpu time    0.2017: real time    0.2021
    SETDIJ:  cpu time    0.0244: real time    0.0245
     EDDAV:  cpu time  123.2783: real time  123.5700
    CHARGE:  cpu time    4.8832: real time    4.8948
    MIXING:  cpu time    0.0080: real time    0.0080
    --------------------------------------------
      LOOP:  cpu time  128.3956: real time  128.6995

 eigenvalue-minimisations  : 41168
 total energy-change (2. order) : 0.3168378E+00  (-0.1816969E+00)
 number of electron     432.0000042 magnetization      12.4808039
 augmentation part      182.1429556 magnetization       8.5684984

 Broyden mixing:
  rms(total) = 0.10169E+01    rms(broyden)= 0.10166E+01
  rms(prec ) = 0.12890E+01
  weight for this iteration     100.00

 eigenvalues of (default mixing * dielectric matrix)
  average eigenvalue GAMMA=   0.4087
  1.8902  0.8382  0.8382  0.5175  0.5175  0.3190  0.3190  0.1374  0.1374  0.1355
  0.1195  0.0973  0.0973  0.0863  0.0800

 Free energy of the ion-electron system (eV)
  ---------------------------------------------------
  alpha Z        PSCENC =      1166.52487208
  Ewald energy   TEWEN  =    -28016.54046401
  -Hartree energ DENC   =    -12902.00790289
  -exchange      EXHF   =         0.00000000
  -V(xc)+E(xc)   XCENC  =      1591.46730781
  PAW double counting   =     44833.79228773   -46759.92860706
  entropy T*S    EENTRO =        -0.08089200
  eigenvalues    EBANDS =      -908.30989093
  atomic energy  EATOM  =     40708.47505058
  Solvation  Ediel_sol  =         0.00000000
  ---------------------------------------------------
  free energy    TOTEN  =      -286.60823870 eV

  energy without entropy =     -286.52734670  energy(sigma->0) =     -286.56779270


--------------------------------------------------------------------------------------------------------




--------------------------------------- Iteration      1(  21)  ---------------------------------------


    POTLOK:  cpu time    0.2200: real time    0.2205
    SETDIJ:  cpu time    0.0257: real time    0.0257
     EDDAV:  cpu time  121.1447: real time  121.4314
    CHARGE:  cpu time    4.3636: real time    4.3740
    MIXING:  cpu time    0.0076: real time    0.0076
    --------------------------------------------
      LOOP:  cpu time  125.7616: real time  126.0593

 eigenvalue-minimisations  : 40512
 total energy-change (2. order) :-0.6161324E+00  (-0.2628696E+00)
 number of electron     432.0000041 magnetization      11.4794876
 augmentation part      182.0328005 magnetization       7.5922940

 Broyden mixing:
  rms(total) = 0.15903E+01    rms(broyden)= 0.15901E+01
  rms(prec ) = 0.20937E+01
  weight for this iteration     100.00

 eigenvalues of (default mixing * dielectric matrix)
  average eigenvalue GAMMA=   0.4114
  1.9412  0.9348  0.9348  0.5357  0.5357  0.3434  0.3434  0.1376  0.1376  0.1393
  0.1393  0.1036  0.0962  0.0962  0.0815  0.0815

 Free energy of the ion-electron system (eV)
  ---------------------------------------------------
  alpha Z        PSCENC =      1166.52487208
  Ewald energy   TEWEN  =    -28016.54046401
  -Hartree energ DENC   =    -12901.27925879
  -exchange      EXHF   =         0.00000000
  -V(xc)+E(xc)   XCENC  =      1591.38135382
  PAW double counting   =     44848.69244379   -46772.59139766
  entropy T*S    EENTRO =        -0.07809143
  eigenvalues    EBANDS =      -911.80887944
  atomic energy  EATOM  =     40708.47505058
  Solvation  Ediel_sol  =         0.00000000
  ---------------------------------------------------
  free energy    TOTEN  =      -287.22437107 eV

  energy without entropy =     -287.14627963  energy(sigma->0) =     -287.18532535


--------------------------------------------------------------------------------------------------------




--------------------------------------- Iteration      1(  22)  ---------------------------------------


    POTLOK:  cpu time    0.2022: real time    0.2027
    SETDIJ:  cpu time    0.0235: real time    0.0235
     EDDAV:  cpu time  120.8276: real time  121.1135
    CHARGE:  cpu time    4.3718: real time    4.3822
    MIXING:  cpu time    0.0078: real time    0.0078
    --------------------------------------------
      LOOP:  cpu time  125.4328: real time  125.7297

 eigenvalue-minimisations  : 40000
 total energy-change (2. order) : 0.3917365E+00  (-0.1371221E+00)
 number of electron     432.0000041 magnetization      10.3599598
 augmentation part      181.9789475 magnetization       6.7788658

 Broyden mixing:
  rms(total) = 0.81391E+00    rms(broyden)= 0.81358E+00
  rms(prec ) = 0.10506E+01
  weight for this iteration     100.00

 eigenvalues of (default mixing * dielectric matrix)
  average eigenvalue GAMMA=   0.4293
  2.0845  1.0270  1.0270  0.5642  0.5642  0.3956  0.3956  0.2541  0.1376  0.1376
  0.1382  0.1271  0.0992  0.0992  0.0849  0.0849  0.0771

 Free energy of the ion-electron system (eV)
  ---------------------------------------------------
  alpha Z        PSCENC =      1166.52487208
  Ewald energy   TEWEN  =    -28016.54046401
  -Hartree energ DENC   =    -12902.15886865
  -exchange      EXHF   =         0.00000000
  -V(xc)+E(xc)   XCENC  =      1591.38945640
  PAW double counting   =     44885.10483944   -46807.85485638
  entropy T*S    EENTRO =        -0.08115046
  eigenvalues    EBANDS =      -911.69151359
  atomic energy  EATOM  =     40708.47505058
  Solvation  Ediel_sol  =         0.00000000
  ---------------------------------------------------
  free energy    TOTEN  =      -286.83263459 eV

  energy without entropy =     -286.75148413  energy(sigma->0) =     -286.79205936


--------------------------------------------------------------------------------------------------------




--------------------------------------- Iteration      1(  23)  ---------------------------------------


    POTLOK:  cpu time    0.2018: real time    0.2023
    SETDIJ:  cpu time    0.0236: real time    0.0236
     EDDAV:  cpu time  123.3635: real time  123.6554
    CHARGE:  cpu time    4.3754: real time    4.3858
    MIXING:  cpu time    0.0081: real time    0.0081
    --------------------------------------------
      LOOP:  cpu time  127.9724: real time  128.2752

 eigenvalue-minimisations  : 41408
 total energy-change (2. order) :-0.2399732E+00  (-0.1313608E+00)
 number of electron     432.0000041 magnetization       9.8871745
 augmentation part      182.0019375 magnetization       6.6010555

 Broyden mixing:
  rms(total) = 0.10133E+01    rms(broyden)= 0.10131E+01
  rms(prec ) = 0.13646E+01
  weight for this iteration     100.00

 eigenvalues of (default mixing * dielectric matrix)
  average eigenvalue GAMMA=   0.4316
  2.0084  1.1018  1.1018  0.6349  0.6349  0.4238  0.4238  0.3077  0.1375  0.1375
  0.1589  0.1431  0.1114  0.0990  0.0990  0.0845  0.0845  0.0768

 Free energy of the ion-electron system (eV)
  ---------------------------------------------------
  alpha Z        PSCENC =      1166.52487208
  Ewald energy   TEWEN  =    -28016.54046401
  -Hartree energ DENC   =    -12903.52592285
  -exchange      EXHF   =         0.00000000
  -V(xc)+E(xc)   XCENC  =      1591.53565966
  PAW double counting   =     44933.10997728   -46854.22258957
  entropy T*S    EENTRO =        -0.08101631
  eigenvalues    EBANDS =      -912.34817464
  atomic energy  EATOM  =     40708.47505058
  Solvation  Ediel_sol  =         0.00000000
  ---------------------------------------------------
  free energy    TOTEN  =      -287.07260778 eV

  energy without entropy =     -286.99159147  energy(sigma->0) =     -287.03209963


--------------------------------------------------------------------------------------------------------




--------------------------------------- Iteration      1(  24)  ---------------------------------------


    POTLOK:  cpu time    0.2014: real time    0.2018
    SETDIJ:  cpu time    0.0235: real time    0.0235
     EDDAV:  cpu time  122.1087: real time  122.3977
    CHARGE:  cpu time    4.3689: real time    4.3792
    MIXING:  cpu time    0.0084: real time    0.0084
    --------------------------------------------
      LOOP:  cpu time  126.7109: real time  127.0107

 eigenvalue-minimisations  : 40544
 total energy-change (2. order) : 0.1462820E+00  (-0.1560723E+00)
 number of electron     432.0000040 magnetization       9.5326943
 augmentation part      182.1473583 magnetization       6.3133755

 Broyden mixing:
  rms(total) = 0.62880E+00    rms(broyden)= 0.62858E+00
  rms(prec ) = 0.80399E+00
  weight for this iteration     100.00

 eigenvalues of (default mixing * dielectric matrix)
  average eigenvalue GAMMA=   0.4314
  2.0615  0.9743  0.9743  0.7608  0.6502  0.6502  0.4095  0.3620  0.2716  0.1377
  0.1377  0.1348  0.1348  0.0989  0.0989  0.0948  0.0875  0.0815  0.0755

 Free energy of the ion-electron system (eV)
  ---------------------------------------------------
  alpha Z        PSCENC =      1166.52487208
  Ewald energy   TEWEN  =    -28016.54046401
  -Hartree energ DENC   =    -12903.35800935
  -exchange      EXHF   =         0.00000000
  -V(xc)+E(xc)   XCENC  =      1591.66275638
  PAW double counting   =     44938.99989829   -46858.47110859
  entropy T*S    EENTRO =        -0.07491001
  eigenvalues    EBANDS =      -914.14441119
  atomic energy  EATOM  =     40708.47505058
  Solvation  Ediel_sol  =         0.00000000
  ---------------------------------------------------
  free energy    TOTEN  =      -286.92632582 eV

  energy without entropy =     -286.85141581  energy(sigma->0) =     -286.88887081


--------------------------------------------------------------------------------------------------------




--------------------------------------- Iteration      1(  25)  ---------------------------------------


    POTLOK:  cpu time    0.2018: real time    0.2023
    SETDIJ:  cpu time    0.0235: real time    0.0236
     EDDAV:  cpu time  126.5233: real time  126.8227
    CHARGE:  cpu time    4.1107: real time    4.1205
    MIXING:  cpu time    0.0085: real time    0.0085
    --------------------------------------------
      LOOP:  cpu time  130.8679: real time  131.1776

 eigenvalue-minimisations  : 42256
 total energy-change (2. order) :-0.1303403E+00  (-0.6857244E-01)
 number of electron     432.0000041 magnetization       9.1387021
 augmentation part      182.1143333 magnetization       6.1135582

 Broyden mixing:
  rms(total) = 0.77520E+00    rms(broyden)= 0.77506E+00
  rms(prec ) = 0.10298E+01
  weight for this iteration     100.00

 eigenvalues of (default mixing * dielectric matrix)
  average eigenvalue GAMMA=   0.4389
  2.1472  1.0691  1.0691  1.0327  0.5957  0.5957  0.3857  0.3857  0.2894  0.1375
  0.1375  0.1324  0.1324  0.1243  0.0988  0.0988  0.1015  0.0855  0.0830  0.0759

 Free energy of the ion-electron system (eV)
  ---------------------------------------------------
  alpha Z        PSCENC =      1166.52487208
  Ewald energy   TEWEN  =    -28016.54046401
  -Hartree energ DENC   =    -12904.78827175
  -exchange      EXHF   =         0.00000000
  -V(xc)+E(xc)   XCENC  =      1591.87606004
  PAW double counting   =     44945.74254230   -46864.28265292
  entropy T*S    EENTRO =        -0.07813219
  eigenvalues    EBANDS =      -913.98567026
  atomic energy  EATOM  =     40708.47505058
  Solvation  Ediel_sol  =         0.00000000
  ---------------------------------------------------
  free energy    TOTEN  =      -287.05666614 eV

  energy without entropy =     -286.97853394  energy(sigma->0) =     -287.01760004


--------------------------------------------------------------------------------------------------------




--------------------------------------- Iteration      1(  26)  ---------------------------------------


    POTLOK:  cpu time    0.1977: real time    0.1982
    SETDIJ:  cpu time    0.0233: real time    0.0234
     EDDAV:  cpu time  124.5603: real time  124.8552
    CHARGE:  cpu time    4.3615: real time    4.3719
    MIXING:  cpu time    0.0089: real time    0.0089
    --------------------------------------------
      LOOP:  cpu time  129.1517: real time  129.4575

 eigenvalue-minimisations  : 42048
 total energy-change (2. order) : 0.8140339E-01  (-0.4738294E-01)
 number of electron     432.0000041 magnetization       9.0013371
 augmentation part      182.1606908 magnetization       6.0487775

 Broyden mixing:
  rms(total) = 0.48305E+00    rms(broyden)= 0.48289E+00
  rms(prec ) = 0.59558E+00
  weight for this iteration     100.00

 eigenvalues of (default mixing * dielectric matrix)
[...]
  in kB      -56.1137602    -57.6901475     54.2510606      0.8297793     -2.9668378      4.7739510
  external PRESSURE =     -19.8509490 kB  Pullay stress =       0.0000000 kB


 VOLUME and BASIS-vectors are now :
 -----------------------------------------------------------------------------
  energy-cutoff  :      500.00
  volume of cell :      741.51
      direct lattice vectors                 reciprocal lattice vectors
     8.993883000  0.000000000  0.000000000     0.111186681  0.064193660  0.000000000
    -4.496941500  7.788931160  0.000000000     0.000000000  0.128387320  0.000000000
     0.000000000  0.000000000 10.584959750     0.000000000  0.000000000  0.094473671

  length of vectors
     8.993883000  8.993883003 10.584959750     0.128387320  0.128387320  0.094473671


 FORCES acting on ions
    electron-ion (+dipol)            ewald-force                    non-local-force                 convergence-correction
 -----------------------------------------------------------------------------------------------
   -.195E+02 0.116E+03 0.232E+03   0.192E+02 -.115E+03 -.235E+03   0.487E+00 -.890E+00 -.311E+01   -.980E-01 0.477E-01 -.629E-01
   -.409E+02 0.105E+03 0.911E+02   0.409E+02 -.105E+03 -.939E+02   -.715E+00 -.273E-01 -.178E+01   0.965E-01 0.590E-01 0.186E-01
   0.124E+02 0.658E+02 -.399E+02   -.119E+02 -.652E+02 0.408E+02   -.171E+00 -.540E+00 -.286E+01   -.522E-01 -.992E-02 0.406E-01
   0.251E+02 -.308E+02 0.104E+03   -.255E+02 0.302E+02 -.104E+03   -.121E+00 0.485E+00 -.327E+00   -.161E-01 -.323E-02 0.569E-01
   -.380E+02 -.244E+02 0.196E+03   0.382E+02 0.236E+02 -.212E+03   0.199E+00 0.533E+00 0.270E+01   -.578E-01 0.414E-01 -.377E-01
   -.457E+02 -.314E+02 -.222E+03   0.456E+02 0.312E+02 0.229E+03   -.204E+00 0.268E+00 -.175E+01   0.610E-02 0.169E-02 -.551E-01
   -.549E+02 -.867E+02 0.166E+03   0.538E+02 0.857E+02 -.170E+03   0.484E+00 0.459E+00 -.552E+00   -.180E-01 -.102E+00 0.630E-01
   -.572E+02 -.117E+03 0.308E+02   0.563E+02 0.117E+03 -.330E+02   0.335E+00 0.375E-01 0.216E+01   0.501E-01 -.453E-01 0.386E-01
   -.632E+02 -.130E+03 -.252E+03   0.621E+02 0.131E+03 0.270E+03   -.194E-01 -.449E+00 -.273E+01   0.649E-01 0.259E-01 -.124E+00
   0.384E+02 0.124E+03 0.949E+02   -.389E+02 -.123E+03 -.951E+02   0.207E+00 -.504E+00 -.115E+01   0.253E-01 0.191E-01 0.125E+00
   -.178E+01 0.180E+03 0.840E+02   0.128E+01 -.179E+03 -.840E+02   0.366E+00 -.139E+00 -.114E+01   0.797E-01 0.417E-01 0.207E-01
   0.618E+02 0.111E+03 -.367E+02   -.613E+02 -.110E+03 0.361E+02   0.249E+00 -.287E+00 -.142E+01   -.273E-01 -.960E-01 -.168E+00
   0.284E+02 0.197E+02 0.150E+03   -.284E+02 -.198E+02 -.154E+03   0.151E+00 -.104E+00 0.290E+01   -.639E-01 0.777E-01 0.172E+00
   0.369E+02 -.826E+01 -.338E+03   -.279E+02 0.880E+01 0.391E+03   -.513E+00 -.310E-01 -.124E+01   0.690E-01 -.462E-01 -.657E-01
   0.594E+02 -.111E+02 -.130E+03   -.596E+02 0.110E+02 0.132E+03   0.133E+00 0.457E+00 0.377E+00   -.116E+00 -.233E-01 -.664E-01
   0.534E+02 -.920E+02 0.372E+03   -.499E+02 0.940E+02 -.401E+03   0.302E-01 0.466E+00 -.215E+01   0.322E-01 -.863E-01 0.791E-01
   0.623E+02 -.408E+02 0.237E+03   -.629E+02 0.403E+02 -.244E+03   0.209E+00 -.610E+00 -.451E+01   -.550E-01 0.158E-01 -.375E-01
   0.617E+02 0.130E+02 -.824E+02   -.608E+02 -.123E+02 0.865E+02   -.605E-01 -.184E-02 -.368E+01   -.507E-01 -.967E-02 -.599E-01
   -.638E+02 0.261E+02 0.558E+02   0.632E+02 -.264E+02 -.563E+02   0.667E-01 -.129E+00 -.449E-01   0.979E-01 0.429E-01 0.387E-01
   -.873E+01 0.104E+03 0.193E+03   0.819E+01 -.103E+03 -.199E+03   0.254E-02 -.566E+00 -.309E+00   -.122E+00 0.656E-01 -.217E-01
   -.129E+02 0.586E+02 -.177E+03   0.133E+02 -.580E+02 0.180E+03   -.236E+00 -.519E+00 -.336E+00   0.671E-01 -.173E-01 -.302E-01
   -.600E+02 -.183E+02 0.135E+03   0.595E+02 0.181E+02 -.136E+03   0.406E+00 -.187E+00 -.850E+00   0.630E-01 0.703E-01 0.149E+00
   -.809E+02 0.208E+02 0.520E+02   0.806E+02 -.200E+02 -.534E+02   0.372E+00 -.370E+00 0.867E+00   -.229E-01 -.950E-01 -.926E-01
   -.288E+02 0.396E+02 -.235E+03   0.283E+02 -.403E+02 0.245E+03   0.218E+00 0.327E+00 -.127E+01   0.862E-01 0.111E-01 -.111E+00
   -.550E+02 -.118E+03 0.177E+03   0.547E+02 0.117E+03 -.177E+03   0.116E+00 0.843E+00 -.162E+01   -.632E-02 -.168E-01 0.299E-01
   -.218E+02 -.158E+03 0.332E+02   0.218E+02 0.157E+03 -.352E+02   -.384E+00 0.881E+00 0.254E+01   -.466E-02 -.937E-01 -.557E-01
   0.648E+02 -.668E+02 -.342E+03   -.650E+02 0.653E+02 0.372E+03   0.244E+00 0.541E+00 -.282E+01   0.127E-01 0.804E-01 0.301E-01
   0.484E+02 0.747E+02 -.189E+02   -.541E+02 -.750E+02 0.286E+02   0.651E+01 0.100E+00 -.519E+01   -.275E-01 0.363E-01 -.736E-01
   -.386E+00 0.608E+02 -.984E+02   -.161E+01 -.626E+02 0.110E+03   0.201E+01 0.174E+01 -.685E+01   0.740E-02 0.901E-02 0.139E+00
   0.171E+01 0.466E+02 -.152E+03   -.220E+01 -.472E+02 0.164E+03   0.635E+00 0.542E+00 -.102E+02   -.600E-01 -.148E-03 -.715E-01
   0.189E+02 -.268E+02 0.690E+02   -.190E+02 0.268E+02 -.712E+02   0.363E-01 -.270E-01 0.173E+01   -.193E-01 0.203E-01 -.996E-02
   0.110E+00 -.489E+02 -.907E+02   -.410E+01 0.514E+02 0.105E+03   0.388E+01 -.192E+01 -.498E+01   -.125E-01 0.193E-01 -.675E-01
   0.704E+01 -.199E+02 -.496E+02   -.110E+02 0.216E+02 0.509E+02   0.509E+01 -.187E+01 -.102E+01   0.163E-01 -.185E-01 0.551E-01
   -.176E+02 -.710E+02 -.560E+02   0.164E+02 0.737E+02 0.679E+02   0.151E+01 -.267E+01 -.773E+01   0.983E-02 -.561E-01 0.557E-01
   -.735E+02 -.514E+02 0.187E+03   0.766E+02 0.481E+02 -.218E+03   -.132E+01 0.273E+01 0.149E+02   0.436E-01 0.265E-02 0.131E-01
   -.365E+02 -.303E+02 -.845E+02   0.359E+02 0.266E+02 0.879E+02   0.627E+00 0.485E+01 -.267E+01   0.949E-03 -.668E-02 -.459E-01
   0.106E+02 0.864E+02 -.734E+01   -.107E+02 -.837E+02 0.124E+02   0.884E-01 -.355E+01 -.430E+01   0.228E-01 0.383E-01 0.342E+00
   -.446E+01 0.800E+02 -.177E+02   0.756E+01 -.802E+02 0.200E+02   -.395E+01 -.871E-01 -.168E+01   -.142E-02 -.132E-01 -.265E+00
   0.111E+02 0.725E+02 -.104E+03   -.818E+01 -.744E+02 0.112E+03   -.343E+01 0.228E+01 -.513E+01   0.636E-02 -.498E-01 -.101E+00
   0.980E+02 0.998E+01 0.297E+03   -.112E+03 -.119E+02 -.366E+03   0.579E+01 0.152E+01 0.182E+02   0.339E-01 0.145E-01 0.127E+00
   0.473E+02 -.119E+02 0.881E+02   -.467E+02 0.125E+02 -.101E+03   -.463E+00 -.665E+00 0.110E+02   -.153E-01 -.153E-01 -.124E+00
   0.269E+02 -.193E+02 -.647E+02   -.269E+02 0.206E+02 0.688E+02   0.124E+00 -.148E+01 -.356E+01   -.628E-01 0.225E-01 0.423E-01
   0.917E+02 -.273E+02 -.242E+03   -.992E+02 0.226E+02 0.293E+03   0.393E+01 0.235E+01 -.207E+02   0.737E-02 -.364E-01 0.301E-03
   0.400E+01 -.502E+02 -.119E+03   -.372E+00 0.556E+02 0.138E+03   -.381E+01 -.487E+01 -.866E+01   -.436E-01 0.215E-01 0.602E-01
   0.181E+02 -.574E+01 -.134E+03   -.171E+02 0.768E+01 0.144E+03   -.130E+01 -.254E+01 -.106E+02   0.168E-02 -.260E-01 -.385E-01
   0.103E+02 0.486E+02 -.215E+02   -.135E+02 -.492E+02 0.270E+02   0.423E+01 0.704E+00 -.459E+01   -.738E-02 0.381E-01 0.710E-01
   -.118E+01 0.568E+02 -.514E+02   0.914E+00 -.578E+02 0.579E+02   0.235E+00 0.827E+00 -.278E+01   -.280E-01 0.189E-01 -.949E-01
   -.304E+02 0.395E+02 0.121E+02   0.303E+02 -.422E+02 -.161E+02   0.140E+00 0.313E+01 0.370E+01   0.657E-01 -.201E-02 0.737E-02
   -.689E+02 0.496E+01 0.617E+02   0.710E+02 -.713E+01 -.626E+02   -.196E+01 0.243E+01 0.597E+00   -.175E-03 -.573E-02 0.598E-01
   -.325E+02 0.328E+01 0.570E+02   0.338E+02 -.179E+01 -.688E+02   -.126E+01 -.135E+01 0.523E+01   0.304E-01 -.203E-01 -.206E+00
   -.181E+02 0.126E+01 -.767E+02   0.188E+02 -.129E+01 0.798E+02   -.948E+00 0.130E+00 -.319E+01   0.564E-01 0.304E-01 0.105E+00
   -.124E+02 -.112E+03 0.202E+02   0.114E+02 0.116E+03 -.181E+02   0.146E+01 -.358E+01 -.168E+01   -.130E-01 -.498E-01 -.351E-01
   0.236E+02 -.963E+02 0.181E+03   -.244E+02 0.101E+03 -.221E+03   0.934E+00 -.365E+01 0.133E+02   0.522E-02 0.181E-01 -.929E-01
   0.617E+01 -.555E+02 -.714E+02   -.612E+01 0.573E+02 0.738E+02   -.676E-01 -.247E+01 -.258E+01   0.176E-02 0.466E-01 0.694E-01
 -----------------------------------------------------------------------------------------------
   -.207E+02 0.746E+01 0.637E+02   -.331E-12 0.298E-12 -.341E-12   0.206E+02 -.746E+01 -.635E+02   0.588E-01 -.849E-02 -.204E+00
 
 
 POSITION                                       TOTAL-FORCE (eV/Angst)
 -----------------------------------------------------------------------------------
      8.95213      0.07060      0.19160         0.011171      0.297235     -5.383442
      0.07667      0.08820      3.52310        -0.567489      0.023570     -4.495226
      8.85004      0.06522      6.98306         0.268180      0.072512     -1.885852
      7.52276      2.51317     10.56012        -0.563322     -0.128536     -0.357110
      7.34644      2.44339      3.65405         0.313096     -0.264440    -13.510962
      7.47590      2.52715      6.70087        -0.270391      0.037898      4.877962
      5.90510      5.02515     10.53855        -0.566912     -0.652225     -4.532036
      5.98789      4.93967      3.41649        -0.515752     -0.009705      0.001446
      5.60255      5.07326      6.84380        -0.994382      0.415499     15.494451
      2.99590      0.08279     10.42566        -0.205101     -0.007597     -1.304506
      2.87697      0.11795      3.44153        -0.056162      0.376247     -1.181092
     -1.67596      7.75907      6.92201         0.718905      0.266229     -2.101819
      1.33958      2.62540      0.02326         0.031698     -0.170985     -0.756295
      1.61296      2.57907      3.09169         8.547033      0.461407     51.683843
      1.41021      2.40886      6.90795        -0.181540      0.360938      1.885744
      0.12965      5.16506      0.18909         3.502957      2.373221    -31.061862
     -0.05599      5.08571      3.61337        -0.498024     -1.100618    -11.636881
     -0.16094      5.11895      6.84059         0.768572      0.670726      0.347338
      5.87831      0.11009     10.49672        -0.366924     -0.313787     -0.504995
      6.02412      0.06769      3.55706        -0.654636      0.205859     -5.863005
      5.85897      0.01725      6.81220         0.212507      0.053266      2.385209
      4.32715      2.61256     10.57238        -0.126472     -0.272901     -1.312554
      4.28546      2.58276      3.48954         0.029837      0.288624     -0.572294
      4.27392      2.45054      6.74515        -0.184098     -0.318660      8.705280
      2.86743      4.98720      0.00315        -0.190618     -0.010263     -2.034951
      2.99228      4.90697      3.46931        -0.378656      0.104908      0.509248
      2.91667      4.99052      6.62404         0.049723     -0.891801     27.469055
      8.77971      0.07191      1.76787         0.768759     -0.117441      4.434861
      4.40222      7.77603      5.10031         0.022245     -0.051886      4.815599
      8.87944      0.03868      8.64828         0.088321     -0.047541      2.034070
      7.48350      2.50560      1.85591        -0.069405      0.003427     -0.425090
      7.28350      2.55728      5.10150        -0.121969      0.608764      9.279702
      7.23426      2.61628      8.60120         1.104889     -0.228567      0.330161
      5.89147      5.12345      1.54650         0.368702      0.034157      4.221485
      5.75294      4.94533      5.43026         1.755958     -0.585078    -15.674570
      5.73516      4.83365      8.61407         0.100252      1.075885      0.657185
      2.87401      0.25511      1.55257         0.057860     -0.775247      1.099354
      3.02358      0.02208      5.15723        -0.852924     -0.285459      0.420981
     -1.48733      7.67939      8.56435        -0.462415      0.275495      2.932403
      1.39791      2.56614      1.87915        -8.610147     -0.343209    -50.934013
      1.48021      2.52918      5.24651         0.071326     -0.057941     -1.891788
      1.35413      2.55733      8.67248         0.080014     -0.206697      0.578002
     -0.03180      5.04907      1.49009        -3.647026     -2.312539     30.752636
      0.02535      5.25413      5.07235        -0.225524      0.492006     10.833093
     -0.01118      5.28584      8.54806        -0.265434     -0.626660      0.159182
      5.73122      0.02398      1.65007         1.009893      0.139816      0.898070
      5.96057      0.01830      5.12915        -0.059036     -0.187086      3.576393
      1.37600      7.70322      8.73127         0.081859      0.523750     -0.286165
      4.35452      2.54279      1.74805         0.054932      0.264116     -0.232816
      4.34433      2.56931      5.22383         0.163418      0.127112     -6.716179
      4.32226      2.47796      8.58356        -0.129269      0.138826      0.027968
      2.83670      5.07333      1.71808         0.421616     -0.093528      0.384931
      2.92164      5.08049      5.28124         0.179119      1.020944    -26.056578
      2.87474      5.14302      8.54249        -0.019211     -0.652042     -0.083573
 -----------------------------------------------------------------------------------
    total drift:                               -0.007332     -0.006426      0.012299


--------------------------------------------------------------------------------------------------------



  FREE ENERGIE OF THE ION-ELECTRON SYSTEM (eV)
  ---------------------------------------------------
  free  energy   TOTEN  =      -287.1734546319 eV

  energy  without entropy=     -287.1115562287  energy(sigma->0) =     -287.14250543
 


--------------------------------------------------------------------------------------------------------


    POTLOK:  cpu time    0.2458: real time    0.2464


--------------------------------------------------------------------------------------------------------


     LOOP+:  cpu time 9653.4859: real time 9676.7013
    4ORBIT:  cpu time    0.0000: real time    0.0000

volume of typ            1:    23.2 %

volume of typ            2:     5.9 %
 
total charge     
 
# of ion       s       p       d       tot
------------------------------------------
    1        0.267   0.232   7.966   8.466
    2        0.305   0.317   7.919   8.540
    3        0.273   0.249   7.888   8.411
    4        0.217   0.162   7.885   8.264
    5        0.361   0.404   7.973   8.738
    6        0.273   0.261   7.945   8.478
    7        0.284   0.261   7.912   8.456
    8        0.197   0.139   7.969   8.305
    9        0.371   0.435   7.955   8.761
   10        0.252   0.222   7.900   8.374
   11        0.250   0.220   7.902   8.373
   12        0.282   0.283   7.915   8.479
   13        0.216   0.174   7.944   8.333
   14        0.478   0.543   8.156   9.177
   15        0.288   0.291   7.882   8.461
   16        0.431   0.433   8.065   8.930
   17        0.329   0.304   7.998   8.631
   18        0.268   0.245   7.900   8.413
   19        0.268   0.250   7.870   8.388
   20        0.286   0.274   7.949   8.509
   21        0.246   0.218   7.936   8.401
   22        0.231   0.188   7.916   8.335
   23        0.274   0.270   7.916   8.461
   24        0.316   0.340   7.936   8.592
   25        0.244   0.199   7.895   8.339
   26        0.245   0.222   7.949   8.416
   27        0.409   0.466   8.029   8.904
   28        1.273   2.766   0.012   4.051
   29        1.270   2.762   0.010   4.042
   30        1.278   2.689   0.006   3.973
   31        1.269   2.703   0.005   3.977
   32        1.282   2.852   0.026   4.160
   33        1.278   2.648   0.003   3.929
   34        1.271   2.746   0.010   4.027
   35        1.284   2.803   0.019   4.106
   36        1.270   2.698   0.004   3.972
   37        1.269   2.718   0.006   3.994
   38        1.269   2.732   0.008   4.009
   39        1.271   2.729   0.008   4.008
   40        1.318   2.903   0.043   4.264
   41        1.275   2.708   0.006   3.989
   42        1.275   2.683   0.005   3.963
   43        1.301   2.846   0.029   4.175
   44        1.278   2.809   0.018   4.105
   45        1.281   2.666   0.005   3.952
   46        1.268   2.711   0.005   3.984
   47        1.271   2.793   0.015   4.079
   48        1.272   2.692   0.005   3.968
   49        1.272   2.723   0.008   4.002
   50        1.275   2.800   0.016   4.091
   51        1.277   2.663   0.003   3.943
   52        1.268   2.739   0.008   4.015
   53        1.294   2.858   0.029   4.181
   54        1.278   2.648   0.002   3.928
--------------------------------------------------
tot          42.34   81.69  214.78  338.82
 
magnetization (x)
 
# of ion       s       p       d       tot
------------------------------------------
    1        0.002  -0.003   0.173   0.172
    2       -0.011   0.001  -0.626  -0.636
    3        0.012   0.000   0.904   0.916
    4       -0.009   0.002  -0.962  -0.970
    5        0.005   0.005   0.260   0.270
    6        0.002   0.002   0.256   0.260
    7        0.015   0.004   0.957   0.976
    8        0.003   0.004   0.439   0.446
    9        0.019   0.005   0.784   0.808
   10        0.012  -0.001   0.840   0.851
   11       -0.006   0.001  -0.643  -0.648
   12        0.007   0.002   0.128   0.136
   13        0.001  -0.000   0.077   0.077
   14        0.004   0.016   0.359   0.380
   15        0.003  -0.000   0.009   0.012
   16        0.025   0.026   0.952   1.003
   17       -0.008  -0.007  -0.733  -0.748
   18        0.006  -0.001   0.692   0.697
   19       -0.016   0.004  -0.942  -0.954
   20        0.004   0.005   0.516   0.524
   21        0.006   0.002   0.495   0.503
   22        0.003  -0.002   0.234   0.235
   23       -0.003   0.001  -0.354  -0.356
   24        0.005  -0.002   0.359   0.362
   25        0.010  -0.003   1.036   1.043
   26       -0.001   0.001   0.107   0.107
   27       -0.004  -0.012  -0.345  -0.360
   28       -0.002  -0.067   0.000  -0.069
   29       -0.003  -0.131  -0.000  -0.134
   30        0.011   0.457   0.000   0.468
   31       -0.005  -0.160   0.000  -0.165
   32        0.004   0.153  -0.000   0.157
   33       -0.010  -0.359   0.000  -0.369
   34        0.010   0.388   0.000   0.398
   35        0.006   0.268   0.001   0.275
   36        0.005   0.222   0.000   0.227
   37        0.004   0.160   0.000   0.165
   38       -0.007  -0.249   0.000  -0.255
   39        0.006   0.230  -0.000   0.235
   40        0.004   0.169   0.001   0.174
   41        0.000   0.006   0.000   0.007
   42       -0.001  -0.052   0.000  -0.053
   43        0.008   0.396   0.003   0.407
   44       -0.006  -0.238  -0.000  -0.244
   45        0.012   0.501   0.000   0.513
   46       -0.006  -0.235  -0.000  -0.241
   47        0.007   0.262  -0.000   0.268
   48       -0.008  -0.292  -0.000  -0.300
   49       -0.003  -0.107   0.000  -0.110
   50       -0.000   0.014   0.000   0.014
   51        0.006   0.247  -0.000   0.253
   52        0.010   0.334  -0.000   0.344
   53       -0.004  -0.177  -0.000  -0.182
   54        0.008   0.321  -0.000   0.329
--------------------------------------------------
tot           0.13    2.11    4.98    7.22
 

 total amount of memory used by VASP MPI-rank0   439655. kBytes
=======================================================================

   base      :      30000. kBytes
   nonlr-proj:      41409. kBytes
   fftplans  :       8419. kBytes
   grid      :      47806. kBytes
   one-center:       1679. kBytes
   wavefun   :     310342. kBytes
 
  
  
 General timing and accounting informations for this job:
 ========================================================
  
                  Total CPU time used (sec):     9723.344
                            User time (sec):     9714.898
                          System time (sec):        8.446
                         Elapsed time (sec):     9751.550
  
                   Maximum memory used (kb):      525896.
                   Average memory used (kb):           0.
  
                          Minor page faults:        44542
                          Major page faults:           34
                 Voluntary context switches:         1188
