 vasp.5.4.4.18Apr17-6-g9f103f2a35 (build May 12 2020 04:58:55) complex          
  
 MD_VERSION_INFO: Compiled 2020-05-12T11:58:55-UTC in devlin.sd.materialsdesign.
 com:/home/medea2/data/build/wwolf/vasp-gpu5.4.4/13047/x86_64/src/src/build/std 
 from svn 13047
 
 This VASP executable licensed from Materials Design, Inc.
 
 executed on                        Lin64 date 2023.03.24  03:56:29
 running on   16 total cores
 distrk:  each k-point on   16 cores,    1 groups
 distr:  one band on NCORES_PER_BAND=   1 cores,   16 groups


--------------------------------------------------------------------------------------------------------


 INCAR:
 POTCAR:    PAW_PBE Ni 02Aug2007                  
 POTCAR:    PAW_PBE O 08Apr2002                   

 ----------------------------------------------------------------------------- 
|                                                                             |
|           W    W    AA    RRRRR   N    N  II  N    N   GGGG   !!!           |
|           W    W   A  A   R    R  NN   N  II  NN   N  G    G  !!!           |
|           W    W  A    A  R    R  N N  N  II  N N  N  G       !!!           |
|           W WW W  AAAAAA  RRRRR   N  N N  II  N  N N  G  GGG   !            |
|           WW  WW  A    A  R   R   N   NN  II  N   NN  G    G                |
|           W    W  A    A  R    R  N    N  II  N    N   GGGG   !!!           |
|                                                                             |
|      For optimal performance we recommend to set                            |
|        NCORE= 4 - approx SQRT( number of cores)                             |
|      NCORE specifies how many cores store one orbital (NPAR=cpu/NCORE).     |
|      This setting can  greatly improve the performance of VASP for DFT.     |
|      The default,   NCORE=1            might be grossly inefficient         |
|      on modern multi-core architectures or massively parallel machines.     |
|      Do your own testing !!!!                                               |
|      Unfortunately you need to use the default for GW and RPA calculations. |
|      (for HF NCORE is supported but not extensively tested yet)             |
|                                                                             |
 ----------------------------------------------------------------------------- 

 POTCAR:    PAW_PBE Ni 02Aug2007                  
  local pseudopotential read in
  partial core-charges read in
  partial kinetic energy density read in
  atomic valenz-charges read in
  non local Contribution for L=           2  read in
    real space projection operators read in
  non local Contribution for L=           2  read in
    real space projection operators read in
  non local Contribution for L=           0  read in
    real space projection operators read in
  non local Contribution for L=           0  read in
    real space projection operators read in
  non local Contribution for L=           1  read in
    real space projection operators read in
  non local Contribution for L=           1  read in
    real space projection operators read in
    PAW grid and wavefunctions read in
 
   number of l-projection  operators is LMAX  =           6
   number of lm-projection operators is LMMAX =          18
 
 POTCAR:    PAW_PBE O 08Apr2002                   
  local pseudopotential read in
  partial core-charges read in
  partial kinetic energy density read in
  kinetic energy density of atom read in
  atomic valenz-charges read in
  non local Contribution for L=           0  read in
    real space projection operators read in
  non local Contribution for L=           0  read in
    real space projection operators read in
  non local Contribution for L=           1  read in
    real space projection operators read in
  non local Contribution for L=           1  read in
    real space projection operators read in
    PAW grid and wavefunctions read in
 
   number of l-projection  operators is LMAX  =           4
   number of lm-projection operators is LMMAX =           8
 
 Optimization of the real space projectors (new method)

 maximal supplied QI-value         = 16.25
 optimisation between [QCUT,QGAM] = [ 11.38, 22.75] = [ 36.24,144.96] Ry 
 Optimized for a Real-space Cutoff    1.47 Angstroem

   l    n(q)    QCUT    max X(q) W(low)/X(q) W(high)/X(q)  e(spline) 
   2      9    11.376    60.317    0.17E-03    0.16E-04    0.16E-06
   2      9    11.376    55.921    0.17E-03    0.16E-04    0.17E-06
   0     10    11.376    51.690    0.45E-04    0.60E-04    0.21E-06
   0     10    11.376    30.015    0.37E-04    0.55E-04    0.19E-06
   1     10    11.376    18.849    0.83E-04    0.11E-03    0.92E-07
   1     10    11.376    14.624    0.69E-04    0.92E-04    0.82E-07
 Optimization of the real space projectors (new method)

 maximal supplied QI-value         = 24.76
 optimisation between [QCUT,QGAM] = [ 11.39, 22.77] = [ 36.31,145.25] Ry 
 Optimized for a Real-space Cutoff    1.10 Angstroem

   l    n(q)    QCUT    max X(q) W(low)/X(q) W(high)/X(q)  e(spline) 
   0      7    11.387    20.381    0.22E-03    0.48E-03    0.18E-06
   0      7    11.387    15.268    0.22E-03    0.52E-03    0.19E-06
   1      7    11.387     5.964    0.22E-03    0.73E-03    0.24E-06
   1      7    11.387     5.382    0.19E-03    0.60E-03    0.21E-06

 ----------------------------------------------------------------------------- 
|                                                                             |
|  ADVICE TO THIS USER RUNNING 'VASP/VAMP'   (HEAR YOUR MASTER'S VOICE ...):  |
|                                                                             |
|      You enforced a specific xc-type in the INCAR file,                     |
|      a different type was found on the POTCAR file                          |
|          I HOPE YOU KNOW, WHAT YOU ARE  DOING                               |
|                                                                             |
 ----------------------------------------------------------------------------- 

  PAW_PBE Ni 02Aug2007                  :
 energy of atom  1       EATOM=-1077.6739
 kinetic energy error for atom=    0.0030 (will be added to EATOM!!)
  PAW_PBE O 08Apr2002                   :
 energy of atom  2       EATOM= -432.3788
 kinetic energy error for atom=    0.0224 (will be added to EATOM!!)
 
 
 POSCAR: NiO_Cmmm_scale_1_025_disp_0_05_round_2  
  positions in direct lattice
  No initial velocities read in
 exchange correlation table for  LEXCH =       14
   RHO(1)=    0.500       N(1)  =     2000
   RHO(2)=  100.500       N(2)  =     4000
 


--------------------------------------------------------------------------------------------------------


 ion  position               nearest neighbor table
   1  0.008  0.011  0.999-  28 1.81  30 1.98  13 2.78  10 2.96   4 3.02   7 3.07
   2  0.001  0.998  0.321-  28 1.60  29 1.64  14 2.92  11 2.94  26 3.05   8 3.06   5 3.07
   3  0.991  0.989  0.652-  30 1.70  29 1.86   9 2.90  12 2.99  27 2.99  15 3.05  21 3.07
   4  0.974  0.328  1.000-  31 1.74  33 1.93  19 2.83  22 2.86   7 2.93   1 3.02
   5  0.982  0.330  0.321-  31 1.67  32 1.75   8 2.88  17 2.97  20 3.03  23 3.04   2 3.07
   6  0.972  0.326  0.655-  33 1.73  32 1.78  24 2.81  21 2.86   9 2.99  18 3.06
   7  0.974  0.653  1.000-  34 1.75  36 1.91  25 2.81  22 2.92   4 2.93   1 3.07
   8  0.975  0.646  0.330-  35 1.72  34 1.74   5 2.88  23 2.95  26 2.96   2 3.06
   9  0.981  0.662  0.650-  35 1.68  36 1.79  27 2.81   3 2.90  24 2.96   6 2.99
  10  0.329  0.995  0.002-  37 1.60  39 2.09  19 2.87  22 2.94   1 2.96  13 3.01  16 3.02
  11  0.327  0.997  0.318-  37 1.76  38 1.81  20 2.84  23 2.89   2 2.94  14 2.97
  12  0.330  0.003  0.652-  39 1.63  38 1.72  15 2.91  24 2.93  21 2.94   3 2.99
  13  0.315  0.322  0.001-  40 1.65  42 2.03   1 2.78  16 2.97  10 3.01  25 3.02  22 3.04
  14  0.323  0.325  0.329-  41 1.62  40 1.83  23 2.87  17 2.90   2 2.92  11 2.97  26 3.03
  15  0.330  0.326  0.637-  41 1.64  42 1.83  18 2.87  12 2.91  27 2.96  24 2.97   3 3.05
  16  0.330  0.659  0.997-  43 1.86  45 1.95  13 2.97  25 3.01  10 3.02  19 3.08
  17  0.323  0.648  0.325-  43 1.62  44 1.73  14 2.90  26 2.92   5 2.97  20 3.01
  18  0.330  0.645  0.653-  45 1.69  44 1.75  15 2.87  27 2.96   6 3.06
  19  0.657  0.015  0.003-  46 1.67  48 2.03  22 2.79   4 2.83  10 2.87  16 3.08
  20  0.643  0.996  0.320-  46 1.70  47 1.83  11 2.84  23 2.97  17 3.01   5 3.03  26 3.04
  21  0.658  0.005  0.652-  47 1.69  48 1.69   6 2.86  24 2.87  12 2.94   3 3.07
  22  0.654  0.323  0.999-  49 1.76  51 1.92  19 2.79   4 2.86  25 2.90   7 2.92  10 2.94  13 3.04

  23  0.641  0.325  0.323-  49 1.67  50 1.75  14 2.87  11 2.89   8 2.95  20 2.97  26 2.99   5 3.04

  24  0.659  0.325  0.652-  50 1.73  51 1.76   6 2.81  21 2.87  27 2.92  12 2.93   9 2.96  15 2.97

  25  0.659  0.648  1.000-  52 1.75  54 2.02   7 2.81  22 2.90  16 3.01  13 3.02
  26  0.656  0.665  0.327-  53 1.69  52 1.73  17 2.92   8 2.96  23 2.99  14 3.03  20 3.04   2 3.05

  27  0.663  0.651  0.647-  53 1.71  54 1.72   9 2.81  24 2.92  15 2.96  18 2.96   3 2.99
  28  0.995  0.000  0.170-   2 1.60   1 1.81
  29  0.998  0.002  0.476-   2 1.64   3 1.86
  30  0.005  0.996  0.812-   3 1.70   1 1.98
  31  0.971  0.324  0.163-   5 1.67   4 1.74
  32  0.978  0.326  0.486-   5 1.75   6 1.78
  33  0.979  0.315  0.818-   6 1.73   4 1.93
  34  0.978  0.647  0.165-   8 1.74   7 1.75
  35  0.974  0.645  0.492-   9 1.68   8 1.72
  36  0.979  0.657  0.819-   9 1.79   7 1.91
  37  0.314  0.001  0.152-  10 1.60  11 1.76
  38  0.331  0.002  0.489-  12 1.72  11 1.81
  39  0.331  0.009  0.806-  12 1.63  10 2.09
  40  0.330  0.335  0.156-  13 1.65  14 1.83
  41  0.320  0.323  0.482-  14 1.62  15 1.64
  42  0.325  0.322  0.810-  15 1.83  13 2.03
  43  0.317  0.658  0.173-  17 1.62  16 1.86
  44  0.321  0.651  0.488-  17 1.73  18 1.75
  45  0.330  0.655  0.813-  18 1.69  16 1.95
  46  0.643  0.992  0.160-  19 1.67  20 1.70
  47  0.651  0.003  0.493-  21 1.69  20 1.83
  48  0.657  0.999  0.811-  21 1.69  19 2.03
  49  0.649  0.325  0.165-  23 1.67  22 1.76
  50  0.650  0.331  0.489-  24 1.73  23 1.75
  51  0.645  0.325  0.817-  24 1.76  22 1.92
  52  0.639  0.649  0.164-  26 1.73  25 1.75
  53  0.656  0.645  0.485-  26 1.69  27 1.71
  54  0.656  0.644  0.808-  27 1.72  25 2.02
 
  LATTYP: Found a hexagonal cell.
 ALAT       =     8.9938830029
 C/A-ratio  =     1.1769065427
  
  Lattice vectors:
  
 A1 = (   8.9938830000,   0.0000000000,   0.0000000000)
 A2 = (  -4.4969415000,   7.7889311600,   0.0000000000)
 A3 = (   0.0000000000,   0.0000000000,  10.5849597500)


Analysis of symmetry for initial positions (statically):
=====================================================================
 Subroutine PRICEL returns:
 Original cell was already a primitive cell.
 

 Routine SETGRP: Setting up the symmetry group for a 
 hexagonal supercell.


 Subroutine GETGRP returns: Found  1 space group operations
 (whereof  1 operations were pure point group operations)
 out of a pool of 24 trial point group operations.


The static configuration has the point symmetry C_1 .


Analysis of symmetry for dynamics (positions and initial velocities):
=====================================================================
 Subroutine PRICEL returns:
 Original cell was already a primitive cell.
 

 Routine SETGRP: Setting up the symmetry group for a 
 hexagonal supercell.


 Subroutine GETGRP returns: Found  1 space group operations
 (whereof  1 operations were pure point group operations)
 out of a pool of 24 trial point group operations.


The dynamic configuration has the point symmetry C_1 .


Analysis of structural, dynamic, and magnetic symmetry:
=====================================================================
 Subroutine PRICEL returns:
 Original cell was already a primitive cell.
 

 Routine SETGRP: Setting up the symmetry group for a 
 hexagonal supercell.


 Subroutine GETGRP returns: Found  1 space group operations
 (whereof  1 operations were pure point group operations)
 out of a pool of 24 trial point group operations.


The magnetic configuration has the point symmetry C_1 .


 Subroutine INISYM returns: Found  1 space group operations
 (whereof  1 operations are pure point group operations),
 and found     1 'primitive' translations

 
 
 KPOINTS: Automatic mesh                          

Automatic generation of k-mesh.
Space group operators:
 irot       det(A)        alpha          n_x          n_y          n_z        tau_x        tau_y        tau_z
    1     1.000000     0.000000     1.000000     0.000000     0.000000     0.000000     0.000000     0.000000
 
 Subroutine IBZKPT returns following result:
 ===========================================
 
 Found     26 irreducible k-points:
 
 Following reciprocal coordinates:
            Coordinates               Weight
  0.000000  0.000000  0.000000      1.000000
  0.250000 -0.000000  0.000000      2.000000
  0.500000 -0.000000  0.000000      1.000000
  0.000000  0.250000  0.000000      2.000000
  0.250000  0.250000  0.000000      2.000000
  0.500000  0.250000  0.000000      2.000000
 -0.250000  0.250000  0.000000      2.000000
  0.000000  0.500000  0.000000      1.000000
  0.250000  0.500000  0.000000      2.000000
  0.500000  0.500000  0.000000      1.000000
  0.000000  0.000000  0.333333      2.000000
  0.250000 -0.000000  0.333333      2.000000
  0.500000 -0.000000  0.333333      2.000000
 -0.250000  0.000000  0.333333      2.000000
  0.000000  0.250000  0.333333      2.000000
  0.250000  0.250000  0.333333      2.000000
  0.500000  0.250000  0.333333      2.000000
 -0.250000  0.250000  0.333333      2.000000
  0.000000  0.500000  0.333333      2.000000
  0.250000  0.500000  0.333333      2.000000
  0.500000  0.500000  0.333333      2.000000
 -0.250000  0.500000  0.333333      2.000000
  0.000000 -0.250000  0.333333      2.000000
  0.250000 -0.250000  0.333333      2.000000
  0.500000 -0.250000  0.333333      2.000000
 -0.250000 -0.250000  0.333333      2.000000
 
 Following cartesian coordinates:
            Coordinates               Weight
  0.000000  0.000000  0.000000      1.000000
  0.027797  0.016048  0.000000      2.000000
  0.055593  0.032097  0.000000      1.000000
  0.000000  0.032097  0.000000      2.000000
  0.027797  0.048145  0.000000      2.000000
  0.055593  0.064194  0.000000      2.000000
 -0.027797  0.016048  0.000000      2.000000
  0.000000  0.064194  0.000000      1.000000
  0.027797  0.080242  0.000000      2.000000
  0.055593  0.096290  0.000000      1.000000
  0.000000  0.000000  0.031491      2.000000
  0.027797  0.016048  0.031491      2.000000
  0.055593  0.032097  0.031491      2.000000
 -0.027797 -0.016048  0.031491      2.000000
  0.000000  0.032097  0.031491      2.000000
  0.027797  0.048145  0.031491      2.000000
  0.055593  0.064194  0.031491      2.000000
 -0.027797  0.016048  0.031491      2.000000
  0.000000  0.064194  0.031491      2.000000
  0.027797  0.080242  0.031491      2.000000
  0.055593  0.096290  0.031491      2.000000
 -0.027797  0.048145  0.031491      2.000000
  0.000000 -0.032097  0.031491      2.000000
  0.027797 -0.016048  0.031491      2.000000
  0.055593  0.000000  0.031491      2.000000
 -0.027797 -0.048145  0.031491      2.000000
 


--------------------------------------------------------------------------------------------------------




 Dimension of arrays:
   k-points           NKPTS =     26   k-points in BZ     NKDIM =     26   number of bands    NBANDS=    304
   number of dos      NEDOS =    301   number of ions     NIONS =     54
   non local maximal  LDIM  =      6   non local SUM 2l+1 LMDIM =     18
   total plane-waves  NPLWV = 392000
   max r-space proj   IRMAX =   7147   max aug-charges    IRDMAX=  17334
   dimension x,y,z NGX =    70 NGY =   70 NGZ =   80
   dimension x,y,z NGXF=   140 NGYF=  140 NGZF=  160
   support grid    NGXF=   140 NGYF=  140 NGZF=  160
   ions per type =              27  27
   NGX,Y,Z   is equivalent  to a cutoff of  12.94, 12.94, 12.56 a.u.
   NGXF,Y,Z  is equivalent  to a cutoff of  25.88, 25.88, 25.13 a.u.

 SYSTEM =  unknown system                          
 POSCAR =  NiO_Cmmm_scale_1_025_disp_0_05_round_2  

 Startparameter for this run:
   NWRITE =      1    write-flag & timer
   PREC   = accura    normal or accurate (medium, high low for compatibility)
   ISTART =      0    job   : 0-new  1-cont  2-samecut
   ICHARG =      2    charge: 1-file 2-atom 10-const
   ISPIN  =      2    spin polarized calculation?
   LNONCOLLINEAR =      F non collinear calculations
   LSORBIT =      F    spin-orbit coupling
   INIWAV =      1    electr: 0-lowe 1-rand  2-diag
   LASPH  =      F    aspherical Exc in radial PAW
   METAGGA=      F    non-selfconsistent MetaGGA calc.

 Electronic Relaxation 1
   ENCUT  =  500.0 eV  36.75 Ry    6.06 a.u.  16.40 16.40 19.30*2*pi/ulx,y,z
   ENINI  =  500.0     initial cutoff
   ENAUG  =  605.4 eV  augmentation charge cutoff
   NELM   =     80;   NELMIN=  2; NELMDL= -5     # of ELM steps 
   EDIFF  = 0.1E-04   stopping-criterion for ELM
   LREAL  =      T    real-space projection
   NLSPLINE    = F    spline interpolate recip. space projectors
   LCOMPAT=      F    compatible to vasp.4.4
   GGA_COMPAT  = T    GGA compatible to vasp.4.4-vasp.4.6
   LMAXPAW     = -100 max onsite density
   LMAXMIX     =    2 max onsite mixed and CHGCAR
   VOSKOWN=      1    Vosko Wilk Nusair interpolation
   ROPT   =   -0.00025  -0.00025
 Ionic relaxation
   EDIFFG = 0.1E-03   stopping-criterion for IOM
   NSW    =      0    number of steps for IOM
   NBLOCK =      1;   KBLOCK =      1    inner block; outer block 
   IBRION =     -1    ionic relax: 0-MD 1-quasi-New 2-CG
   NFREE  =      0    steps in history (QN), initial steepest desc. (CG)
   ISIF   =      2    stress and relaxation
   IWAVPR =     10    prediction:  0-non 1-charg 2-wave 3-comb
   ISYM   =      2    0-nonsym 1-usesym 2-fastsym
   LCORR  =      T    Harris-Foulkes like correction to forces

   POTIM  = 0.5000    time-step for ionic-motion
   TEIN   =    0.0    initial temperature
   TEBEG  =    0.0;   TEEND  =   0.0 temperature during run
   SMASS  =  -3.00    Nose mass-parameter (am)
   estimated Nose-frequenzy (Omega)   =  0.10E-29 period in steps =****** mass=  -0.185E-26a.u.
   SCALEE = 1.0000    scale energy and forces
   NPACO  =    256;   APACO  = 16.0  distance and # of slots for P.C.
   PSTRESS=    0.0 pullay stress

  Mass of Ions in am
   POMASS =  58.69 16.00
  Ionic Valenz
   ZVAL   =  10.00  6.00
  Atomic Wigner-Seitz radii
   RWIGS  =   1.15  0.73
  virtual crystal weights 
   VCA    =   1.00  1.00
   NELECT =     432.0000    total number of electrons
   NUPDOWN=      -1.0000    fix difference up-down

 DOS related values:
   EMIN   =  10.00;   EMAX   =-10.00  energy-range for DOS
   EFERMI =   0.00
   ISMEAR =     0;   SIGMA  =   0.05  broadening in eV -4-tet -1-fermi 0-gaus

 Electronic relaxation 2 (details)
   IALGO  =     38    algorithm
   LDIAG  =      T    sub-space diagonalisation (order eigenvalues)
   LSUBROT=      F    optimize rotation matrix (better conditioning)
   TURBO    =      0    0=normal 1=particle mesh
   IRESTART =      0    0=no restart 2=restart with 2 vectors
   NREBOOT  =      0    no. of reboots
   NMIN     =      0    reboot dimension
   EREF     =   0.00    reference energy to select bands
   IMIX   =      4    mixing-type and parameters
     AMIX     =   0.40;   BMIX     =  1.00
     AMIX_MAG =   1.60;   BMIX_MAG =  1.00
     AMIN     =   0.10
     WC   =   100.;   INIMIX=   1;  MIXPRE=   1;  MAXMIX= -45

 Intra band minimization:
   WEIMIN = 0.0000     energy-eigenvalue tresh-hold
   EBREAK =  0.82E-08  absolut break condition
   DEPER  =   0.30     relativ break condition  

   TIME   =   0.40     timestep for ELM

  volume/ion in A,a.u.               =      13.73        92.67
  Fermi-wavevector in a.u.,A,eV,Ry     =   1.367303  2.583827 25.436315  1.869516
  Thomas-Fermi vector in A             =   2.493367
 
 Write flags
   LWAVE        =      F    write WAVECAR
   LDOWNSAMPLE  =      F    k-point downsampling of WAVECAR
   LCHARG       =      T    write CHGCAR
   LVTOT        =      F    write LOCPOT, total local potential
   LVHAR        =      F    write LOCPOT, Hartree potential only
   LELF         =      F    write electronic localiz. function (ELF)
   LORBIT       =      0    0 simple, 1 ext, 2 COOP (PROOUT), +10 PAW based schemes


 Dipole corrections
   LMONO  =      F    monopole corrections only (constant potential shift)
   LDIPOL =      F    correct potential (dipole corrections)
   IDIPOL =      0    1-x, 2-y, 3-z, 4-all directions 
   EPSILON=  1.0000000 bulk dielectric constant

 Exchange correlation treatment:
   GGA     =    PS    GGA type
   LEXCH   =    14    internal setting for exchange type
   VOSKOWN=      1    Vosko Wilk Nusair interpolation
   LHFCALC =     F    Hartree Fock is set to
   LHFONE  =     F    Hartree Fock one center treatment
   AEXX    =    0.0000 exact exchange contribution

 Linear response parameters
   LEPSILON=     F    determine dielectric tensor
   LRPA    =     F    only Hartree local field effects (RPA)
   LNABLA  =     F    use nabla operator in PAW spheres
   LVEL    =     F    velocity operator in full k-point grid
   LINTERFAST=   F  fast interpolation
   KINTER  =     0    interpolate to denser k-point grid
   CSHIFT  =0.1000    complex shift for real part using Kramers Kronig
   OMEGAMAX=  -1.0    maximum frequency
   DEG_THRESHOLD= 0.2000000E-02 threshold for treating states as degnerate
   RTIME   =   -0.100 relaxation time in fs
  (WPLASMAI=    0.000 imaginary part of plasma frequency in eV, 0.658/RTIME)
   DFIELD  = 0.0000000 0.0000000 0.0000000 field for delta impulse in time
 
 Orbital magnetization related:
   ORBITALMAG=     F  switch on orbital magnetization
   LCHIMAG   =     F  perturbation theory with respect to B field
   DQ        =  0.001000  dq finite difference perturbation B field
   LLRAUG    =     F  two centre corrections for induced B field



--------------------------------------------------------------------------------------------------------


 Static calculation
 charge density and potential will be updated during run
 spin polarized calculation
 Variant of blocked Davidson
 Davidson routine will perform the subspace rotation
 perform sub-space diagonalisation
    after iterative eigenvector-optimisation
 modified Broyden-mixing scheme, WC =      100.0
 initial mixing is a Kerker type mixing with AMIX =  0.4000 and BMIX =      1.0000
 Hartree-type preconditioning will be used
 using additional bands           88
 real space projection scheme for non local part
 use partial core corrections
 calculate Harris-corrections to forces 
   (improved forces if not selfconsistent)
 use gradient corrections 
 use of overlap-Matrix (Vanderbilt PP)
 Gauss-broadening in eV      SIGMA  =   0.05


--------------------------------------------------------------------------------------------------------


  energy-cutoff  :      500.00
  volume of cell :      741.51
      direct lattice vectors                 reciprocal lattice vectors
     8.993883000  0.000000000  0.000000000     0.111186681  0.064193660  0.000000000
    -4.496941500  7.788931160  0.000000000     0.000000000  0.128387320  0.000000000
     0.000000000  0.000000000 10.584959750     0.000000000  0.000000000  0.094473671

  length of vectors
     8.993883000  8.993883003 10.584959750     0.128387320  0.128387320  0.094473671


 
 k-points in units of 2pi/SCALE and weight: Automatic mesh                          
   0.00000000  0.00000000  0.00000000       0.021
   0.02779667  0.01604842  0.00000000       0.042
   0.05559334  0.03209683  0.00000000       0.021
   0.00000000  0.03209683  0.00000000       0.042
   0.02779667  0.04814525  0.00000000       0.042
   0.05559334  0.06419366  0.00000000       0.042
  -0.02779667  0.01604842  0.00000000       0.042
   0.00000000  0.06419366  0.00000000       0.021
   0.02779667  0.08024208  0.00000000       0.042
   0.05559334  0.09629049  0.00000000       0.021
   0.00000000  0.00000000  0.03149122       0.042
   0.02779667  0.01604842  0.03149122       0.042
   0.05559334  0.03209683  0.03149122       0.042
  -0.02779667 -0.01604842  0.03149122       0.042
   0.00000000  0.03209683  0.03149122       0.042
   0.02779667  0.04814525  0.03149122       0.042
   0.05559334  0.06419366  0.03149122       0.042
  -0.02779667  0.01604842  0.03149122       0.042
   0.00000000  0.06419366  0.03149122       0.042
   0.02779667  0.08024208  0.03149122       0.042
   0.05559334  0.09629049  0.03149122       0.042
  -0.02779667  0.04814525  0.03149122       0.042
   0.00000000 -0.03209683  0.03149122       0.042
   0.02779667 -0.01604842  0.03149122       0.042
   0.05559334  0.00000000  0.03149122       0.042
  -0.02779667 -0.04814525  0.03149122       0.042
 
 k-points in reciprocal lattice and weights: Automatic mesh                          
   0.00000000  0.00000000  0.00000000       0.021
   0.25000000 -0.00000000  0.00000000       0.042
   0.50000000 -0.00000000  0.00000000       0.021
   0.00000000  0.25000000  0.00000000       0.042
   0.25000000  0.25000000  0.00000000       0.042
   0.50000000  0.25000000  0.00000000       0.042
  -0.25000000  0.25000000  0.00000000       0.042
   0.00000000  0.50000000  0.00000000       0.021
   0.25000000  0.50000000  0.00000000       0.042
   0.50000000  0.50000000  0.00000000       0.021
   0.00000000  0.00000000  0.33333333       0.042
   0.25000000 -0.00000000  0.33333333       0.042
   0.50000000 -0.00000000  0.33333333       0.042
  -0.25000000  0.00000000  0.33333333       0.042
   0.00000000  0.25000000  0.33333333       0.042
   0.25000000  0.25000000  0.33333333       0.042
   0.50000000  0.25000000  0.33333333       0.042
  -0.25000000  0.25000000  0.33333333       0.042
   0.00000000  0.50000000  0.33333333       0.042
   0.25000000  0.50000000  0.33333333       0.042
   0.50000000  0.50000000  0.33333333       0.042
  -0.25000000  0.50000000  0.33333333       0.042
   0.00000000 -0.25000000  0.33333333       0.042
   0.25000000 -0.25000000  0.33333333       0.042
   0.50000000 -0.25000000  0.33333333       0.042
  -0.25000000 -0.25000000  0.33333333       0.042
 
 position of ions in fractional coordinates (direct lattice) 
   0.00783866  0.01071469  0.99875163
   0.00090227  0.99805898  0.32123852
   0.99067985  0.98860261  0.65151645
   0.97396528  0.32790089  0.99954990
   0.98193438  0.32965416  0.32134769
   0.97188989  0.32554015  0.65482219
   0.97374157  0.65337194  0.99998130
   0.97507363  0.64584364  0.32994870
   0.98092861  0.66182802  0.65020826
   0.32919029  0.99495955  0.00237939
   0.32746163  0.99709408  0.31817937
   0.33026969  0.00282120  0.65162164
   0.31537713  0.32207468  0.00110735
   0.32268778  0.32487600  0.32867134
   0.33026795  0.32639150  0.63681772
   0.33010707  0.65926760  0.99703627
   0.32335946  0.64773177  0.32503754
   0.33037026  0.64500712  0.65330252
   0.65748575  0.01458972  0.00277857
   0.64253709  0.99592951  0.32029213
   0.65769391  0.00494109  0.65218785
   0.65421998  0.32331716  0.99883468
   0.64142244  0.32502226  0.32334009
   0.65884359  0.32510543  0.65176808
   0.65922595  0.64841089  0.99961187
   0.65596429  0.66451818  0.32662722
   0.66291433  0.65119186  0.64651180
   0.99480946  0.00037995  0.16975946
   0.99793544  0.00162736  0.47606792
   0.00480287  0.99582527  0.81174736
   0.97074006  0.32402060  0.16344007
   0.97810695  0.32588390  0.48631892
   0.97865798  0.31506461  0.81750308
   0.97834856  0.64724428  0.16547939
   0.97398168  0.64480469  0.49245372
   0.97908073  0.65683490  0.81924508
   0.31362765  0.00142407  0.15219174
   0.33141577  0.00201579  0.48883792
   0.33112888  0.00935743  0.80571975
   0.32974355  0.33492052  0.15611276
   0.32030137  0.32320893  0.48214478
   0.32506205  0.32159191  0.80972128
   0.31671244  0.65778048  0.17251903
   0.32074749  0.65097015  0.48822765
   0.32961729  0.65456420  0.81270973
   0.64254845  0.99210297  0.16003026
   0.65054565  0.00312825  0.49307187
   0.65744075  0.99924159  0.81138193
   0.64877873  0.32535171  0.16539868
   0.65039669  0.33098818  0.48875236
   0.64513463  0.32532099  0.81719182
   0.63941389  0.64903117  0.16382222
   0.65559756  0.64489091  0.48506726
   0.65576855  0.64444598  0.80848142
 
 position of ions in cartesian coordinates  (Angst):
   0.02231666  0.08345598 10.57174580
  -4.48009794  7.77381269  3.40029680
   4.46437056  7.70015767  6.89627540
   7.28517865  2.55399746 10.58019546
   7.34896745  2.56765356  3.40145236
   7.27712895  2.53560982  6.93126652
   5.81954236  5.08906906 10.58476181
   5.86537708  5.03043165  3.49249371
   5.84615526  5.15493289  6.88242826
  -1.51357594  7.74967144  0.02518575
  -1.53872216  7.76629715  3.36791582
   2.95772018  0.02197413  6.89738883
   1.38811401  2.50861751  0.01172126
   1.44126777  2.53043680  3.47897290
   1.50262782  2.54224092  6.74068993
   0.00425654  5.13498995 10.55358879
  -0.00455473  5.04513817  3.44050928
   0.07075218  5.02391606  6.91518088
   5.84774079  0.11363832  0.02941105
   1.30026667  7.75722639  3.39027930
   5.89300228  0.03848581  6.90338214
   4.43003960  2.51829510 10.57262488
   4.30727229  2.53157601  3.42254184
   4.46358206  2.53222381  6.89893889
   3.01313522  5.05042779 10.58085141
   2.91136670  5.17588636  3.45733598
   3.03380222  5.07208857  6.84330138
   8.94549128  0.00295940  1.79689705
   8.96799645  0.01267540  5.03915977
  -4.43497153  7.75641448  8.59231313
   7.27362084  2.52377415  1.73000656
   7.33149864  2.53828726  5.14766619
   7.38510825  2.45401656  8.65323720
   5.88853282  5.04134114  1.75159268
   5.86022830  5.02233934  5.21260280
   5.85198941  5.11604182  8.67167620
   2.81432643  0.01109198  1.61094344
   2.97164977  0.01570085  5.17432971
   2.93605459  0.07288438  8.52851112
   1.45955692  2.60867287  1.65244728
   1.42730140  2.51745211  5.10348309
   1.47739004  2.50485725  8.57086716
  -0.10952571  5.12340688  1.82610699
  -0.04260929  5.07036169  5.16787002
   0.02100243  5.09835549  8.60249978
   1.31757656  7.72742174  1.69391386
   5.83686391  0.02436572  5.21914590
   1.41941421  7.78302396  8.58844507
   4.37195238  2.53414207  1.75073837
   4.36115725  2.57804415  5.17342406
   4.33931592  2.53390280  8.64994252
   2.83215851  5.05525910  1.73405160
   2.99633105  5.02301090  5.13441742
   2.99986974  5.01954537  8.55774329
 


--------------------------------------------------------------------------------------------------------


 k-point  1 :   0.0000 0.0000 0.0000  plane waves:   18915
 k-point  2 :   0.2500-0.0000 0.0000  plane waves:   18838
 k-point  3 :   0.5000-0.0000 0.0000  plane waves:   18796
 k-point  4 :   0.0000 0.2500 0.0000  plane waves:   18838
 k-point  5 :   0.2500 0.2500 0.0000  plane waves:   18834
 k-point  6 :   0.5000 0.2500 0.0000  plane waves:   18834
 k-point  7 :  -0.2500 0.2500 0.0000  plane waves:   18838
 k-point  8 :   0.0000 0.5000 0.0000  plane waves:   18796
 k-point  9 :   0.2500 0.5000 0.0000  plane waves:   18834
 k-point 10 :   0.5000 0.5000 0.0000  plane waves:   18796
 k-point 11 :   0.0000 0.0000 0.3333  plane waves:   18842
 k-point 12 :   0.2500-0.0000 0.3333  plane waves:   18820
 k-point 13 :   0.5000-0.0000 0.3333  plane waves:   18826
 k-point 14 :  -0.2500 0.0000 0.3333  plane waves:   18820
 k-point 15 :   0.0000 0.2500 0.3333  plane waves:   18820
 k-point 16 :   0.2500 0.2500 0.3333  plane waves:   18831
 k-point 17 :   0.5000 0.2500 0.3333  plane waves:   18831
 k-point 18 :  -0.2500 0.2500 0.3333  plane waves:   18820
 k-point 19 :   0.0000 0.5000 0.3333  plane waves:   18826
 k-point 20 :   0.2500 0.5000 0.3333  plane waves:   18831
 k-point 21 :   0.5000 0.5000 0.3333  plane waves:   18826
 k-point 22 :  -0.2500 0.5000 0.3333  plane waves:   18831
 k-point 23 :   0.0000-0.2500 0.3333  plane waves:   18820
 k-point 24 :   0.2500-0.2500 0.3333  plane waves:   18820
 k-point 25 :   0.5000-0.2500 0.3333  plane waves:   18831
 k-point 26 :  -0.2500-0.2500 0.3333  plane waves:   18831

 maximum and minimum number of plane-waves per node :     18915    18796

 maximum number of plane-waves:     18915
 maximum index in each direction: 
   IXMAX=   16   IYMAX=   16   IZMAX=   19
   IXMIN=  -16   IYMIN=  -16   IZMIN=  -19

 The following grids will avoid any aliasing or wrap around errors in the Hartre
 e energy
  - symmetry arguments have not been applied
  - exchange correlation energies might require even more grid points
  - we recommend to set PREC=Normal or Accurate and rely on VASP defaults
 NGX is ok and might be reduce to    70
 NGY is ok and might be reduce to    70
 NGZ is ok and might be reduce to    80

 serial   3D FFT for wavefunctions
 parallel 3D FFT for charge:
    minimum data exchange during FFTs selected (reduces bandwidth)


 total amount of memory used by VASP MPI-rank0   439626. kBytes
=======================================================================

   base      :      30000. kBytes
   nonlr-proj:      41380. kBytes
   fftplans  :       8419. kBytes
   grid      :      47806. kBytes
   one-center:       1679. kBytes
   wavefun   :     310342. kBytes
 
     INWAV:  cpu time    0.0000: real time    0.0000
 Broyden mixing: mesh for mixing (old mesh)
   NGX = 33   NGY = 33   NGZ = 39
  (NGX  =140   NGY  =140   NGZ  =160)
  gives a total of  42471 points

 initial charge density was supplied:
 charge density of overlapping atoms calculated
 number of electron     432.0000000 magnetization      67.5000000
 keeping initial charge density in first step


--------------------------------------------------------------------------------------------------------


 Maximum index for non-local projection operator         6898
 Maximum index for augmentation-charges         1234 (set IRDMAX)


--------------------------------------------------------------------------------------------------------


 First call to EWALD:  gamma=   0.196
 Maximum number of real-space cells 3x 3x 2
 Maximum number of reciprocal cells 3x 3x 3

    FEWALD:  cpu time    0.0025: real time    0.0025


--------------------------------------- Iteration      1(   1)  ---------------------------------------


    POTLOK:  cpu time    0.2620: real time    0.2651
    SETDIJ:  cpu time    0.0257: real time    0.0258
     EDDAV:  cpu time  118.1010: real time  118.3801
    --------------------------------------------
      LOOP:  cpu time  118.3917: real time  118.6740

 eigenvalue-minimisations  : 31616
 total energy-change (2. order) : 0.4792619E+04  (-0.1804770E+05)
 number of electron     432.0000000 magnetization      67.5000000
 augmentation part      432.0000000 magnetization      67.5000000

 Free energy of the ion-electron system (eV)
  ---------------------------------------------------
  alpha Z        PSCENC =      1166.52487208
  Ewald energy   TEWEN  =    -28457.48415242
  -Hartree energ DENC   =    -12998.82034501
  -exchange      EXHF   =         0.00000000
  -V(xc)+E(xc)   XCENC  =      1619.17100367
  PAW double counting   =     35307.98069315   -37155.18892105
  entropy T*S    EENTRO =        -0.01193702
  eigenvalues    EBANDS =      4601.97263114
  atomic energy  EATOM  =     40708.47505058
  Solvation  Ediel_sol  =         0.00000000
  ---------------------------------------------------
  free energy    TOTEN  =      4792.61889513 eV

  energy without entropy =     4792.63083215  energy(sigma->0) =     4792.62486364


--------------------------------------------------------------------------------------------------------




--------------------------------------- Iteration      1(   2)  ---------------------------------------


     EDDAV:  cpu time  118.4661: real time  118.7459
    --------------------------------------------
      LOOP:  cpu time  118.4662: real time  118.7459

 eigenvalue-minimisations  : 31616
 total energy-change (2. order) :-0.4111764E+04  (-0.3728651E+04)
 number of electron     432.0000000 magnetization      67.5000000
 augmentation part      432.0000000 magnetization      67.5000000

 Free energy of the ion-electron system (eV)
  ---------------------------------------------------
  alpha Z        PSCENC =      1166.52487208
  Ewald energy   TEWEN  =    -28457.48415242
  -Hartree energ DENC   =    -12998.82034501
  -exchange      EXHF   =         0.00000000
  -V(xc)+E(xc)   XCENC  =      1619.17100367
  PAW double counting   =     35307.98069315   -37155.18892105
  entropy T*S    EENTRO =        -0.03401638
  eigenvalues    EBANDS =       490.23058235
  atomic energy  EATOM  =     40708.47505058
  Solvation  Ediel_sol  =         0.00000000
  ---------------------------------------------------
  free energy    TOTEN  =       680.85476698 eV

  energy without entropy =      680.88878336  energy(sigma->0) =      680.87177517


--------------------------------------------------------------------------------------------------------




--------------------------------------- Iteration      1(   3)  ---------------------------------------


     EDDAV:  cpu time  121.9313: real time  122.2191
    --------------------------------------------
      LOOP:  cpu time  121.9312: real time  122.2191

 eigenvalue-minimisations  : 32640
 total energy-change (2. order) :-0.9930198E+03  (-0.8731833E+03)
 number of electron     432.0000000 magnetization      67.5000000
 augmentation part      432.0000000 magnetization      67.5000000

 Free energy of the ion-electron system (eV)
  ---------------------------------------------------
  alpha Z        PSCENC =      1166.52487208
  Ewald energy   TEWEN  =    -28457.48415242
  -Hartree energ DENC   =    -12998.82034501
  -exchange      EXHF   =         0.00000000
  -V(xc)+E(xc)   XCENC  =      1619.17100367
  PAW double counting   =     35307.98069315   -37155.18892105
  entropy T*S    EENTRO =        -0.05798448
  eigenvalues    EBANDS =      -502.76526875
  atomic energy  EATOM  =     40708.47505058
  Solvation  Ediel_sol  =         0.00000000
  ---------------------------------------------------
  free energy    TOTEN  =      -312.16505222 eV

  energy without entropy =     -312.10706774  energy(sigma->0) =     -312.13605998


--------------------------------------------------------------------------------------------------------




--------------------------------------- Iteration      1(   4)  ---------------------------------------


     EDDAV:  cpu time  128.5389: real time  128.8425
    --------------------------------------------
      LOOP:  cpu time  128.5391: real time  128.8426

 eigenvalue-minimisations  : 35056
 total energy-change (2. order) :-0.1176607E+03  (-0.1138770E+03)
 number of electron     432.0000000 magnetization      67.5000000
 augmentation part      432.0000000 magnetization      67.5000000

 Free energy of the ion-electron system (eV)
  ---------------------------------------------------
  alpha Z        PSCENC =      1166.52487208
  Ewald energy   TEWEN  =    -28457.48415242
  -Hartree energ DENC   =    -12998.82034501
  -exchange      EXHF   =         0.00000000
  -V(xc)+E(xc)   XCENC  =      1619.17100367
  PAW double counting   =     35307.98069315   -37155.18892105
  entropy T*S    EENTRO =        -0.05843782
  eigenvalues    EBANDS =      -620.42552191
  atomic energy  EATOM  =     40708.47505058
  Solvation  Ediel_sol  =         0.00000000
  ---------------------------------------------------
  free energy    TOTEN  =      -429.82575871 eV

  energy without entropy =     -429.76732089  energy(sigma->0) =     -429.79653980


--------------------------------------------------------------------------------------------------------




--------------------------------------- Iteration      1(   5)  ---------------------------------------


     EDDAV:  cpu time  126.1460: real time  126.4438
    CHARGE:  cpu time    5.4404: real time    5.4532
    MIXING:  cpu time    0.0052: real time    0.0053
    --------------------------------------------
      LOOP:  cpu time  131.5884: real time  131.8991

 eigenvalue-minimisations  : 34528
 total energy-change (2. order) :-0.3037440E+01  (-0.3026424E+01)
 number of electron     432.0000009 magnetization      61.8721357
 augmentation part      158.5782838 magnetization      50.8475689

 Broyden mixing:
  rms(total) = 0.10722E+02    rms(broyden)= 0.10721E+02
  rms(prec ) = 0.12967E+02
  weight for this iteration     100.00

 Free energy of the ion-electron system (eV)
  ---------------------------------------------------
  alpha Z        PSCENC =      1166.52487208
  Ewald energy   TEWEN  =    -28457.48415242
  -Hartree energ DENC   =    -12998.82034501
  -exchange      EXHF   =         0.00000000
  -V(xc)+E(xc)   XCENC  =      1619.17100367
  PAW double counting   =     35307.98069315   -37155.18892105
  entropy T*S    EENTRO =        -0.05888189
  eigenvalues    EBANDS =      -623.46251789
  atomic energy  EATOM  =     40708.47505058
  Solvation  Ediel_sol  =         0.00000000
  ---------------------------------------------------
  free energy    TOTEN  =      -432.86319877 eV

  energy without entropy =     -432.80431688  energy(sigma->0) =     -432.83375783


--------------------------------------------------------------------------------------------------------




--------------------------------------- Iteration      1(   6)  ---------------------------------------


    POTLOK:  cpu time    0.2352: real time    0.2358
    SETDIJ:  cpu time    0.0268: real time    0.0269
     EDDAV:  cpu time  152.3902: real time  152.7500
    CHARGE:  cpu time    5.3370: real time    5.3496
    MIXING:  cpu time    0.0053: real time    0.0054
    --------------------------------------------
      LOOP:  cpu time  157.9946: real time  158.3676

 eigenvalue-minimisations  : 43440
 total energy-change (2. order) :-0.1033493E+03  (-0.9384020E+02)
 number of electron     432.0000022 magnetization      54.9404974
 augmentation part      214.5436968 magnetization      49.5639801

 Broyden mixing:
  rms(total) = 0.19021E+02    rms(broyden)= 0.19019E+02
  rms(prec ) = 0.21558E+02
  weight for this iteration     100.00

 eigenvalues of (default mixing * dielectric matrix)
  average eigenvalue GAMMA=   0.2036
  0.2036

 Free energy of the ion-electron system (eV)
  ---------------------------------------------------
  alpha Z        PSCENC =      1166.52487208
  Ewald energy   TEWEN  =    -28457.48415242
  -Hartree energ DENC   =    -12135.83189569
  -exchange      EXHF   =         0.00000000
  -V(xc)+E(xc)   XCENC  =      1593.35232071
  PAW double counting   =     37377.60594224   -38969.23909475
  entropy T*S    EENTRO =        -0.04353657
  eigenvalues    EBANDS =     -1819.57200926
  atomic energy  EATOM  =     40708.47505058
  Solvation  Ediel_sol  =         0.00000000
  ---------------------------------------------------
  free energy    TOTEN  =      -536.21250308 eV

  energy without entropy =     -536.16896650  energy(sigma->0) =     -536.19073479


--------------------------------------------------------------------------------------------------------




--------------------------------------- Iteration      1(   7)  ---------------------------------------


    POTLOK:  cpu time    0.2230: real time    0.2235
    SETDIJ:  cpu time    0.0261: real time    0.0261
     EDDAV:  cpu time  148.5270: real time  148.8777
    CHARGE:  cpu time    5.2945: real time    5.3070
    MIXING:  cpu time    0.0052: real time    0.0053
    --------------------------------------------
      LOOP:  cpu time  154.0758: real time  154.4396

 eigenvalue-minimisations  : 42512
 total energy-change (2. order) : 0.2169623E+03  (-0.2743553E+02)
 number of electron     432.0000016 magnetization      48.0145125
 augmentation part      190.4506802 magnetization      37.8123735

 Broyden mixing:
  rms(total) = 0.59589E+01    rms(broyden)= 0.59569E+01
  rms(prec ) = 0.76931E+01
  weight for this iteration     100.00

 eigenvalues of (default mixing * dielectric matrix)
  average eigenvalue GAMMA=   0.5719
  0.5719  0.5719

 Free energy of the ion-electron system (eV)
  ---------------------------------------------------
  alpha Z        PSCENC =      1166.52487208
  Ewald energy   TEWEN  =    -28457.48415242
  -Hartree energ DENC   =    -12469.63018827
  -exchange      EXHF   =         0.00000000
  -V(xc)+E(xc)   XCENC  =      1592.34513814
  PAW double counting   =     38953.70888089   -40738.24795892
  entropy T*S    EENTRO =        -0.04266023
  eigenvalues    EBANDS =     -1074.89917583
  atomic energy  EATOM  =     40708.47505058
  Solvation  Ediel_sol  =         0.00000000
  ---------------------------------------------------
  free energy    TOTEN  =      -319.25019398 eV

  energy without entropy =     -319.20753375  energy(sigma->0) =     -319.22886387


--------------------------------------------------------------------------------------------------------




--------------------------------------- Iteration      1(   8)  ---------------------------------------


    POTLOK:  cpu time    0.2332: real time    0.2338
    SETDIJ:  cpu time    0.0262: real time    0.0263
     EDDAV:  cpu time  160.6398: real time  161.0192
    CHARGE:  cpu time    5.3609: real time    5.3735
    MIXING:  cpu time    0.0052: real time    0.0052
    --------------------------------------------
      LOOP:  cpu time  166.2653: real time  166.6579

 eigenvalue-minimisations  : 46304
 total energy-change (2. order) :-0.7195593E+02  (-0.1315708E+02)
 number of electron     432.0000025 magnetization      42.1526045
 augmentation part      183.1893305 magnetization      35.9464891

 Broyden mixing:
  rms(total) = 0.11284E+02    rms(broyden)= 0.11283E+02
  rms(prec ) = 0.16070E+02
  weight for this iteration     100.00

 eigenvalues of (default mixing * dielectric matrix)
  average eigenvalue GAMMA=   0.5005
  0.9052  0.4531  0.1433

 Free energy of the ion-electron system (eV)
  ---------------------------------------------------
  alpha Z        PSCENC =      1166.52487208
  Ewald energy   TEWEN  =    -28457.48415242
  -Hartree energ DENC   =    -12517.38397245
  -exchange      EXHF   =         0.00000000
  -V(xc)+E(xc)   XCENC  =      1591.69732949
  PAW double counting   =     39925.04883677   -41760.08850181
  entropy T*S    EENTRO =        -0.07492040
  eigenvalues    EBANDS =     -1047.92066736
  atomic energy  EATOM  =     40708.47505058
  Solvation  Ediel_sol  =         0.00000000
  ---------------------------------------------------
  free energy    TOTEN  =      -391.20612551 eV

  energy without entropy =     -391.13120511  energy(sigma->0) =     -391.16866531


--------------------------------------------------------------------------------------------------------




--------------------------------------- Iteration      1(   9)  ---------------------------------------


    POTLOK:  cpu time    0.2287: real time    0.2293
    SETDIJ:  cpu time    0.0261: real time    0.0262
     EDDAV:  cpu time  144.1570: real time  144.4974
    CHARGE:  cpu time    5.1243: real time    5.1364
    MIXING:  cpu time    0.0056: real time    0.0056
    --------------------------------------------
      LOOP:  cpu time  149.5418: real time  149.8949

 eigenvalue-minimisations  : 40400
 total energy-change (2. order) : 0.2682264E+02  (-0.1295334E+02)
 number of electron     432.0000017 magnetization      39.2485101
 augmentation part      180.0942253 magnetization      32.3434108

 Broyden mixing:
  rms(total) = 0.95265E+01    rms(broyden)= 0.95260E+01
  rms(prec ) = 0.13948E+02
  weight for this iteration     100.00

 eigenvalues of (default mixing * dielectric matrix)
  average eigenvalue GAMMA=   0.4362
  1.0026  0.4415  0.1504  0.1504

 Free energy of the ion-electron system (eV)
  ---------------------------------------------------
  alpha Z        PSCENC =      1166.52487208
  Ewald energy   TEWEN  =    -28457.48415242
  -Hartree energ DENC   =    -12557.46525473
  -exchange      EXHF   =         0.00000000
  -V(xc)+E(xc)   XCENC  =      1591.28326413
  PAW double counting   =     40739.53593641   -42608.91980009
  entropy T*S    EENTRO =        -0.05910410
  eigenvalues    EBANDS =      -946.27429931
  atomic energy  EATOM  =     40708.47505058
  Solvation  Ediel_sol  =         0.00000000
  ---------------------------------------------------
  free energy    TOTEN  =      -364.38348744 eV

  energy without entropy =     -364.32438334  energy(sigma->0) =     -364.35393539


--------------------------------------------------------------------------------------------------------




--------------------------------------- Iteration      1(  10)  ---------------------------------------


    POTLOK:  cpu time    0.2225: real time    0.2230
    SETDIJ:  cpu time    0.0252: real time    0.0253
     EDDAV:  cpu time  148.4273: real time  148.7778
    CHARGE:  cpu time    5.5102: real time    5.5232
    MIXING:  cpu time    0.0064: real time    0.0064
    --------------------------------------------
      LOOP:  cpu time  154.1916: real time  154.5556

 eigenvalue-minimisations  : 40960
 total energy-change (2. order) : 0.3146431E+02  (-0.5599227E+01)
 number of electron     432.0000023 magnetization      36.8777089
 augmentation part      181.9100879 magnetization      28.2586808

 Broyden mixing:
  rms(total) = 0.65331E+01    rms(broyden)= 0.65324E+01
  rms(prec ) = 0.88557E+01
  weight for this iteration     100.00

 eigenvalues of (default mixing * dielectric matrix)
  average eigenvalue GAMMA=   0.4102
  1.0911  0.4424  0.2005  0.2005  0.1165

 Free energy of the ion-electron system (eV)
  ---------------------------------------------------
  alpha Z        PSCENC =      1166.52487208
  Ewald energy   TEWEN  =    -28457.48415242
  -Hartree energ DENC   =    -12557.25588004
  -exchange      EXHF   =         0.00000000
  -V(xc)+E(xc)   XCENC  =      1590.91129184
  PAW double counting   =     41098.75129918   -42977.30576031
  entropy T*S    EENTRO =        -0.07780913
  eigenvalues    EBANDS =      -905.45808722
  atomic energy  EATOM  =     40708.47505058
  Solvation  Ediel_sol  =         0.00000000
  ---------------------------------------------------
  free energy    TOTEN  =      -332.91917544 eV

  energy without entropy =     -332.84136631  energy(sigma->0) =     -332.88027088


--------------------------------------------------------------------------------------------------------




--------------------------------------- Iteration      1(  11)  ---------------------------------------


    POTLOK:  cpu time    0.2308: real time    0.2313
    SETDIJ:  cpu time    0.0267: real time    0.0268
     EDDAV:  cpu time  148.5836: real time  148.9345
    CHARGE:  cpu time    5.5600: real time    5.5731
    MIXING:  cpu time    0.0067: real time    0.0067
    --------------------------------------------
      LOOP:  cpu time  154.4077: real time  154.7723

 eigenvalue-minimisations  : 41088
 total energy-change (2. order) : 0.1401277E+02  (-0.5290527E+01)
 number of electron     432.0000021 magnetization      34.3282348
 augmentation part      182.2786176 magnetization      26.1867977

 Broyden mixing:
  rms(total) = 0.44417E+01    rms(broyden)= 0.44410E+01
  rms(prec ) = 0.61222E+01
  weight for this iteration     100.00

 eigenvalues of (default mixing * dielectric matrix)
  average eigenvalue GAMMA=   0.4070
  1.1919  0.4719  0.2654  0.2654  0.1236  0.1236

 Free energy of the ion-electron system (eV)
  ---------------------------------------------------
  alpha Z        PSCENC =      1166.52487208
  Ewald energy   TEWEN  =    -28457.48415242
  -Hartree energ DENC   =    -12557.55196068
  -exchange      EXHF   =         0.00000000
  -V(xc)+E(xc)   XCENC  =      1590.53068816
  PAW double counting   =     41390.61881240   -43275.37086863
  entropy T*S    EENTRO =        -0.07414967
  eigenvalues    EBANDS =      -884.57469763
  atomic energy  EATOM  =     40708.47505058
  Solvation  Ediel_sol  =         0.00000000
  ---------------------------------------------------
  free energy    TOTEN  =      -318.90640582 eV

  energy without entropy =     -318.83225614  energy(sigma->0) =     -318.86933098


--------------------------------------------------------------------------------------------------------




--------------------------------------- Iteration      1(  12)  ---------------------------------------


    POTLOK:  cpu time    0.2321: real time    0.2326
    SETDIJ:  cpu time    0.0262: real time    0.0263
     EDDAV:  cpu time  150.6955: real time  151.0514
    CHARGE:  cpu time    5.5637: real time    5.5769
    MIXING:  cpu time    0.0064: real time    0.0064
    --------------------------------------------
      LOOP:  cpu time  156.5238: real time  156.8935

 eigenvalue-minimisations  : 41824
 total energy-change (2. order) : 0.4953449E+01  (-0.2572220E+01)
 number of electron     432.0000016 magnetization      32.2413598
 augmentation part      181.1318009 magnetization      23.8657460

 Broyden mixing:
  rms(total) = 0.42675E+01    rms(broyden)= 0.42669E+01
  rms(prec ) = 0.59791E+01
  weight for this iteration     100.00

 eigenvalues of (default mixing * dielectric matrix)
  average eigenvalue GAMMA=   0.3992
  1.3026  0.4592  0.3290  0.3290  0.1258  0.1258  0.1231

 Free energy of the ion-electron system (eV)
  ---------------------------------------------------
  alpha Z        PSCENC =      1166.52487208
  Ewald energy   TEWEN  =    -28457.48415242
  -Hartree energ DENC   =    -12557.01014492
  -exchange      EXHF   =         0.00000000
  -V(xc)+E(xc)   XCENC  =      1590.07465507
  PAW double counting   =     41663.01039402   -43551.15997771
  entropy T*S    EENTRO =        -0.10531503
  eigenvalues    EBANDS =      -876.27833821
  atomic energy  EATOM  =     40708.47505058
  Solvation  Ediel_sol  =         0.00000000
  ---------------------------------------------------
  free energy    TOTEN  =      -313.95295655 eV

  energy without entropy =     -313.84764152  energy(sigma->0) =     -313.90029903


--------------------------------------------------------------------------------------------------------




--------------------------------------- Iteration      1(  13)  ---------------------------------------


    POTLOK:  cpu time    0.2308: real time    0.2313
    SETDIJ:  cpu time    0.0259: real time    0.0259
     EDDAV:  cpu time  153.5965: real time  153.9591
    CHARGE:  cpu time    5.4688: real time    5.4818
    MIXING:  cpu time    0.0068: real time    0.0068
    --------------------------------------------
      LOOP:  cpu time  159.3288: real time  159.7049

 eigenvalue-minimisations  : 42832
 total energy-change (2. order) : 0.2492732E+01  (-0.2486895E+01)
 number of electron     432.0000018 magnetization      30.2883123
 augmentation part      181.9724111 magnetization      22.5133633

 Broyden mixing:
  rms(total) = 0.32779E+01    rms(broyden)= 0.32774E+01
  rms(prec ) = 0.49442E+01
  weight for this iteration     100.00

 eigenvalues of (default mixing * dielectric matrix)
  average eigenvalue GAMMA=   0.3996
  1.3809  0.4419  0.4419  0.4215  0.1484  0.1277  0.1277  0.1068

 Free energy of the ion-electron system (eV)
  ---------------------------------------------------
  alpha Z        PSCENC =      1166.52487208
  Ewald energy   TEWEN  =    -28457.48415242
  -Hartree energ DENC   =    -12558.04114303
  -exchange      EXHF   =         0.00000000
  -V(xc)+E(xc)   XCENC  =      1589.75011874
  PAW double counting   =     41897.16035030   -43788.57932638
  entropy T*S    EENTRO =        -0.09076456
  eigenvalues    EBANDS =      -869.17522983
  atomic energy  EATOM  =     40708.47505058
  Solvation  Ediel_sol  =         0.00000000
  ---------------------------------------------------
  free energy    TOTEN  =      -311.46022452 eV

  energy without entropy =     -311.36945995  energy(sigma->0) =     -311.41484223


--------------------------------------------------------------------------------------------------------




--------------------------------------- Iteration      1(  14)  ---------------------------------------


    POTLOK:  cpu time    0.2294: real time    0.2300
    SETDIJ:  cpu time    0.0260: real time    0.0260
     EDDAV:  cpu time  151.9557: real time  152.3144
    CHARGE:  cpu time    5.7151: real time    5.7286
    MIXING:  cpu time    0.0072: real time    0.0072
    --------------------------------------------
      LOOP:  cpu time  157.9335: real time  158.3063

 eigenvalue-minimisations  : 42304
 total energy-change (2. order) : 0.1108297E+01  (-0.1096023E+01)
 number of electron     432.0000020 magnetization      27.4166453
 augmentation part      181.7506913 magnetization      19.0647117

 Broyden mixing:
  rms(total) = 0.27663E+01    rms(broyden)= 0.27656E+01
  rms(prec ) = 0.38402E+01
  weight for this iteration     100.00

 eigenvalues of (default mixing * dielectric matrix)
  average eigenvalue GAMMA=   0.4059
  1.5264  0.5510  0.5510  0.3089  0.2510  0.1198  0.1198  0.1347  0.0906

 Free energy of the ion-electron system (eV)
  ---------------------------------------------------
  alpha Z        PSCENC =      1166.52487208
  Ewald energy   TEWEN  =    -28457.48415242
  -Hartree energ DENC   =    -12558.51778835
  -exchange      EXHF   =         0.00000000
  -V(xc)+E(xc)   XCENC  =      1589.55950005
  PAW double counting   =     42085.56585307   -43978.45729036
  entropy T*S    EENTRO =        -0.09681035
  eigenvalues    EBANDS =      -865.92116134
  atomic energy  EATOM  =     40708.47505058
  Solvation  Ediel_sol  =         0.00000000
  ---------------------------------------------------
  free energy    TOTEN  =      -310.35192704 eV

  energy without entropy =     -310.25511670  energy(sigma->0) =     -310.30352187


--------------------------------------------------------------------------------------------------------




--------------------------------------- Iteration      1(  15)  ---------------------------------------


    POTLOK:  cpu time    0.2332: real time    0.2338
    SETDIJ:  cpu time    0.0267: real time    0.0268
     EDDAV:  cpu time  153.8316: real time  154.1948
    CHARGE:  cpu time    5.5317: real time    5.5449
    MIXING:  cpu time    0.0074: real time    0.0074
    --------------------------------------------
      LOOP:  cpu time  159.6307: real time  160.0077

 eigenvalue-minimisations  : 42944
 total energy-change (2. order) :-0.3712533E-01  (-0.1117405E+01)
 number of electron     432.0000016 magnetization      25.0522375
 augmentation part      181.8053671 magnetization      17.4040957

 Broyden mixing:
  rms(total) = 0.23737E+01    rms(broyden)= 0.23732E+01
  rms(prec ) = 0.33454E+01
  weight for this iteration     100.00

 eigenvalues of (default mixing * dielectric matrix)
  average eigenvalue GAMMA=   0.4177
  1.7041  0.5831  0.5831  0.3541  0.3541  0.1626  0.1238  0.1238  0.0940  0.0940

 Free energy of the ion-electron system (eV)
  ---------------------------------------------------
  alpha Z        PSCENC =      1166.52487208
  Ewald energy   TEWEN  =    -28457.48415242
  -Hartree energ DENC   =    -12559.83509379
  -exchange      EXHF   =         0.00000000
  -V(xc)+E(xc)   XCENC  =      1589.38822058
  PAW double counting   =     42389.25884044   -44285.71574293
  entropy T*S    EENTRO =        -0.09165319
  eigenvalues    EBANDS =      -860.90939372
  atomic energy  EATOM  =     40708.47505058
  Solvation  Ediel_sol  =         0.00000000
  ---------------------------------------------------
  free energy    TOTEN  =      -310.38905237 eV

  energy without entropy =     -310.29739918  energy(sigma->0) =     -310.34322578


--------------------------------------------------------------------------------------------------------




--------------------------------------- Iteration      1(  16)  ---------------------------------------


    POTLOK:  cpu time    0.2301: real time    0.2306
    SETDIJ:  cpu time    0.0265: real time    0.0265
     EDDAV:  cpu time  149.6002: real time  149.9533
    CHARGE:  cpu time    5.5046: real time    5.5176
    MIXING:  cpu time    0.0077: real time    0.0077
    --------------------------------------------
      LOOP:  cpu time  155.3690: real time  155.7358

 eigenvalue-minimisations  : 41440
 total energy-change (2. order) : 0.9122456E-01  (-0.5629394E+00)
 number of electron     432.0000019 magnetization      23.5378009
 augmentation part      181.8842329 magnetization      16.0469582

 Broyden mixing:
  rms(total) = 0.23438E+01    rms(broyden)= 0.23435E+01
  rms(prec ) = 0.32763E+01
  weight for this iteration     100.00

 eigenvalues of (default mixing * dielectric matrix)
  average eigenvalue GAMMA=   0.4115
  1.8019  0.5913  0.5913  0.3989  0.3989  0.2004  0.1254  0.1254  0.1016  0.1016
  0.0893

 Free energy of the ion-electron system (eV)
  ---------------------------------------------------
  alpha Z        PSCENC =      1166.52487208
  Ewald energy   TEWEN  =    -28457.48415242
  -Hartree energ DENC   =    -12557.48024047
  -exchange      EXHF   =         0.00000000
  -V(xc)+E(xc)   XCENC  =      1589.22642724
  PAW double counting   =     42631.06701561   -44530.04265229
  entropy T*S    EENTRO =        -0.09874273
  eigenvalues    EBANDS =      -860.48540542
  atomic energy  EATOM  =     40708.47505058
  Solvation  Ediel_sol  =         0.00000000
  ---------------------------------------------------
  free energy    TOTEN  =      -310.29782781 eV

  energy without entropy =     -310.19908509  energy(sigma->0) =     -310.24845645


--------------------------------------------------------------------------------------------------------




--------------------------------------- Iteration      1(  17)  ---------------------------------------


    POTLOK:  cpu time    0.2297: real time    0.2303
    SETDIJ:  cpu time    0.0267: real time    0.0268
     EDDAV:  cpu time  143.3507: real time  143.6892
    CHARGE:  cpu time    5.4838: real time    5.4967
    MIXING:  cpu time    0.0077: real time    0.0077
    --------------------------------------------
      LOOP:  cpu time  149.0986: real time  149.4507

 eigenvalue-minimisations  : 39296
 total energy-change (2. order) : 0.6302439E+00  (-0.5229900E+00)
 number of electron     432.0000018 magnetization      22.1582463
 augmentation part      182.2740095 magnetization      15.3961177

 Broyden mixing:
  rms(total) = 0.15933E+01    rms(broyden)= 0.15930E+01
  rms(prec ) = 0.21955E+01
  weight for this iteration     100.00

 eigenvalues of (default mixing * dielectric matrix)
  average eigenvalue GAMMA=   0.4116
  1.9003  0.5383  0.5383  0.5055  0.5055  0.2811  0.1441  0.1241  0.1241  0.0983
  0.0983  0.0815

 Free energy of the ion-electron system (eV)
  ---------------------------------------------------
  alpha Z        PSCENC =      1166.52487208
  Ewald energy   TEWEN  =    -28457.48415242
  -Hartree energ DENC   =    -12555.55990204
  -exchange      EXHF   =         0.00000000
  -V(xc)+E(xc)   XCENC  =      1589.11395305
  PAW double counting   =     42785.62936907   -44686.32228604
  entropy T*S    EENTRO =        -0.09473663
  eigenvalues    EBANDS =      -859.94975154
  atomic energy  EATOM  =     40708.47505058
  Solvation  Ediel_sol  =         0.00000000
  ---------------------------------------------------
  free energy    TOTEN  =      -309.66758390 eV

  energy without entropy =     -309.57284726  energy(sigma->0) =     -309.62021558


--------------------------------------------------------------------------------------------------------




--------------------------------------- Iteration      1(  18)  ---------------------------------------


    POTLOK:  cpu time    0.2311: real time    0.2317
    SETDIJ:  cpu time    0.0262: real time    0.0262
     EDDAV:  cpu time  150.2804: real time  150.6353
    CHARGE:  cpu time    5.5105: real time    5.5236
    MIXING:  cpu time    0.0077: real time    0.0077
    --------------------------------------------
      LOOP:  cpu time  156.0560: real time  156.4245

 eigenvalue-minimisations  : 41712
 total energy-change (2. order) : 0.3260851E+00  (-0.2415995E+00)
 number of electron     432.0000018 magnetization      21.1816464
 augmentation part      182.4534244 magnetization      14.5553867

 Broyden mixing:
  rms(total) = 0.10595E+01    rms(broyden)= 0.10591E+01
  rms(prec ) = 0.14474E+01
  weight for this iteration     100.00

 eigenvalues of (default mixing * dielectric matrix)
  average eigenvalue GAMMA=   0.4268
  1.9328  0.7631  0.6272  0.6272  0.3856  0.3856  0.1903  0.1244  0.1244  0.1073
  0.1073  0.0902  0.0828

 Free energy of the ion-electron system (eV)
  ---------------------------------------------------
  alpha Z        PSCENC =      1166.52487208
  Ewald energy   TEWEN  =    -28457.48415242
  -Hartree energ DENC   =    -12554.07187118
  -exchange      EXHF   =         0.00000000
  -V(xc)+E(xc)   XCENC  =      1588.98330957
  PAW double counting   =     42901.28567536   -44802.84365068
  entropy T*S    EENTRO =        -0.08853333
  eigenvalues    EBANDS =      -860.12219883
  atomic energy  EATOM  =     40708.47505058
  Solvation  Ediel_sol  =         0.00000000
  ---------------------------------------------------
  free energy    TOTEN  =      -309.34149884 eV

  energy without entropy =     -309.25296551  energy(sigma->0) =     -309.29723218


--------------------------------------------------------------------------------------------------------




--------------------------------------- Iteration      1(  19)  ---------------------------------------


    POTLOK:  cpu time    0.2280: real time    0.2286
    SETDIJ:  cpu time    0.0245: real time    0.0246
     EDDAV:  cpu time  152.1983: real time  152.5577
    CHARGE:  cpu time    5.2543: real time    5.2668
    MIXING:  cpu time    0.0080: real time    0.0081
    --------------------------------------------
      LOOP:  cpu time  157.7133: real time  158.0857

 eigenvalue-minimisations  : 42544
 total energy-change (2. order) : 0.6003898E-02  (-0.1164046E+00)
 number of electron     432.0000016 magnetization      20.2286382
 augmentation part      182.3286798 magnetization      13.8789274

 Broyden mixing:
  rms(total) = 0.96202E+00    rms(broyden)= 0.96182E+00
  rms(prec ) = 0.12892E+01
  weight for this iteration     100.00

 eigenvalues of (default mixing * dielectric matrix)
  average eigenvalue GAMMA=   0.4267
  1.9780  0.8440  0.7015  0.7015  0.3761  0.3761  0.2315  0.1241  0.1241  0.1374
  0.1017  0.1017  0.0945  0.0820

 Free energy of the ion-electron system (eV)
  ---------------------------------------------------
  alpha Z        PSCENC =      1166.52487208
  Ewald energy   TEWEN  =    -28457.48415242
  -Hartree energ DENC   =    -12552.91476236
  -exchange      EXHF   =         0.00000000
  -V(xc)+E(xc)   XCENC  =      1588.84682404
  PAW double counting   =     42954.23340299   -44855.56985712
  entropy T*S    EENTRO =        -0.09306372
  eigenvalues    EBANDS =      -861.35380901
  atomic energy  EATOM  =     40708.47505058
  Solvation  Ediel_sol  =         0.00000000
  ---------------------------------------------------
  free energy    TOTEN  =      -309.33549494 eV

  energy without entropy =     -309.24243122  energy(sigma->0) =     -309.28896308


--------------------------------------------------------------------------------------------------------




--------------------------------------- Iteration      1(  20)  ---------------------------------------


    POTLOK:  cpu time    0.2237: real time    0.2242
    SETDIJ:  cpu time    0.0254: real time    0.0254
     EDDAV:  cpu time  144.0234: real time  144.3739
    CHARGE:  cpu time    5.2003: real time    5.2126
    MIXING:  cpu time    0.0090: real time    0.0090
    --------------------------------------------
      LOOP:  cpu time  149.4817: real time  149.8452

 eigenvalue-minimisations  : 41504
 total energy-change (2. order) : 0.2373961E-01  (-0.8650639E-01)
 number of electron     432.0000018 magnetization      19.3022185
 augmentation part      182.2074221 magnetization      13.0951362

 Broyden mixing:
  rms(total) = 0.77869E+00    rms(broyden)= 0.77853E+00
  rms(prec ) = 0.10482E+01
  weight for this iteration     100.00

 eigenvalues of (default mixing * dielectric matrix)
  average eigenvalue GAMMA=   0.4237
  2.0176  0.7742  0.7742  0.7939  0.4193  0.3252  0.3252  0.1885  0.1246  0.1246
  0.1059  0.1059  0.1056  0.0864  0.0836

 Free energy of the ion-electron system (eV)
  ---------------------------------------------------
  alpha Z        PSCENC =      1166.52487208
  Ewald energy   TEWEN  =    -28457.48415242
  -Hartree energ DENC   =    -12551.74462140
  -exchange      EXHF   =         0.00000000
  -V(xc)+E(xc)   XCENC  =      1588.70087407
  PAW double counting   =     42998.00696622   -44898.88685409
  entropy T*S    EENTRO =        -0.09326462
  eigenvalues    EBANDS =      -862.81062575
  atomic energy  EATOM  =     40708.47505058
  Solvation  Ediel_sol  =         0.00000000
  ---------------------------------------------------
  free energy    TOTEN  =      -309.31175533 eV

  energy without entropy =     -309.21849072  energy(sigma->0) =     -309.26512302


--------------------------------------------------------------------------------------------------------




--------------------------------------- Iteration      1(  21)  ---------------------------------------


    POTLOK:  cpu time    0.2288: real time    0.2294
    SETDIJ:  cpu time    0.0252: real time    0.0253
     EDDAV:  cpu time  145.4124: real time  145.7558
    CHARGE:  cpu time    5.4279: real time    5.4407
    MIXING:  cpu time    0.0089: real time    0.0089
    --------------------------------------------
      LOOP:  cpu time  151.1033: real time  151.4601

 eigenvalue-minimisations  : 42064
 total energy-change (2. order) : 0.1147535E-01  (-0.5961541E-01)
 number of electron     432.0000018 magnetization      18.7636684
 augmentation part      182.1638519 magnetization      12.8109209

 Broyden mixing:
  rms(total) = 0.66320E+00    rms(broyden)= 0.66308E+00
  rms(prec ) = 0.90439E+00
  weight for this iteration     100.00

 eigenvalues of (default mixing * dielectric matrix)
  average eigenvalue GAMMA=   0.4202
  2.0112  0.8553  0.8553  0.7075  0.4790  0.3354  0.3354  0.2672  0.1489  0.1247
  0.1247  0.1047  0.1035  0.1035  0.0834  0.0834

 Free energy of the ion-electron system (eV)
  ---------------------------------------------------
  alpha Z        PSCENC =      1166.52487208
  Ewald energy   TEWEN  =    -28457.48415242
  -Hartree energ DENC   =    -12550.40899673
  -exchange      EXHF   =         0.00000000
  -V(xc)+E(xc)   XCENC  =      1588.62775163
  PAW double counting   =     43042.69246184   -44943.08289157
  entropy T*S    EENTRO =        -0.09514899
  eigenvalues    EBANDS =      -864.54922641
  atomic energy  EATOM  =     40708.47505058
  Solvation  Ediel_sol  =         0.00000000
  ---------------------------------------------------
  free energy    TOTEN  =      -309.30027998 eV

  energy without entropy =     -309.20513100  energy(sigma->0) =     -309.25270549


--------------------------------------------------------------------------------------------------------




--------------------------------------- Iteration      1(  22)  ---------------------------------------


    POTLOK:  cpu time    0.2349: real time    0.2355
    SETDIJ:  cpu time    0.0263: real time    0.0264
     EDDAV:  cpu time  154.4343: real time  154.7989
    CHARGE:  cpu time    5.3571: real time    5.3697
    MIXING:  cpu time    0.0090: real time    0.0090
    --------------------------------------------
      LOOP:  cpu time  160.0616: real time  160.4395

 eigenvalue-minimisations  : 43408
 total energy-change (2. order) :-0.2012363E-01  (-0.3708683E-01)
 number of electron     432.0000018 magnetization      18.3373221
 augmentation part      182.1806804 magnetization      12.4936043

 Broyden mixing:
  rms(total) = 0.57464E+00    rms(broyden)= 0.57456E+00
  rms(prec ) = 0.75801E+00
  weight for this iteration     100.00

 eigenvalues of (default mixing * dielectric matrix)
  average eigenvalue GAMMA=   0.4177
  1.9894  0.9442  0.9442  0.6112  0.5417  0.3637  0.3637  0.3238  0.1731  0.1245
  0.1245  0.1232  0.1058  0.1058  0.0831  0.0893  0.0893

 Free energy of the ion-electron system (eV)
  ---------------------------------------------------
  alpha Z        PSCENC =      1166.52487208
  Ewald energy   TEWEN  =    -28457.48415242
  -Hartree energ DENC   =    -12550.26955690
  -exchange      EXHF   =         0.00000000
  -V(xc)+E(xc)   XCENC  =      1588.65003787
  PAW double counting   =     43061.24316776   -44961.04073882
  entropy T*S    EENTRO =        -0.09275188
  eigenvalues    EBANDS =      -865.32633189
  atomic energy  EATOM  =     40708.47505058
  Solvation  Ediel_sol  =         0.00000000
  ---------------------------------------------------
  free energy    TOTEN  =      -309.32040362 eV

  energy without entropy =     -309.22765174  energy(sigma->0) =     -309.27402768


--------------------------------------------------------------------------------------------------------




--------------------------------------- Iteration      1(  23)  ---------------------------------------


    POTLOK:  cpu time    0.2245: real time    0.2250
    SETDIJ:  cpu time    0.0255: real time    0.0256
     EDDAV:  cpu time  154.5338: real time  154.8988
    CHARGE:  cpu time    5.5604: real time    5.5735
    MIXING:  cpu time    0.0090: real time    0.0090
    --------------------------------------------
      LOOP:  cpu time  160.3532: real time  160.7319

 eigenvalue-minimisations  : 43664
 total energy-change (2. order) :-0.6574675E-02  (-0.3005276E-01)
 number of electron     432.0000018 magnetization      17.8595741
 augmentation part      182.2504471 magnetization      12.0629988

 Broyden mixing:
  rms(total) = 0.45427E+00    rms(broyden)= 0.45414E+00
  rms(prec ) = 0.56461E+00
  weight for this iteration     100.00

 eigenvalues of (default mixing * dielectric matrix)
  average eigenvalue GAMMA=   0.4171
  1.9608  1.0318  1.0318  0.6635  0.4268  0.4268  0.3964  0.3964  0.2161  0.1245
  0.1245  0.1456  0.1086  0.1086  0.0962  0.0894  0.0805  0.0805

 Free energy of the ion-electron system (eV)
  ---------------------------------------------------
  alpha Z        PSCENC =      1166.52487208
  Ewald energy   TEWEN  =    -28457.48415242
  -Hartree energ DENC   =    -12550.67168940
  -exchange      EXHF   =         0.00000000
  -V(xc)+E(xc)   XCENC  =      1588.71731308
  PAW double counting   =     43073.70158350   -44972.98340499
  entropy T*S    EENTRO =        -0.08877386
  eigenvalues    EBANDS =      -865.51777686
  atomic energy  EATOM  =     40708.47505058
  Solvation  Ediel_sol  =         0.00000000
  ---------------------------------------------------
  free energy    TOTEN  =      -309.32697829 eV

  energy without entropy =     -309.23820443  energy(sigma->0) =     -309.28259136


--------------------------------------------------------------------------------------------------------




--------------------------------------- Iteration      1(  24)  ---------------------------------------


    POTLOK:  cpu time    0.2344: real time    0.2350
    SETDIJ:  cpu time    0.0266: real time    0.0267
     EDDAV:  cpu time  156.0945: real time  156.4631
    CHARGE:  cpu time    5.5651: real time    5.5783
    MIXING:  cpu time    0.0097: real time    0.0097
    --------------------------------------------
      LOOP:  cpu time  161.9303: real time  162.3127

 eigenvalue-minimisations  : 43280
 total energy-change (2. order) :-0.4570248E-01  (-0.1315773E-01)
 number of electron     432.0000018 magnetization      17.6023442
 augmentation part      182.2650870 magnetization      11.9034037

 Broyden mixing:
  rms(total) = 0.43678E+00    rms(broyden)= 0.43671E+00
  rms(prec ) = 0.52853E+00
  weight for this iteration     100.00

 eigenvalues of (default mixing * dielectric matrix)
  average eigenvalue GAMMA=   0.4169
  1.9433  1.1058  1.1058  0.7023  0.4695  0.4695  0.3815  0.3815  0.1863  0.1863
  0.1667  0.1247  0.1247  0.1140  0.1022  0.1022  0.0826  0.0864  0.0864

 Free energy of the ion-electron system (eV)
  ---------------------------------------------------
  alpha Z        PSCENC =      1166.52487208
  Ewald energy   TEWEN  =    -28457.48415242
  -Hartree energ DENC   =    -12551.29897784
  -exchange      EXHF   =         0.00000000
  -V(xc)+E(xc)   XCENC  =      1588.83809307
  PAW double counting   =     43084.04275560   -44982.70954247
  entropy T*S    EENTRO =        -0.08785841
  eigenvalues    EBANDS =      -865.67292096
  atomic energy  EATOM  =     40708.47505058
  Solvation  Ediel_sol  =         0.00000000
  ---------------------------------------------------
  free energy    TOTEN  =      -309.37268077 eV

  energy without entropy =     -309.28482235  energy(sigma->0) =     -309.32875156


--------------------------------------------------------------------------------------------------------




--------------------------------------- Iteration      1(  25)  ---------------------------------------


    POTLOK:  cpu time    0.2243: real time    0.2248
    SETDIJ:  cpu time    0.0260: real time    0.0261
     EDDAV:  cpu time  157.0534: real time  157.4242
    CHARGE:  cpu time    5.6009: real time    5.6142
    MIXING:  cpu time    0.0097: real time    0.0097
    --------------------------------------------
      LOOP:  cpu time  162.9143: real time  163.2990

 eigenvalue-minimisations  : 43760
 total energy-change (2. order) :-0.1806786E-03  (-0.8458433E-02)
 number of electron     432.0000018 magnetization      17.2692837
 augmentation part      182.2837061 magnetization      11.6434419

 Broyden mixing:
  rms(total) = 0.34354E+00    rms(broyden)= 0.34348E+00
  rms(prec ) = 0.38207E+00
  weight for this iteration     100.00

 eigenvalues of (default mixing * dielectric matrix)
  average eigenvalue GAMMA=   0.4687
  1.8406  1.5018  1.5018  0.8544  0.6161  0.6161  0.3876  0.3473  0.3473  0.2837
  0.1554  0.1245  0.1245  0.1174  0.1048  0.1048  0.0951  0.0846  0.0846  0.0807

 Free energy of the ion-electron system (eV)
  ---------------------------------------------------
  alpha Z        PSCENC =      1166.52487208
  Ewald energy   TEWEN  =    -28457.48415242
  -Hartree energ DENC   =    -12551.80933515
  -exchange      EXHF   =         0.00000000
  -V(xc)+E(xc)   XCENC  =      1588.91831104
  PAW double counting   =     43089.20026870   -44987.60574809
  entropy T*S    EENTRO =        -0.08500593
  eigenvalues    EBANDS =      -865.50712227
  atomic energy  EATOM  =     40708.47505058
  Solvation  Ediel_sol  =         0.00000000
  ---------------------------------------------------
  free energy    TOTEN  =      -309.37286145 eV

  energy without entropy =     -309.28785552  energy(sigma->0) =     -309.33035848


--------------------------------------------------------------------------------------------------------




--------------------------------------- Iteration      1(  26)  ---------------------------------------


    POTLOK:  cpu time    0.2360: real time    0.2366
    SETDIJ:  cpu time    0.0272: real time    0.0273
     EDDAV:  cpu time  152.4950: real time  152.8550
    CHARGE:  cpu time    5.5270: real time    5.5400
    MIXING:  cpu time    0.0104: real time    0.0104
    --------------------------------------------
      LOOP:  cpu time  158.2956: real time  158.6693

 eigenvalue-minimisations  : 42128
 total energy-change (2. order) :-0.6161980E-01  (-0.6583770E-02)
 number of electron     432.0000018 magnetization      16.8932013
 augmentation part      182.2659251 magnetization      11.3430785

 Broyden mixing:
  rms(total) = 0.38474E+00    rms(broyden)= 0.38471E+00
  rms(prec ) = 0.45807E+00
[...]
  in kB      -53.5519225    -53.1756172   -323.5158393      0.3361139      0.2505726      1.1054603
  external PRESSURE =    -143.4144597 kB  Pullay stress =       0.0000000 kB


 VOLUME and BASIS-vectors are now :
 -----------------------------------------------------------------------------
  energy-cutoff  :      500.00
  volume of cell :      741.51
      direct lattice vectors                 reciprocal lattice vectors
     8.993883000  0.000000000  0.000000000     0.111186681  0.064193660  0.000000000
    -4.496941500  7.788931160  0.000000000     0.000000000  0.128387320  0.000000000
     0.000000000  0.000000000 10.584959750     0.000000000  0.000000000  0.094473671

  length of vectors
     8.993883000  8.993883003 10.584959750     0.128387320  0.128387320  0.094473671


 FORCES acting on ions
    electron-ion (+dipol)            ewald-force                    non-local-force                 convergence-correction
 -----------------------------------------------------------------------------------------------
   0.504E+02 0.437E+02 0.114E+03   -.502E+02 -.437E+02 -.114E+03   -.107E+00 -.169E+00 -.819E+00   -.406E-02 0.660E-03 -.158E-01
   0.320E+02 0.371E+02 -.120E+01   -.317E+02 -.371E+02 0.310E+01   -.304E+00 0.101E+00 -.698E+00   0.172E-01 0.782E-02 0.138E-01
   0.445E+02 0.243E+01 -.157E+02   -.440E+02 -.245E+01 0.164E+02   -.226E+00 0.115E+00 -.197E+01   0.126E-01 0.308E-02 0.688E-02
   -.680E+02 -.307E+02 0.131E+03   0.676E+02 0.300E+02 -.132E+03   0.419E+00 0.253E+00 -.523E+00   0.246E-02 0.136E-01 0.931E-02
   -.426E+02 0.161E+02 -.178E+02   0.421E+02 -.160E+02 0.197E+02   0.203E+00 -.188E+00 -.510E+00   0.904E-02 0.282E-01 -.161E-01
   -.676E+02 -.221E+02 -.533E+02   0.674E+02 0.218E+02 0.538E+02   0.289E+00 0.509E-01 -.954E+00   0.474E-02 -.776E-03 0.513E-02
   -.449E+02 -.683E+02 0.112E+03   0.445E+02 0.677E+02 -.112E+03   0.335E+00 0.320E+00 -.533E+00   -.878E-02 -.159E-01 -.564E-02
   -.376E+02 -.688E+02 0.233E+02   0.373E+02 0.686E+02 -.237E+02   0.267E+00 0.466E-01 0.103E+00   0.398E-02 -.159E-01 0.347E-02
   -.855E+02 -.631E+02 -.113E+03   0.850E+02 0.627E+02 0.116E+03   0.355E+00 0.598E-01 -.661E+00   0.362E-02 0.130E-01 0.326E-03
   -.329E+01 0.908E+02 0.222E+03   0.349E+01 -.904E+02 -.224E+03   -.611E-01 -.862E-01 -.242E+01   -.163E-02 0.415E-02 -.139E-01
   0.772E+01 0.933E+02 -.104E+02   -.758E+01 -.924E+02 0.122E+02   -.220E+00 -.365E+00 -.933E+00   -.229E-01 0.326E-02 0.167E-01
   0.839E+01 0.104E+03 -.348E+02   -.845E+01 -.103E+03 0.342E+02   0.877E-03 -.277E-01 -.104E+01   -.445E-02 0.170E-02 -.666E-02
   0.512E+02 -.188E+02 0.189E+03   -.514E+02 0.187E+02 -.191E+03   0.243E+00 -.614E-01 -.216E+01   0.515E-02 0.229E-01 -.534E-02
   0.504E+02 0.392E+01 0.917E+02   -.502E+02 -.379E+01 -.945E+02   -.600E-01 0.168E-01 -.285E+00   -.208E-02 0.839E-02 -.602E-02
   0.629E+02 0.107E+01 -.149E+03   -.631E+02 -.925E+00 0.154E+03   0.916E-01 -.141E+00 -.117E+01   0.541E-02 -.100E-01 0.591E-02
   0.129E+02 -.176E+02 0.106E+03   -.130E+02 0.174E+02 -.106E+03   -.428E-01 0.148E+00 -.167E-01   0.101E-01 -.146E-01 -.978E-02
   0.223E+02 -.262E+02 -.305E+02   -.220E+02 0.262E+02 0.331E+02   -.454E+00 0.227E+00 -.191E+00   -.147E-01 -.332E-01 0.966E-02
   0.332E+02 -.285E+02 -.613E+02   -.333E+02 0.284E+02 0.617E+02   -.869E-01 0.178E+00 -.996E+00   -.312E-02 0.449E-02 0.329E-03
   -.654E+02 0.816E+02 0.176E+03   0.647E+02 -.814E+02 -.177E+03   0.428E+00 -.405E+00 -.141E+01   0.768E-03 0.255E-02 -.460E-01
   -.544E+02 0.427E+02 -.426E+02   0.539E+02 -.423E+02 0.445E+02   0.288E+00 -.315E+00 -.331E+00   -.217E-02 0.894E-02 0.119E-01
   -.453E+02 0.818E+02 -.639E+02   0.452E+02 -.814E+02 0.649E+02   0.562E-01 -.199E+00 -.551E+00   -.107E-01 -.958E-03 0.352E-01
   0.779E+01 -.125E+02 0.116E+03   -.745E+01 0.124E+02 -.117E+03   -.488E+00 0.140E+00 -.337E+00   -.731E-02 0.189E-01 -.315E-02
   -.157E+02 0.425E+01 -.960E+01   0.160E+02 -.455E+01 0.112E+02   -.215E+00 0.214E+00 -.255E+00   -.705E-02 0.270E-01 -.843E-02
   -.266E+02 0.473E+01 -.835E+02   0.265E+02 -.475E+01 0.847E+02   -.203E+00 0.104E+00 -.421E+00   -.133E-01 -.943E-02 0.868E-02
   0.257E+02 -.944E+02 0.142E+03   -.257E+02 0.940E+02 -.141E+03   -.101E+00 0.115E+00 -.195E+01   -.576E-02 -.156E-01 -.584E-02
   0.744E+01 -.103E+03 0.397E+02   -.734E+01 0.103E+03 -.403E+02   -.170E+00 -.132E+00 -.146E+00   0.118E-01 -.324E-01 -.162E-01
   0.431E+02 -.943E+02 -.839E+02   -.431E+02 0.940E+02 0.858E+02   -.839E-01 -.629E-01 -.122E+01   -.172E-02 -.316E-02 0.212E-01
   0.394E+02 0.273E+02 0.109E+03   -.409E+02 -.279E+02 -.118E+03   0.151E+01 0.686E+00 0.491E+01   0.322E-02 0.259E-02 -.553E-02
   0.272E+02 0.434E+01 -.902E+02   -.277E+02 -.310E+01 0.981E+02   0.487E+00 -.164E+01 -.523E+01   0.121E-01 0.339E-02 0.214E-01
   0.142E+02 0.991E+01 -.104E+03   -.131E+02 -.972E+01 0.112E+03   -.148E+01 -.104E+00 -.637E+01   0.192E-02 -.601E-03 -.155E-01
   -.255E+02 0.750E+01 0.542E+02   0.246E+02 -.815E+01 -.561E+02   0.123E+01 0.786E+00 0.115E+01   0.324E-02 0.148E-01 -.211E-02
   -.297E+02 0.925E+01 -.337E+02   0.300E+02 -.968E+01 0.346E+02   -.129E+00 0.552E+00 -.834E+00   0.639E-02 0.106E-01 -.167E-01
   -.495E+02 -.282E+01 -.737E+02   0.512E+02 0.133E+01 0.794E+02   -.203E+01 0.200E+01 -.451E+01   0.177E-02 0.256E-03 0.174E-01
   -.221E+02 -.363E+02 0.426E+02   0.232E+02 0.357E+02 -.426E+02   -.122E+01 0.895E+00 0.147E-01   -.178E-02 -.118E-01 0.846E-02
   -.404E+02 -.276E+02 -.255E+01   0.406E+02 0.256E+02 -.370E-02   -.482E-01 0.243E+01 0.130E+01   0.428E-02 -.117E-03 -.144E-01
   -.433E+02 -.246E+02 -.600E+02   0.435E+02 0.244E+02 0.630E+02   -.250E-01 0.423E+00 -.239E+01   -.201E-02 0.148E-02 0.655E-02
   0.364E+02 0.371E+02 -.196E+02   -.406E+02 -.360E+02 0.280E+02   0.437E+01 -.138E+01 -.497E+01   -.412E-02 0.278E-02 -.973E-02
   0.597E+01 0.545E+02 0.517E+01   -.552E+01 -.544E+02 -.827E+01   -.505E+00 -.483E+00 0.196E+01   -.108E-01 0.890E-03 0.330E-01
   0.720E+01 0.448E+02 -.147E+03   -.779E+01 -.434E+02 0.160E+03   0.754E+00 -.192E+01 -.103E+02   0.496E-03 0.719E-03 -.179E-01
   0.229E+02 -.204E+02 -.105E+02   -.216E+02 0.227E+02 0.181E+02   -.156E+01 -.257E+01 -.519E+01   0.176E-02 0.111E-01 0.388E-02
   0.449E+02 0.790E+01 -.316E+02   -.462E+02 -.847E+01 0.324E+02   0.131E+01 0.569E+00 -.550E+00   0.127E-03 -.180E-02 -.486E-02
   0.347E+02 -.781E+01 -.761E+02   -.342E+02 0.768E+01 0.803E+02   -.653E+00 0.243E+00 -.407E+01   0.510E-02 0.120E-02 0.288E-02
   0.322E+02 -.176E+02 0.123E+03   -.344E+02 0.183E+02 -.132E+03   0.242E+01 -.761E+00 0.589E+01   -.131E-02 -.189E-01 -.176E-01
   0.339E+02 -.320E+02 -.387E+02   -.355E+02 0.329E+02 0.394E+02   0.200E+01 -.100E+01 -.634E+00   -.776E-02 -.767E-02 0.486E-02
   0.217E+02 -.181E+02 -.996E+02   -.221E+02 0.186E+02 0.107E+03   0.389E+00 -.506E+00 -.566E+01   0.304E-02 0.127E-02 0.130E-01
   -.324E+02 0.554E+02 0.295E+02   0.327E+02 -.580E+02 -.280E+02   -.151E+00 0.281E+01 -.726E+00   -.318E-03 0.181E-02 -.490E-01
   -.264E+02 0.351E+02 0.282E+02   0.258E+02 -.347E+02 -.338E+02   0.747E+00 -.644E+00 0.354E+01   -.506E-02 0.340E-02 0.483E-01
   -.283E+02 0.590E+02 -.119E+03   0.289E+02 -.600E+02 0.129E+03   -.648E+00 0.119E+01 -.765E+01   -.272E-02 -.324E-02 -.308E-02
   -.369E+01 -.840E+01 0.616E+02   0.401E+01 0.896E+01 -.647E+02   -.246E+00 -.629E+00 0.182E+01   -.277E-02 0.165E-01 -.513E-02
   -.118E+02 0.360E+01 -.615E+01   0.117E+02 -.280E+01 0.469E+01   0.191E+00 -.999E+00 0.895E+00   -.672E-02 0.403E-02 -.271E-02
   0.928E+01 -.362E+01 -.734E+02   -.113E+02 0.370E+01 0.777E+02   0.253E+01 -.192E+00 -.351E+01   -.606E-02 -.619E-03 0.891E-02
   0.210E+02 -.395E+02 0.549E+02   -.239E+02 0.381E+02 -.551E+02   0.325E+01 0.201E+01 0.105E+00   0.428E-02 -.175E-01 -.352E-01
   0.155E+02 -.383E+02 -.240E+02   -.149E+02 0.362E+02 0.246E+02   -.683E+00 0.287E+01 -.557E+00   0.343E-02 -.102E-01 0.524E-02
   0.309E+02 -.431E+02 -.119E+03   -.314E+02 0.420E+02 0.127E+03   0.515E+00 0.146E+01 -.689E+01   -.251E-02 -.306E-02 0.247E-01
 -----------------------------------------------------------------------------------------------
   -.125E+02 -.606E+01 0.708E+02   -.210E-12 0.163E-12 -.185E-12   0.125E+02 0.604E+01 -.708E+02   -.257E-01 0.179E-01 -.113E-01
 
 
 POSITION                                       TOTAL-FORCE (eV/Angst)
 -----------------------------------------------------------------------------------
      0.02232      0.08346     10.57175         0.144346     -0.161213     -0.760668
     -4.48010      7.77381      3.40030        -0.012298      0.124750      1.216673
      4.46437      7.70016      6.89628         0.245759      0.102958     -1.226026
      7.28518      2.55400     10.58020         0.046410     -0.416777     -1.538962
      7.34897      2.56765      3.40145        -0.267205     -0.062792      1.377162
      7.27713      2.53561      6.93127         0.046334     -0.258359     -0.404844
      5.81954      5.08907     10.58476        -0.030523     -0.230161     -1.289790
      5.86538      5.03043      3.49249        -0.030032     -0.169248     -0.311219
      5.84616      5.15493      6.88243        -0.233280     -0.335765      2.174484
     -1.51358      7.74967      0.02519         0.132741      0.290237     -4.437804
     -1.53872      7.76630      3.36792        -0.110380      0.478101      0.911253
      2.95772      0.02197      6.89739        -0.070140      0.269200     -1.653177
      1.38811      2.50862      0.01172         0.127187     -0.047311     -3.384189
      1.44127      2.53044      3.47897         0.165250      0.153143     -3.130096
      1.50263      2.54224      6.74069        -0.115152     -0.006157      3.639290
      0.00426      5.13499     10.55359        -0.183217     -0.070395     -0.441938
     -0.00455      5.04514      3.44051        -0.201097      0.167948      2.415502
      0.07075      5.02392      6.91518        -0.165087      0.042707     -0.631212
      5.84774      0.11364      0.02941        -0.216958     -0.192352     -2.583820
      1.30027      7.75723      3.39028        -0.232115      0.074259      1.541794
      5.89300      0.03849      6.90338        -0.034790      0.138143      0.415225
      4.43004      2.51830     10.57262        -0.151119      0.059264     -0.972328
      4.30727      2.53158      3.42254         0.030528     -0.066239      1.323374
      4.46358      2.53222      6.89894        -0.342784      0.077680      0.800603
      3.01314      5.05043     10.58085        -0.129668     -0.347735     -1.306244
      2.91137      5.17589      3.45734        -0.063035     -0.769594     -0.741565
      3.03380      5.07209      6.84330        -0.044412     -0.342849      0.734587
      8.94549      0.00296      1.79690         0.039950      0.018513     -3.628509
      8.96800      0.01268      5.03916        -0.045528     -0.389249      2.701316
     -4.43497      7.75641      8.59231        -0.372946      0.085923      1.718974
      7.27362      2.52377      1.73001         0.272955      0.151825     -0.747145
      7.33150      2.53829      5.14767         0.128142      0.127195      0.065496
      7.38511      2.45402      8.65324        -0.283470      0.507469      1.295636
      5.88853      5.04134      1.75159        -0.124295      0.273057      0.017338
      5.86023      5.02234      5.21260         0.136478      0.431540     -1.269764
      5.85199      5.11604      8.67168         0.137938      0.206271      0.664559
      2.81433      0.01109      1.61094         0.212385     -0.294441      3.494256
      2.97165      0.01570      5.17433        -0.065620     -0.349107     -1.101654
      2.93605      0.07288      8.52851         0.166176     -0.451500      2.719436
      1.45956      2.60867      1.65245        -0.244419     -0.239967      2.405210
      1.42730      2.51745      5.10348         0.019641     -0.002357      0.279378
      1.47739      2.50486      8.57087        -0.149694      0.109483      0.123073
     -0.10953      5.12341      1.82611         0.251513     -0.020051     -3.317561
     -0.04261      5.07036      5.16787         0.352525     -0.164727      0.083301
      0.02100      5.09836      8.60250         0.010222      0.011040      1.980335
      1.31758      7.72742      1.69391         0.156976      0.163788      0.726299
      5.83686      0.02437      5.21915         0.139349     -0.262710     -1.974851
      1.41941      7.78302      8.58845        -0.050195      0.171676      1.876124
      4.37195      2.53414      1.75074         0.070177     -0.056606     -1.295572
      4.36116      2.57804      5.17342         0.101492     -0.200114     -0.568342
      4.33932      2.53390      8.64994         0.519692     -0.111162      0.791339
      2.83216      5.05526      1.73405         0.405541      0.634344     -0.222775
      2.99633      5.02301      5.13442        -0.116614      0.744286      0.054403
      2.99987      5.01955      8.55774         0.026367      0.404136      1.393635
 -----------------------------------------------------------------------------------
    total drift:                               -0.000546     -0.003939      0.012876


--------------------------------------------------------------------------------------------------------



  FREE ENERGIE OF THE ION-ELECTRON SYSTEM (eV)
  ---------------------------------------------------
  free  energy   TOTEN  =      -309.8915264146 eV

  energy  without entropy=     -309.8225055509  energy(sigma->0) =     -309.85701598
 


--------------------------------------------------------------------------------------------------------


    POTLOK:  cpu time    0.2587: real time    0.2593


--------------------------------------------------------------------------------------------------------


     LOOP+:  cpu time11403.1114: real time11439.8777
    4ORBIT:  cpu time    0.0000: real time    0.0000

volume of typ            1:    23.2 %

volume of typ            2:     5.9 %
 
total charge     
 
# of ion       s       p       d       tot
------------------------------------------
    1        0.220   0.167   7.922   8.309
    2        0.337   0.371   7.895   8.603
    3        0.262   0.235   7.891   8.388
    4        0.245   0.206   7.915   8.366
    5        0.287   0.283   7.891   8.460
    6        0.268   0.250   7.881   8.400
    7        0.247   0.205   7.895   8.346
    8        0.275   0.263   7.895   8.433
    9        0.280   0.269   7.898   8.446
   10        0.274   0.239   7.933   8.446
   11        0.250   0.224   7.918   8.392
   12        0.309   0.318   7.880   8.506
   13        0.267   0.228   7.899   8.395
   14        0.282   0.277   7.926   8.486
   15        0.279   0.270   7.915   8.464
   16        0.212   0.157   7.925   8.294
   17        0.309   0.322   7.890   8.521
   18        0.283   0.273   7.886   8.441
   19        0.250   0.211   7.935   8.396
   20        0.263   0.242   7.907   8.413
   21        0.302   0.310   7.874   8.487
   22        0.240   0.204   7.902   8.347
   23        0.282   0.282   7.917   8.480
   24        0.272   0.265   7.883   8.420
   25        0.234   0.182   7.910   8.326
   26        0.287   0.284   7.896   8.466
   27        0.287   0.284   7.892   8.462
   28        1.270   2.761   0.010   4.041
   29        1.268   2.750   0.008   4.026
   30        1.272   2.700   0.006   3.978
   31        1.269   2.752   0.010   4.031
   32        1.266   2.735   0.007   4.008
   33        1.270   2.703   0.006   3.979
   34        1.267   2.736   0.007   4.011
   35        1.269   2.757   0.010   4.035
   36        1.270   2.693   0.004   3.967
   37        1.273   2.760   0.012   4.045
   38        1.268   2.730   0.007   4.005
   39        1.276   2.711   0.007   3.994
   40        1.269   2.745   0.009   4.023
   41        1.273   2.782   0.014   4.069
   42        1.275   2.666   0.003   3.944
   43        1.270   2.746   0.009   4.025
   44        1.265   2.749   0.007   4.022
   45        1.269   2.712   0.006   3.987
   46        1.270   2.755   0.011   4.036
   47        1.267   2.742   0.007   4.016
   48        1.272   2.705   0.006   3.983
   49        1.269   2.745   0.009   4.024
   50        1.268   2.743   0.008   4.019
   51        1.272   2.696   0.005   3.973
   52        1.268   2.737   0.008   4.014
   53        1.269   2.760   0.010   4.038
   54        1.274   2.691   0.005   3.970
--------------------------------------------------
tot          41.59   80.58  213.58  335.76
 
magnetization (x)
 
# of ion       s       p       d       tot
------------------------------------------
    1        0.007  -0.003   0.756   0.760
    2       -0.013   0.005  -0.753  -0.761
    3        0.017  -0.000   0.961   0.978
    4        0.007  -0.003   0.532   0.535
    5       -0.010   0.004  -0.751  -0.757
    6        0.017  -0.003   0.946   0.960
    7        0.009  -0.004   0.840   0.845
    8       -0.009   0.004  -0.695  -0.700
    9        0.015  -0.004   0.662   0.673
   10        0.008   0.001   0.890   0.899
   11       -0.004   0.004  -0.378  -0.378
   12        0.021  -0.002   0.823   0.843
   13        0.011  -0.003   1.013   1.021
   14       -0.007   0.001  -0.521  -0.527
   15        0.009  -0.005   0.256   0.260
   16        0.006  -0.002   0.667   0.671
   17       -0.013   0.004  -0.795  -0.804
   18        0.020  -0.002   0.906   0.924
   19        0.003  -0.004   0.266   0.266
   20       -0.008   0.003  -0.679  -0.684
   21        0.023  -0.005   0.972   0.990
   22        0.007  -0.003   0.924   0.929
   23       -0.004   0.003   0.305   0.304
   24        0.016  -0.004   0.945   0.957
   25        0.006  -0.003   0.850   0.854
   26       -0.010   0.004  -0.682  -0.688
   27        0.017  -0.003   0.730   0.743
   28       -0.002  -0.109  -0.000  -0.111
   29       -0.003  -0.145  -0.000  -0.149
   30        0.013   0.480   0.000   0.492
   31       -0.004  -0.131   0.000  -0.135
   32       -0.001  -0.036   0.000  -0.037
   33        0.011   0.424   0.000   0.435
   34        0.000   0.017   0.000   0.017
   35       -0.003  -0.093   0.000  -0.096
   36        0.011   0.411   0.000   0.422
   37        0.006   0.259   0.000   0.265
   38       -0.002  -0.060   0.000  -0.062
   39        0.010   0.415   0.000   0.425
   40        0.007   0.275   0.000   0.282
   41       -0.005  -0.191   0.000  -0.196
   42        0.010   0.403  -0.000   0.413
   43       -0.004  -0.186  -0.000  -0.190
   44       -0.001  -0.051   0.000  -0.052
   45        0.011   0.420   0.000   0.431
   46       -0.004  -0.139   0.000  -0.142
   47        0.002   0.081   0.000   0.083
   48        0.010   0.399   0.000   0.409
   49        0.007   0.280   0.000   0.287
   50        0.004   0.143   0.000   0.147
   51        0.012   0.454   0.000   0.466
   52        0.001   0.044   0.000   0.046
   53       -0.003  -0.120   0.000  -0.123
   54        0.011   0.445   0.000   0.456
--------------------------------------------------
tot           0.23    3.67    8.99   12.90
 

 total amount of memory used by VASP MPI-rank0   439626. kBytes
=======================================================================

   base      :      30000. kBytes
   nonlr-proj:      41380. kBytes
   fftplans  :       8419. kBytes
   grid      :      47806. kBytes
   one-center:       1679. kBytes
   wavefun   :     310342. kBytes
 
  
  
 General timing and accounting informations for this job:
 ========================================================
  
                  Total CPU time used (sec):    11482.526
                            User time (sec):    11471.345
                          System time (sec):       11.182
                         Elapsed time (sec):    11523.721
  
                   Maximum memory used (kb):      539196.
                   Average memory used (kb):           0.
  
                          Minor page faults:        46985
                          Major page faults:           20
                 Voluntary context switches:         1574
