 vasp.5.4.4.18Apr17-6-g9f103f2a35 (build May 12 2020 04:58:55) complex          
  
 MD_VERSION_INFO: Compiled 2020-05-12T11:58:55-UTC in devlin.sd.materialsdesign.
 com:/home/medea2/data/build/wwolf/vasp-gpu5.4.4/13047/x86_64/src/src/build/std 
 from svn 13047
 
 This VASP executable licensed from Materials Design, Inc.
 
 executed on                        Lin64 date 2023.03.24  07:10:05
 running on   16 total cores
 distrk:  each k-point on   16 cores,    1 groups
 distr:  one band on NCORES_PER_BAND=   1 cores,   16 groups


--------------------------------------------------------------------------------------------------------


 INCAR:
 POTCAR:    PAW_PBE Ni 02Aug2007                  
 POTCAR:    PAW_PBE O 08Apr2002                   

 ----------------------------------------------------------------------------- 
|                                                                             |
|           W    W    AA    RRRRR   N    N  II  N    N   GGGG   !!!           |
|           W    W   A  A   R    R  NN   N  II  NN   N  G    G  !!!           |
|           W    W  A    A  R    R  N N  N  II  N N  N  G       !!!           |
|           W WW W  AAAAAA  RRRRR   N  N N  II  N  N N  G  GGG   !            |
|           WW  WW  A    A  R   R   N   NN  II  N   NN  G    G                |
|           W    W  A    A  R    R  N    N  II  N    N   GGGG   !!!           |
|                                                                             |
|      For optimal performance we recommend to set                            |
|        NCORE= 4 - approx SQRT( number of cores)                             |
|      NCORE specifies how many cores store one orbital (NPAR=cpu/NCORE).     |
|      This setting can  greatly improve the performance of VASP for DFT.     |
|      The default,   NCORE=1            might be grossly inefficient         |
|      on modern multi-core architectures or massively parallel machines.     |
|      Do your own testing !!!!                                               |
|      Unfortunately you need to use the default for GW and RPA calculations. |
|      (for HF NCORE is supported but not extensively tested yet)             |
|                                                                             |
 ----------------------------------------------------------------------------- 

 POTCAR:    PAW_PBE Ni 02Aug2007                  
  local pseudopotential read in
  partial core-charges read in
  partial kinetic energy density read in
  atomic valenz-charges read in
  non local Contribution for L=           2  read in
    real space projection operators read in
  non local Contribution for L=           2  read in
    real space projection operators read in
  non local Contribution for L=           0  read in
    real space projection operators read in
  non local Contribution for L=           0  read in
    real space projection operators read in
  non local Contribution for L=           1  read in
    real space projection operators read in
  non local Contribution for L=           1  read in
    real space projection operators read in
    PAW grid and wavefunctions read in
 
   number of l-projection  operators is LMAX  =           6
   number of lm-projection operators is LMMAX =          18
 
 POTCAR:    PAW_PBE O 08Apr2002                   
  local pseudopotential read in
  partial core-charges read in
  partial kinetic energy density read in
  kinetic energy density of atom read in
  atomic valenz-charges read in
  non local Contribution for L=           0  read in
    real space projection operators read in
  non local Contribution for L=           0  read in
    real space projection operators read in
  non local Contribution for L=           1  read in
    real space projection operators read in
  non local Contribution for L=           1  read in
    real space projection operators read in
    PAW grid and wavefunctions read in
 
   number of l-projection  operators is LMAX  =           4
   number of lm-projection operators is LMMAX =           8
 
 Optimization of the real space projectors (new method)

 maximal supplied QI-value         = 16.25
 optimisation between [QCUT,QGAM] = [ 11.38, 22.75] = [ 36.24,144.96] Ry 
 Optimized for a Real-space Cutoff    1.47 Angstroem

   l    n(q)    QCUT    max X(q) W(low)/X(q) W(high)/X(q)  e(spline) 
   2      9    11.376    60.317    0.17E-03    0.16E-04    0.16E-06
   2      9    11.376    55.921    0.17E-03    0.16E-04    0.17E-06
   0     10    11.376    51.690    0.45E-04    0.60E-04    0.21E-06
   0     10    11.376    30.015    0.37E-04    0.55E-04    0.19E-06
   1     10    11.376    18.849    0.83E-04    0.11E-03    0.92E-07
   1     10    11.376    14.624    0.69E-04    0.92E-04    0.82E-07
 Optimization of the real space projectors (new method)

 maximal supplied QI-value         = 24.76
 optimisation between [QCUT,QGAM] = [ 11.39, 22.77] = [ 36.31,145.25] Ry 
 Optimized for a Real-space Cutoff    1.10 Angstroem

   l    n(q)    QCUT    max X(q) W(low)/X(q) W(high)/X(q)  e(spline) 
   0      7    11.387    20.381    0.22E-03    0.48E-03    0.18E-06
   0      7    11.387    15.268    0.22E-03    0.52E-03    0.19E-06
   1      7    11.387     5.964    0.22E-03    0.73E-03    0.24E-06
   1      7    11.387     5.382    0.19E-03    0.60E-03    0.21E-06

 ----------------------------------------------------------------------------- 
|                                                                             |
|  ADVICE TO THIS USER RUNNING 'VASP/VAMP'   (HEAR YOUR MASTER'S VOICE ...):  |
|                                                                             |
|      You enforced a specific xc-type in the INCAR file,                     |
|      a different type was found on the POTCAR file                          |
|          I HOPE YOU KNOW, WHAT YOU ARE  DOING                               |
|                                                                             |
 ----------------------------------------------------------------------------- 

  PAW_PBE Ni 02Aug2007                  :
 energy of atom  1       EATOM=-1077.6739
 kinetic energy error for atom=    0.0030 (will be added to EATOM!!)
  PAW_PBE O 08Apr2002                   :
 energy of atom  2       EATOM= -432.3788
 kinetic energy error for atom=    0.0224 (will be added to EATOM!!)
 
 
 POSCAR: NiO_Cmmm_scale_0_975_disp_0_10_round_2  
  positions in direct lattice
  No initial velocities read in
 exchange correlation table for  LEXCH =       14
   RHO(1)=    0.500       N(1)  =     2000
   RHO(2)=  100.500       N(2)  =     4000
 


--------------------------------------------------------------------------------------------------------


 ion  position               nearest neighbor table
   1  0.997  0.010  1.000-  30 1.25  28 1.78   4 2.70  19 2.82  25 2.88  13 2.92   7 3.07
   2  0.022  0.012  0.357-  29 1.48  28 1.82  14 2.73  11 2.76  20 2.81   8 2.84   5 2.85  26 2.87

   3  0.005  0.997  0.693-  30 1.85  29 1.95   9 2.70  21 2.75  27 2.80  12 2.85  15 2.99   6 3.02

   4  0.033  0.342  0.990-  33 1.32  31 1.71  13 2.60   1 2.70   7 2.81  16 2.81  22 2.95  19 3.05

   5  0.026  0.345  0.326-  31 1.67  32 1.73  14 2.70  17 2.76   2 2.85  23 2.88   8 2.90  20 2.96

   6  0.044  0.367  0.678-  32 1.82  33 1.84  18 2.56  15 2.74   9 2.86  24 2.89   3 3.02  21 3.03

   7  0.020  0.663  0.992-  36 1.45  34 1.92  16 2.49   4 2.81  22 2.87  10 3.06   9 3.07   1 3.07

   8  0.019  0.679  0.360-  35 1.54  34 1.79  11 2.71  17 2.77   2 2.84  23 2.86  26 2.86   5 2.90

   9  0.028  0.693  0.688-  36 1.63  35 1.77  12 2.61  18 2.66   3 2.70   6 2.86  27 2.96  24 2.99
                             7 3.07
  10  0.371  0.027  0.999-  39 1.56  37 1.69  19 2.62  22 2.63  16 2.67  13 2.90   7 3.06
  11  0.333  0.994  0.323-  37 1.59  38 2.01   8 2.71  17 2.76   2 2.76  14 2.93  20 3.03  23 3.03

  12  0.337  0.995  0.690-  39 1.60  38 1.70   9 2.61  18 2.68   3 2.85  15 2.94  21 2.96  24 2.96

  13  0.340  0.349  0.992-  42 1.42  40 1.87   4 2.60  25 2.76  10 2.90   1 2.92  22 3.02  16 3.04

  14  0.335  0.336  0.350-  41 1.72  40 1.75   5 2.70   2 2.73  17 2.89  11 2.93  26 2.96  23 2.99

  15  0.352  0.345  0.662-  41 1.45  42 1.91   6 2.74  27 2.79  12 2.94  18 2.96  24 2.96   3 2.99

  16  0.325  0.695  0.017-  43 1.50  45 1.63   7 2.49  10 2.67  19 2.77   4 2.81  25 2.90  13 3.04

  17  0.340  0.675  0.331-  43 1.69  44 1.76  11 2.76   5 2.76   8 2.77  20 2.85  14 2.89  26 2.95

  18  0.330  0.678  0.681-  44 1.77  45 1.79   6 2.56   9 2.66  12 2.68  27 2.95  15 2.96  21 2.98

  19  0.663  0.001  0.001-  48 1.53  46 1.82  10 2.62  25 2.73  22 2.74  16 2.77   1 2.82   4 3.05

  20  0.686  0.993  0.336-  46 1.58  47 1.86  26 2.70   2 2.81  17 2.85   5 2.96  23 2.99  11 3.03

  21  0.692  0.012  0.688-  48 1.64  47 1.68  24 2.75   3 2.75  27 2.81  12 2.96  18 2.98   6 3.03

  22  0.683  0.330  0.009-  49 1.55  51 1.60  10 2.63  19 2.74   7 2.87   4 2.95  13 3.02
  23  0.688  0.344  0.340-  50 1.68  49 1.81   8 2.86  26 2.87   5 2.88  20 2.99  14 2.99  11 3.03

  24  0.691  0.333  0.689-  51 1.62  50 1.85  21 2.75   6 2.89  15 2.96  12 2.96   9 2.99  27 3.00

  25  0.655  0.678  0.007-  54 1.63  52 1.73  19 2.73  13 2.76   1 2.88  16 2.90
  26  0.685  0.678  0.344-  52 1.67  53 1.94  20 2.70   8 2.86   2 2.87  23 2.87  17 2.95  14 2.96

  27  0.673  0.675  0.685-  53 1.50  54 1.64  15 2.79   3 2.80  21 2.81  18 2.95   9 2.96  24 3.00

  28  0.014  0.018  0.176-   1 1.78   2 1.82
  29  0.982  0.989  0.500-   2 1.48   3 1.95
  30  0.005  0.002  0.876-   1 1.25   3 1.85
  31  0.046  0.355  0.160-   5 1.67   4 1.71
  32  0.032  0.361  0.497-   5 1.73   6 1.82
  33  0.022  0.345  0.860-   4 1.32   6 1.84
  34  0.025  0.679  0.182-   8 1.79   7 1.92
  35  0.018  0.671  0.513-   8 1.54   9 1.77
  36  0.019  0.679  0.849-   7 1.45   9 1.63
  37  0.351  0.005  0.166-  11 1.59  10 1.69
  38  0.336  0.006  0.522-  12 1.70  11 2.01
  39  0.360  0.987  0.847-  10 1.56  12 1.60
  40  0.342  0.332  0.177-  14 1.75  13 1.87
  41  0.323  0.332  0.520-  15 1.45  14 1.72
  42  0.353  0.347  0.851-  13 1.42  15 1.91
  43  0.357  0.702  0.164-  16 1.50  17 1.69
  44  0.332  0.671  0.505-  17 1.76  18 1.77
  45  0.335  0.667  0.858-  16 1.63  18 1.79
  46  0.654  0.995  0.182-  20 1.58  19 1.82
  47  0.688  0.002  0.521-  21 1.68  20 1.86
  48  0.668  0.986  0.849-  19 1.53  21 1.64
  49  0.664  0.338  0.162-  22 1.55  23 1.81
  50  0.663  0.330  0.506-  23 1.68  24 1.85
  51  0.689  0.330  0.850-  22 1.60  24 1.62
  52  0.675  0.689  0.179-  26 1.67  25 1.73
  53  0.673  0.678  0.537-  27 1.50  26 1.94
  54  0.692  0.694  0.847-  25 1.63  27 1.64
 
  LATTYP: Found a hexagonal cell.
 ALAT       =     8.5551570040
 C/A-ratio  =     1.1769065425
  
  Lattice vectors:
  
 A1 = (   8.5551570000,   0.0000000000,   0.0000000000)
 A2 = (  -4.2775785000,   7.4089833000,   0.0000000000)
 A3 = (   0.0000000000,   0.0000000000,  10.0686202500)


Analysis of symmetry for initial positions (statically):
=====================================================================
 Subroutine PRICEL returns:
 Original cell was already a primitive cell.
 

 Routine SETGRP: Setting up the symmetry group for a 
 hexagonal supercell.


 Subroutine GETGRP returns: Found  1 space group operations
 (whereof  1 operations were pure point group operations)
 out of a pool of 24 trial point group operations.


The static configuration has the point symmetry C_1 .


Analysis of symmetry for dynamics (positions and initial velocities):
=====================================================================
 Subroutine PRICEL returns:
 Original cell was already a primitive cell.
 

 Routine SETGRP: Setting up the symmetry group for a 
 hexagonal supercell.


 Subroutine GETGRP returns: Found  1 space group operations
 (whereof  1 operations were pure point group operations)
 out of a pool of 24 trial point group operations.


The dynamic configuration has the point symmetry C_1 .


Analysis of structural, dynamic, and magnetic symmetry:
=====================================================================
 Subroutine PRICEL returns:
 Original cell was already a primitive cell.
 

 Routine SETGRP: Setting up the symmetry group for a 
 hexagonal supercell.


 Subroutine GETGRP returns: Found  1 space group operations
 (whereof  1 operations were pure point group operations)
 out of a pool of 24 trial point group operations.


The magnetic configuration has the point symmetry C_1 .


 Subroutine INISYM returns: Found  1 space group operations
 (whereof  1 operations are pure point group operations),
 and found     1 'primitive' translations

 
 
 KPOINTS: Automatic mesh                          

Automatic generation of k-mesh.
Space group operators:
 irot       det(A)        alpha          n_x          n_y          n_z        tau_x        tau_y        tau_z
    1     1.000000     0.000000     1.000000     0.000000     0.000000     0.000000     0.000000     0.000000
 
 Subroutine IBZKPT returns following result:
 ===========================================
 
 Found     26 irreducible k-points:
 
 Following reciprocal coordinates:
            Coordinates               Weight
  0.000000  0.000000  0.000000      1.000000
  0.250000  0.000000  0.000000      2.000000
  0.500000  0.000000  0.000000      1.000000
  0.000000  0.250000  0.000000      2.000000
  0.250000  0.250000  0.000000      2.000000
  0.500000  0.250000  0.000000      2.000000
 -0.250000  0.250000  0.000000      2.000000
  0.000000  0.500000  0.000000      1.000000
  0.250000  0.500000  0.000000      2.000000
  0.500000  0.500000  0.000000      1.000000
  0.000000  0.000000  0.333333      2.000000
  0.250000  0.000000  0.333333      2.000000
  0.500000  0.000000  0.333333      2.000000
 -0.250000  0.000000  0.333333      2.000000
  0.000000  0.250000  0.333333      2.000000
  0.250000  0.250000  0.333333      2.000000
  0.500000  0.250000  0.333333      2.000000
 -0.250000  0.250000  0.333333      2.000000
  0.000000  0.500000  0.333333      2.000000
  0.250000  0.500000  0.333333      2.000000
  0.500000  0.500000  0.333333      2.000000
 -0.250000  0.500000  0.333333      2.000000
  0.000000 -0.250000  0.333333      2.000000
  0.250000 -0.250000  0.333333      2.000000
  0.500000 -0.250000  0.333333      2.000000
 -0.250000 -0.250000  0.333333      2.000000
 
 Following cartesian coordinates:
            Coordinates               Weight
  0.000000  0.000000  0.000000      1.000000
  0.029222  0.016871  0.000000      2.000000
  0.058444  0.033743  0.000000      1.000000
  0.000000  0.033743  0.000000      2.000000
  0.029222  0.050614  0.000000      2.000000
  0.058444  0.067486  0.000000      2.000000
 -0.029222  0.016871  0.000000      2.000000
  0.000000  0.067486  0.000000      1.000000
  0.029222  0.084357  0.000000      2.000000
  0.058444  0.101228  0.000000      1.000000
  0.000000  0.000000  0.033106      2.000000
  0.029222  0.016871  0.033106      2.000000
  0.058444  0.033743  0.033106      2.000000
 -0.029222 -0.016871  0.033106      2.000000
  0.000000  0.033743  0.033106      2.000000
  0.029222  0.050614  0.033106      2.000000
  0.058444  0.067486  0.033106      2.000000
 -0.029222  0.016871  0.033106      2.000000
  0.000000  0.067486  0.033106      2.000000
  0.029222  0.084357  0.033106      2.000000
  0.058444  0.101228  0.033106      2.000000
 -0.029222  0.050614  0.033106      2.000000
  0.000000 -0.033743  0.033106      2.000000
  0.029222 -0.016871  0.033106      2.000000
  0.058444  0.000000  0.033106      2.000000
 -0.029222 -0.050614  0.033106      2.000000
 


--------------------------------------------------------------------------------------------------------




 Dimension of arrays:
   k-points           NKPTS =     26   k-points in BZ     NKDIM =     26   number of bands    NBANDS=    304
   number of dos      NEDOS =    301   number of ions     NIONS =     54
   non local maximal  LDIM  =      6   non local SUM 2l+1 LMDIM =     18
   total plane-waves  NPLWV = 327680
   max r-space proj   IRMAX =   6943   max aug-charges    IRDMAX=  16841
   dimension x,y,z NGX =    64 NGY =   64 NGZ =   80
   dimension x,y,z NGXF=   128 NGYF=  128 NGZF=  160
   support grid    NGXF=   128 NGYF=  128 NGZF=  160
   ions per type =              27  27
   NGX,Y,Z   is equivalent  to a cutoff of  12.44, 12.44, 13.21 a.u.
   NGXF,Y,Z  is equivalent  to a cutoff of  24.87, 24.87, 26.42 a.u.

 SYSTEM =  unknown system                          
 POSCAR =  NiO_Cmmm_scale_0_975_disp_0_10_round_2  

 Startparameter for this run:
   NWRITE =      1    write-flag & timer
   PREC   = accura    normal or accurate (medium, high low for compatibility)
   ISTART =      0    job   : 0-new  1-cont  2-samecut
   ICHARG =      2    charge: 1-file 2-atom 10-const
   ISPIN  =      2    spin polarized calculation?
   LNONCOLLINEAR =      F non collinear calculations
   LSORBIT =      F    spin-orbit coupling
   INIWAV =      1    electr: 0-lowe 1-rand  2-diag
   LASPH  =      F    aspherical Exc in radial PAW
   METAGGA=      F    non-selfconsistent MetaGGA calc.

 Electronic Relaxation 1
   ENCUT  =  500.0 eV  36.75 Ry    6.06 a.u.  15.60 15.60 18.36*2*pi/ulx,y,z
   ENINI  =  500.0     initial cutoff
   ENAUG  =  605.4 eV  augmentation charge cutoff
   NELM   =     80;   NELMIN=  2; NELMDL= -5     # of ELM steps 
   EDIFF  = 0.1E-04   stopping-criterion for ELM
   LREAL  =      T    real-space projection
   NLSPLINE    = F    spline interpolate recip. space projectors
   LCOMPAT=      F    compatible to vasp.4.4
   GGA_COMPAT  = T    GGA compatible to vasp.4.4-vasp.4.6
   LMAXPAW     = -100 max onsite density
   LMAXMIX     =    2 max onsite mixed and CHGCAR
   VOSKOWN=      1    Vosko Wilk Nusair interpolation
   ROPT   =   -0.00025  -0.00025
 Ionic relaxation
   EDIFFG = 0.1E-03   stopping-criterion for IOM
   NSW    =      0    number of steps for IOM
   NBLOCK =      1;   KBLOCK =      1    inner block; outer block 
   IBRION =     -1    ionic relax: 0-MD 1-quasi-New 2-CG
   NFREE  =      0    steps in history (QN), initial steepest desc. (CG)
   ISIF   =      2    stress and relaxation
   IWAVPR =     10    prediction:  0-non 1-charg 2-wave 3-comb
   ISYM   =      2    0-nonsym 1-usesym 2-fastsym
   LCORR  =      T    Harris-Foulkes like correction to forces

   POTIM  = 0.5000    time-step for ionic-motion
   TEIN   =    0.0    initial temperature
   TEBEG  =    0.0;   TEEND  =   0.0 temperature during run
   SMASS  =  -3.00    Nose mass-parameter (am)
   estimated Nose-frequenzy (Omega)   =  0.10E-29 period in steps =****** mass=  -0.167E-26a.u.
   SCALEE = 1.0000    scale energy and forces
   NPACO  =    256;   APACO  = 16.0  distance and # of slots for P.C.
   PSTRESS=    0.0 pullay stress

  Mass of Ions in am
   POMASS =  58.69 16.00
  Ionic Valenz
   ZVAL   =  10.00  6.00
  Atomic Wigner-Seitz radii
   RWIGS  =   1.15  0.73
  virtual crystal weights 
   VCA    =   1.00  1.00
   NELECT =     432.0000    total number of electrons
   NUPDOWN=      -1.0000    fix difference up-down

 DOS related values:
   EMIN   =  10.00;   EMAX   =-10.00  energy-range for DOS
   EFERMI =   0.00
   ISMEAR =     0;   SIGMA  =   0.05  broadening in eV -4-tet -1-fermi 0-gaus

 Electronic relaxation 2 (details)
   IALGO  =     38    algorithm
   LDIAG  =      T    sub-space diagonalisation (order eigenvalues)
   LSUBROT=      F    optimize rotation matrix (better conditioning)
   TURBO    =      0    0=normal 1=particle mesh
   IRESTART =      0    0=no restart 2=restart with 2 vectors
   NREBOOT  =      0    no. of reboots
   NMIN     =      0    reboot dimension
   EREF     =   0.00    reference energy to select bands
   IMIX   =      4    mixing-type and parameters
     AMIX     =   0.40;   BMIX     =  1.00
     AMIX_MAG =   1.60;   BMIX_MAG =  1.00
     AMIN     =   0.10
     WC   =   100.;   INIMIX=   1;  MIXPRE=   1;  MAXMIX= -45

 Intra band minimization:
   WEIMIN = 0.0000     energy-eigenvalue tresh-hold
   EBREAK =  0.82E-08  absolut break condition
   DEPER  =   0.30     relativ break condition  

   TIME   =   0.40     timestep for ELM

  volume/ion in A,a.u.               =      11.82        79.76
  Fermi-wavevector in a.u.,A,eV,Ry     =   1.437421  2.716331 28.112062  2.066178
  Thomas-Fermi vector in A             =   2.556500
 
 Write flags
   LWAVE        =      F    write WAVECAR
   LDOWNSAMPLE  =      F    k-point downsampling of WAVECAR
   LCHARG       =      T    write CHGCAR
   LVTOT        =      F    write LOCPOT, total local potential
   LVHAR        =      F    write LOCPOT, Hartree potential only
   LELF         =      F    write electronic localiz. function (ELF)
   LORBIT       =      0    0 simple, 1 ext, 2 COOP (PROOUT), +10 PAW based schemes


 Dipole corrections
   LMONO  =      F    monopole corrections only (constant potential shift)
   LDIPOL =      F    correct potential (dipole corrections)
   IDIPOL =      0    1-x, 2-y, 3-z, 4-all directions 
   EPSILON=  1.0000000 bulk dielectric constant

 Exchange correlation treatment:
   GGA     =    PS    GGA type
   LEXCH   =    14    internal setting for exchange type
   VOSKOWN=      1    Vosko Wilk Nusair interpolation
   LHFCALC =     F    Hartree Fock is set to
   LHFONE  =     F    Hartree Fock one center treatment
   AEXX    =    0.0000 exact exchange contribution

 Linear response parameters
   LEPSILON=     F    determine dielectric tensor
   LRPA    =     F    only Hartree local field effects (RPA)
   LNABLA  =     F    use nabla operator in PAW spheres
   LVEL    =     F    velocity operator in full k-point grid
   LINTERFAST=   F  fast interpolation
   KINTER  =     0    interpolate to denser k-point grid
   CSHIFT  =0.1000    complex shift for real part using Kramers Kronig
   OMEGAMAX=  -1.0    maximum frequency
   DEG_THRESHOLD= 0.2000000E-02 threshold for treating states as degnerate
   RTIME   =   -0.100 relaxation time in fs
  (WPLASMAI=    0.000 imaginary part of plasma frequency in eV, 0.658/RTIME)
   DFIELD  = 0.0000000 0.0000000 0.0000000 field for delta impulse in time
 
 Orbital magnetization related:
   ORBITALMAG=     F  switch on orbital magnetization
   LCHIMAG   =     F  perturbation theory with respect to B field
   DQ        =  0.001000  dq finite difference perturbation B field
   LLRAUG    =     F  two centre corrections for induced B field



--------------------------------------------------------------------------------------------------------


 Static calculation
 charge density and potential will be updated during run
 spin polarized calculation
 Variant of blocked Davidson
 Davidson routine will perform the subspace rotation
 perform sub-space diagonalisation
    after iterative eigenvector-optimisation
 modified Broyden-mixing scheme, WC =      100.0
 initial mixing is a Kerker type mixing with AMIX =  0.4000 and BMIX =      1.0000
 Hartree-type preconditioning will be used
 using additional bands           88
 real space projection scheme for non local part
 use partial core corrections
 calculate Harris-corrections to forces 
   (improved forces if not selfconsistent)
 use gradient corrections 
 use of overlap-Matrix (Vanderbilt PP)
 Gauss-broadening in eV      SIGMA  =   0.05


--------------------------------------------------------------------------------------------------------


  energy-cutoff  :      500.00
  volume of cell :      638.20
      direct lattice vectors                 reciprocal lattice vectors
     8.555157000  0.000000000  0.000000000     0.116888562  0.067485643  0.000000000
    -4.277578500  7.408983300  0.000000000     0.000000000  0.134971285  0.000000000
     0.000000000  0.000000000 10.068620250     0.000000000  0.000000000  0.099318474

  length of vectors
     8.555157000  8.555157004 10.068620250     0.134971286  0.134971285  0.099318474


 
 k-points in units of 2pi/SCALE and weight: Automatic mesh                          
   0.00000000  0.00000000  0.00000000       0.021
   0.02922214  0.01687141  0.00000000       0.042
   0.05844428  0.03374282  0.00000000       0.021
   0.00000000  0.03374282  0.00000000       0.042
   0.02922214  0.05061423  0.00000000       0.042
   0.05844428  0.06748564  0.00000000       0.042
  -0.02922214  0.01687141  0.00000000       0.042
   0.00000000  0.06748564  0.00000000       0.021
   0.02922214  0.08435705  0.00000000       0.042
   0.05844428  0.10122846  0.00000000       0.021
   0.00000000  0.00000000  0.03310616       0.042
   0.02922214  0.01687141  0.03310616       0.042
   0.05844428  0.03374282  0.03310616       0.042
  -0.02922214 -0.01687141  0.03310616       0.042
   0.00000000  0.03374282  0.03310616       0.042
   0.02922214  0.05061423  0.03310616       0.042
   0.05844428  0.06748564  0.03310616       0.042
  -0.02922214  0.01687141  0.03310616       0.042
   0.00000000  0.06748564  0.03310616       0.042
   0.02922214  0.08435705  0.03310616       0.042
   0.05844428  0.10122846  0.03310616       0.042
  -0.02922214  0.05061423  0.03310616       0.042
   0.00000000 -0.03374282  0.03310616       0.042
   0.02922214 -0.01687141  0.03310616       0.042
   0.05844428  0.00000000  0.03310616       0.042
  -0.02922214 -0.05061423  0.03310616       0.042
 
 k-points in reciprocal lattice and weights: Automatic mesh                          
   0.00000000  0.00000000  0.00000000       0.021
   0.25000000  0.00000000  0.00000000       0.042
   0.50000000  0.00000000  0.00000000       0.021
   0.00000000  0.25000000  0.00000000       0.042
   0.25000000  0.25000000  0.00000000       0.042
   0.50000000  0.25000000  0.00000000       0.042
  -0.25000000  0.25000000  0.00000000       0.042
   0.00000000  0.50000000  0.00000000       0.021
   0.25000000  0.50000000  0.00000000       0.042
   0.50000000  0.50000000  0.00000000       0.021
   0.00000000  0.00000000  0.33333333       0.042
   0.25000000  0.00000000  0.33333333       0.042
   0.50000000  0.00000000  0.33333333       0.042
  -0.25000000  0.00000000  0.33333333       0.042
   0.00000000  0.25000000  0.33333333       0.042
   0.25000000  0.25000000  0.33333333       0.042
   0.50000000  0.25000000  0.33333333       0.042
  -0.25000000  0.25000000  0.33333333       0.042
   0.00000000  0.50000000  0.33333333       0.042
   0.25000000  0.50000000  0.33333333       0.042
   0.50000000  0.50000000  0.33333333       0.042
  -0.25000000  0.50000000  0.33333333       0.042
   0.00000000 -0.25000000  0.33333333       0.042
   0.25000000 -0.25000000  0.33333333       0.042
   0.50000000 -0.25000000  0.33333333       0.042
  -0.25000000 -0.25000000  0.33333333       0.042
 
 position of ions in fractional coordinates (direct lattice) 
   0.99675981  0.01017368  0.99955800
   0.02159409  0.01162388  0.35656300
   0.00493693  0.99671579  0.69283924
   0.03254718  0.34151558  0.99022547
   0.02554887  0.34508732  0.32559770
   0.04415205  0.36742351  0.67759663
   0.02007479  0.66334504  0.99241173
   0.01937802  0.67876860  0.36024699
   0.02772229  0.69336022  0.68826480
   0.37126030  0.02719969  0.99942860
   0.33251317  0.99350287  0.32276647
   0.33691632  0.99492616  0.69011933
   0.34046485  0.34927225  0.99151678
   0.33529540  0.33607455  0.34997133
   0.35223190  0.34468163  0.66204201
   0.32474495  0.69497894  0.01737320
   0.33964503  0.67497671  0.33074822
   0.33007159  0.67817692  0.68086588
   0.66288468  0.00075168  0.00080315
   0.68569449  0.99332839  0.33644841
   0.69155305  0.01221722  0.68774353
   0.68268445  0.33016412  0.00885716
   0.68834444  0.34372320  0.34037026
   0.69102584  0.33318751  0.68874162
   0.65524781  0.67832302  0.00708464
   0.68501523  0.67784964  0.34414471
   0.67319104  0.67450188  0.68530258
   0.01435867  0.01815501  0.17623069
   0.98245619  0.98935091  0.50029044
   0.00456858  0.00171823  0.87605471
   0.04598925  0.35473740  0.16014587
   0.03183280  0.36076262  0.49677951
   0.02180467  0.34481190  0.85980567
   0.02468366  0.67948192  0.18224934
   0.01807117  0.67053321  0.51279679
   0.01915789  0.67857503  0.84943031
   0.35090341  0.00485265  0.16585883
   0.33608351  0.00612069  0.52198109
   0.35961732  0.98747014  0.84700363
   0.34245422  0.33214550  0.17652789
   0.32283360  0.33150267  0.52006247
   0.35266943  0.34658405  0.85133433
   0.35671237  0.70171956  0.16441323
   0.33167522  0.67146356  0.50541001
   0.33494102  0.66692865  0.85784753
   0.65434566  0.99539584  0.18176778
   0.68821822  0.00208132  0.52093787
   0.66796357  0.98627339  0.84946346
   0.66399091  0.33831034  0.16168354
   0.66335134  0.32996584  0.50625921
   0.68881867  0.33047892  0.84956820
   0.67507019  0.68850647  0.17877555
   0.67304034  0.67810529  0.53652531
   0.69210486  0.69395045  0.84715038
 
 position of ions in cartesian coordinates  (Angst):
   8.48391795  0.07537663 10.06416992
   0.13501877  0.08612113  3.59009744
  -4.22129382  7.38465064  6.97593520
  -1.18241347  2.53028323  9.97020422
  -1.25756351  2.55674619  3.27831960
  -1.19395519  2.72223465  6.82246315
  -2.66576750  4.91471232  9.99221684
  -2.73770397  5.02898522  3.62719014
  -2.72873423  5.13709429  6.92987690
   3.05984135  0.20152205 10.06286704
  -1.40508414  7.36084617  3.24981302
  -1.37350274  7.37139130  6.94854946
   1.41869078  2.58775227  9.98320593
   1.43091952  2.48997073  3.52372842
   1.53899648  2.55374044  6.66584959
  -0.19458294  5.14908736  0.17492415
   0.01845069  5.00089117  3.33017823
  -0.07714074  5.02460147  6.85537999
   5.66786714  0.00556918  0.00808661
   1.61718385  7.35955345  3.38757127
   5.86408480  0.09051718  6.92462843
   4.42816971  2.44618045  0.08917938
   4.41859178  2.54663945  3.42705889
   4.48659882  2.46858070  6.93467782
   2.70416792  5.02568393  0.07133255
   2.96085779  5.02217666  3.46506240
   2.87402030  4.99737316  6.90005143
   0.04518120  0.13451017  1.77439989
   4.17304077  7.33008437  5.03723446
   0.03173506  0.01273034  8.82066219
  -1.12397182  2.62824347  1.61244795
  -1.27085583  2.67288423  5.00188423
  -1.28841759  2.55470561  8.65705678
  -2.69536467  5.03427020  1.83499940
  -2.71365675  4.96796935  5.16315614
  -2.73875920  5.02755107  8.55259122
   2.98127617  0.03595320  1.66996957
   2.84906546  0.04534809  5.25562937
  -1.14739841  7.31614978  8.52815790
   1.50897117  2.46086046  1.77739229
   1.34386344  2.45609775  5.23631152
   1.53460186  2.56783544  8.57176207
   0.05006983  5.19902850  1.65541438
  -0.03470451  4.97486230  5.08878146
   0.01263336  4.94126323  8.63734101
   1.34014601  7.37487116  1.83015075
   5.87891191  0.01542047  5.24512559
   1.49567136  7.30728308  8.55292499
   4.23339744  2.50653566  1.62793016
   4.26362008  2.44471140  5.09733173
   4.47930234  2.44851280  8.55397958
   2.83019099  5.10113294  1.80002312
   2.85731717  5.02407077  5.40206960
   2.95263821  5.14146730  8.52963547
 


--------------------------------------------------------------------------------------------------------


 k-point  1 :   0.0000 0.0000 0.0000  plane waves:   16105
 k-point  2 :   0.2500 0.0000 0.0000  plane waves:   16205
 k-point  3 :   0.5000 0.0000 0.0000  plane waves:   16236
 k-point  4 :   0.0000 0.2500 0.0000  plane waves:   16205
 k-point  5 :   0.2500 0.2500 0.0000  plane waves:   16194
 k-point  6 :   0.5000 0.2500 0.0000  plane waves:   16194
 k-point  7 :  -0.2500 0.2500 0.0000  plane waves:   16205
 k-point  8 :   0.0000 0.5000 0.0000  plane waves:   16236
 k-point  9 :   0.2500 0.5000 0.0000  plane waves:   16194
 k-point 10 :   0.5000 0.5000 0.0000  plane waves:   16236
 k-point 11 :   0.0000 0.0000 0.3333  plane waves:   16231
 k-point 12 :   0.2500 0.0000 0.3333  plane waves:   16224
 k-point 13 :   0.5000 0.0000 0.3333  plane waves:   16204
 k-point 14 :  -0.2500 0.0000 0.3333  plane waves:   16224
 k-point 15 :   0.0000 0.2500 0.3333  plane waves:   16224
 k-point 16 :   0.2500 0.2500 0.3333  plane waves:   16182
 k-point 17 :   0.5000 0.2500 0.3333  plane waves:   16182
 k-point 18 :  -0.2500 0.2500 0.3333  plane waves:   16224
 k-point 19 :   0.0000 0.5000 0.3333  plane waves:   16204
 k-point 20 :   0.2500 0.5000 0.3333  plane waves:   16182
 k-point 21 :   0.5000 0.5000 0.3333  plane waves:   16204
 k-point 22 :  -0.2500 0.5000 0.3333  plane waves:   16182
 k-point 23 :   0.0000-0.2500 0.3333  plane waves:   16224
 k-point 24 :   0.2500-0.2500 0.3333  plane waves:   16224
 k-point 25 :   0.5000-0.2500 0.3333  plane waves:   16182
 k-point 26 :  -0.2500-0.2500 0.3333  plane waves:   16182

 maximum and minimum number of plane-waves per node :     16236    16105

 maximum number of plane-waves:     16236
 maximum index in each direction: 
   IXMAX=   15   IYMAX=   15   IZMAX=   18
   IXMIN=  -16   IYMIN=  -16   IZMIN=  -18

 The following grids will avoid any aliasing or wrap around errors in the Hartre
 e energy
  - symmetry arguments have not been applied
  - exchange correlation energies might require even more grid points
  - we recommend to set PREC=Normal or Accurate and rely on VASP defaults
 NGX is ok and might be reduce to    64
 NGY is ok and might be reduce to    64
 NGZ is ok and might be reduce to    80

 serial   3D FFT for wavefunctions
 parallel 3D FFT for charge:
    minimum data exchange during FFTs selected (reduces bandwidth)


 total amount of memory used by VASP MPI-rank0   386217. kBytes
=======================================================================

   base      :      30000. kBytes
   nonlr-proj:      40206. kBytes
   fftplans  :       6899. kBytes
   grid      :      39583. kBytes
   one-center:       1679. kBytes
   wavefun   :     267850. kBytes
 
     INWAV:  cpu time    0.0000: real time    0.0000
 Broyden mixing: mesh for mixing (old mesh)
   NGX = 31   NGY = 31   NGZ = 37
  (NGX  =128   NGY  =128   NGZ  =160)
  gives a total of  35557 points

 initial charge density was supplied:
 charge density of overlapping atoms calculated
 number of electron     432.0000000 magnetization      67.5000000
 keeping initial charge density in first step


--------------------------------------------------------------------------------------------------------


 Maximum index for non-local projection operator         6703
 Maximum index for augmentation-charges         1115 (set IRDMAX)


--------------------------------------------------------------------------------------------------------


 First call to EWALD:  gamma=   0.206
 Maximum number of real-space cells 3x 3x 2
 Maximum number of reciprocal cells 3x 3x 3

    FEWALD:  cpu time    0.0023: real time    0.0024


--------------------------------------- Iteration      1(   1)  ---------------------------------------


    POTLOK:  cpu time    0.2160: real time    0.2188
    SETDIJ:  cpu time    0.0250: real time    0.0250
     EDDAV:  cpu time  114.4221: real time  114.6928
    --------------------------------------------
      LOOP:  cpu time  114.6662: real time  114.9398

 eigenvalue-minimisations  : 31616
 total energy-change (2. order) : 0.5064254E+04  (-0.1800666E+05)
 number of electron     432.0000000 magnetization      67.5000000
 augmentation part      432.0000000 magnetization      67.5000000

 Free energy of the ion-electron system (eV)
  ---------------------------------------------------
  alpha Z        PSCENC =      1355.35091105
  Ewald energy   TEWEN  =    -29729.97667189
  -Hartree energ DENC   =    -12318.34064962
  -exchange      EXHF   =         0.00000000
  -V(xc)+E(xc)   XCENC  =      1636.95148038
  PAW double counting   =     35307.98069315   -37155.18892105
  entropy T*S    EENTRO =        -0.01044500
  eigenvalues    EBANDS =      5259.01282011
  atomic energy  EATOM  =     40708.47505058
  Solvation  Ediel_sol  =         0.00000000
  ---------------------------------------------------
  free energy    TOTEN  =      5064.25426772 eV

  energy without entropy =     5064.26471272  energy(sigma->0) =     5064.25949022


--------------------------------------------------------------------------------------------------------




--------------------------------------- Iteration      1(   2)  ---------------------------------------


     EDDAV:  cpu time  112.3250: real time  112.5956
    --------------------------------------------
      LOOP:  cpu time  112.3248: real time  112.5953

 eigenvalue-minimisations  : 31616
 total energy-change (2. order) :-0.4304694E+04  (-0.3878748E+04)
 number of electron     432.0000000 magnetization      67.5000000
 augmentation part      432.0000000 magnetization      67.5000000

 Free energy of the ion-electron system (eV)
  ---------------------------------------------------
  alpha Z        PSCENC =      1355.35091105
  Ewald energy   TEWEN  =    -29729.97667189
  -Hartree energ DENC   =    -12318.34064962
  -exchange      EXHF   =         0.00000000
  -V(xc)+E(xc)   XCENC  =      1636.95148038
  PAW double counting   =     35307.98069315   -37155.18892105
  entropy T*S    EENTRO =        -0.02999256
  eigenvalues    EBANDS =       954.33845431
  atomic energy  EATOM  =     40708.47505058
  Solvation  Ediel_sol  =         0.00000000
  ---------------------------------------------------
  free energy    TOTEN  =       759.56035435 eV

  energy without entropy =      759.59034692  energy(sigma->0) =      759.57535064


--------------------------------------------------------------------------------------------------------




--------------------------------------- Iteration      1(   3)  ---------------------------------------


     EDDAV:  cpu time  113.2567: real time  113.5243
    --------------------------------------------
      LOOP:  cpu time  113.2567: real time  113.5243

 eigenvalue-minimisations  : 32240
 total energy-change (2. order) :-0.1047447E+04  (-0.9214313E+03)
 number of electron     432.0000000 magnetization      67.5000000
 augmentation part      432.0000000 magnetization      67.5000000

 Free energy of the ion-electron system (eV)
  ---------------------------------------------------
  alpha Z        PSCENC =      1355.35091105
  Ewald energy   TEWEN  =    -29729.97667189
  -Hartree energ DENC   =    -12318.34064962
  -exchange      EXHF   =         0.00000000
  -V(xc)+E(xc)   XCENC  =      1636.95148038
  PAW double counting   =     35307.98069315   -37155.18892105
  entropy T*S    EENTRO =        -0.05048505
  eigenvalues    EBANDS =       -93.08805616
  atomic energy  EATOM  =     40708.47505058
  Solvation  Ediel_sol  =         0.00000000
  ---------------------------------------------------
  free energy    TOTEN  =      -287.88664860 eV

  energy without entropy =     -287.83616355  energy(sigma->0) =     -287.86140608


--------------------------------------------------------------------------------------------------------




--------------------------------------- Iteration      1(   4)  ---------------------------------------


     EDDAV:  cpu time  123.1115: real time  123.4022
    --------------------------------------------
      LOOP:  cpu time  123.1126: real time  123.4034

 eigenvalue-minimisations  : 34944
 total energy-change (2. order) :-0.1228493E+03  (-0.1189924E+03)
 number of electron     432.0000000 magnetization      67.5000000
 augmentation part      432.0000000 magnetization      67.5000000

 Free energy of the ion-electron system (eV)
  ---------------------------------------------------
  alpha Z        PSCENC =      1355.35091105
  Ewald energy   TEWEN  =    -29729.97667189
  -Hartree energ DENC   =    -12318.34064962
  -exchange      EXHF   =         0.00000000
  -V(xc)+E(xc)   XCENC  =      1636.95148038
  PAW double counting   =     35307.98069315   -37155.18892105
  entropy T*S    EENTRO =        -0.05579957
  eigenvalues    EBANDS =      -215.93200191
  atomic energy  EATOM  =     40708.47505058
  Solvation  Ediel_sol  =         0.00000000
  ---------------------------------------------------
  free energy    TOTEN  =      -410.73590887 eV

  energy without entropy =     -410.68010930  energy(sigma->0) =     -410.70800909


--------------------------------------------------------------------------------------------------------




--------------------------------------- Iteration      1(   5)  ---------------------------------------


     EDDAV:  cpu time  119.5994: real time  119.8818
    CHARGE:  cpu time    4.8400: real time    4.8515
    MIXING:  cpu time    0.0047: real time    0.0048
    --------------------------------------------
      LOOP:  cpu time  124.4401: real time  124.7340

 eigenvalue-minimisations  : 34464
 total energy-change (2. order) :-0.2996867E+01  (-0.2986294E+01)
 number of electron     432.0000010 magnetization      61.2760783
 augmentation part      159.2751471 magnetization      49.7037157

 Broyden mixing:
  rms(total) = 0.14098E+02    rms(broyden)= 0.14097E+02
  rms(prec ) = 0.15928E+02
  weight for this iteration     100.00

 Free energy of the ion-electron system (eV)
  ---------------------------------------------------
  alpha Z        PSCENC =      1355.35091105
  Ewald energy   TEWEN  =    -29729.97667189
  -Hartree energ DENC   =    -12318.34064962
  -exchange      EXHF   =         0.00000000
  -V(xc)+E(xc)   XCENC  =      1636.95148038
  PAW double counting   =     35307.98069315   -37155.18892105
  entropy T*S    EENTRO =        -0.05646686
  eigenvalues    EBANDS =      -218.92820195
  atomic energy  EATOM  =     40708.47505058
  Solvation  Ediel_sol  =         0.00000000
  ---------------------------------------------------
  free energy    TOTEN  =      -413.73277620 eV

  energy without entropy =     -413.67630934  energy(sigma->0) =     -413.70454277


--------------------------------------------------------------------------------------------------------




--------------------------------------- Iteration      1(   6)  ---------------------------------------


    POTLOK:  cpu time    0.1887: real time    0.1892
    SETDIJ:  cpu time    0.0251: real time    0.0252
     EDDAV:  cpu time  141.5739: real time  141.9182
    CHARGE:  cpu time    4.7774: real time    4.7887
    MIXING:  cpu time    0.0044: real time    0.0044
    --------------------------------------------
      LOOP:  cpu time  146.5695: real time  146.9257

 eigenvalue-minimisations  : 43344
 total energy-change (2. order) :-0.6303964E+02  (-0.7888420E+02)
 number of electron     432.0000000 magnetization      52.6182842
 augmentation part      209.7560169 magnetization      46.9664632

 Broyden mixing:
  rms(total) = 0.18046E+02    rms(broyden)= 0.18044E+02
  rms(prec ) = 0.20429E+02
  weight for this iteration     100.00

 eigenvalues of (default mixing * dielectric matrix)
  average eigenvalue GAMMA=   0.2943
  0.2943

 Free energy of the ion-electron system (eV)
  ---------------------------------------------------
  alpha Z        PSCENC =      1355.35091105
  Ewald energy   TEWEN  =    -29729.97667189
  -Hartree energ DENC   =    -11524.06148470
  -exchange      EXHF   =         0.00000000
  -V(xc)+E(xc)   XCENC  =      1612.48187103
  PAW double counting   =     39315.95367836   -40936.65357102
  entropy T*S    EENTRO =        -0.04429799
  eigenvalues    EBANDS =     -1278.29789850
  atomic energy  EATOM  =     40708.47505058
  Solvation  Ediel_sol  =         0.00000000
  ---------------------------------------------------
  free energy    TOTEN  =      -476.77241309 eV

  energy without entropy =     -476.72811510  energy(sigma->0) =     -476.75026409


--------------------------------------------------------------------------------------------------------




--------------------------------------- Iteration      1(   7)  ---------------------------------------


    POTLOK:  cpu time    0.1858: real time    0.1862
    SETDIJ:  cpu time    0.0247: real time    0.0247
     EDDAV:  cpu time  133.7378: real time  134.0535
    CHARGE:  cpu time    4.7553: real time    4.7665
    MIXING:  cpu time    0.0043: real time    0.0043
    --------------------------------------------
      LOOP:  cpu time  138.7078: real time  139.0353

 eigenvalue-minimisations  : 40992
 total energy-change (2. order) : 0.1755362E+03  (-0.3115042E+02)
 number of electron     432.0000008 magnetization      42.0920059
 augmentation part      184.2119579 magnetization      32.9811883

 Broyden mixing:
  rms(total) = 0.58707E+01    rms(broyden)= 0.58675E+01
  rms(prec ) = 0.73447E+01
  weight for this iteration     100.00

 eigenvalues of (default mixing * dielectric matrix)
  average eigenvalue GAMMA=   0.6833
  0.9286  0.4380

 Free energy of the ion-electron system (eV)
  ---------------------------------------------------
  alpha Z        PSCENC =      1355.35091105
  Ewald energy   TEWEN  =    -29729.97667189
  -Hartree energ DENC   =    -11874.19420220
  -exchange      EXHF   =         0.00000000
  -V(xc)+E(xc)   XCENC  =      1611.91197427
  PAW double counting   =     41456.67717103   -43291.77943511
  entropy T*S    EENTRO =        -0.04820659
  eigenvalues    EBANDS =      -537.65275812
  atomic energy  EATOM  =     40708.47505058
  Solvation  Ediel_sol  =         0.00000000
  ---------------------------------------------------
  free energy    TOTEN  =      -301.23616698 eV

  energy without entropy =     -301.18796039  energy(sigma->0) =     -301.21206369


--------------------------------------------------------------------------------------------------------




--------------------------------------- Iteration      1(   8)  ---------------------------------------


    POTLOK:  cpu time    0.1756: real time    0.1760
    SETDIJ:  cpu time    0.0270: real time    0.0271
     EDDAV:  cpu time  133.8158: real time  134.1318
    CHARGE:  cpu time    4.7513: real time    4.7625
    MIXING:  cpu time    0.0036: real time    0.0037
    --------------------------------------------
      LOOP:  cpu time  138.7734: real time  139.1011

 eigenvalue-minimisations  : 41232
 total energy-change (2. order) :-0.1178973E+03  (-0.2297636E+02)
 number of electron     432.0000006 magnetization      34.8705959
 augmentation part      175.7243358 magnetization      29.2865664

 Broyden mixing:
  rms(total) = 0.14497E+02    rms(broyden)= 0.14496E+02
  rms(prec ) = 0.20145E+02
  weight for this iteration     100.00

 eigenvalues of (default mixing * dielectric matrix)
  average eigenvalue GAMMA=   0.6011
  1.2268  0.4115  0.1648

 Free energy of the ion-electron system (eV)
  ---------------------------------------------------
  alpha Z        PSCENC =      1355.35091105
  Ewald energy   TEWEN  =    -29729.97667189
  -Hartree energ DENC   =    -11899.34449650
  -exchange      EXHF   =         0.00000000
  -V(xc)+E(xc)   XCENC  =      1610.34733581
  PAW double counting   =     43441.76104677   -45345.67465532
  entropy T*S    EENTRO =        -0.04331984
  eigenvalues    EBANDS =      -560.02865703
  atomic energy  EATOM  =     40708.47505058
  Solvation  Ediel_sol  =         0.00000000
  ---------------------------------------------------
  free energy    TOTEN  =      -419.13345637 eV

  energy without entropy =     -419.09013652  energy(sigma->0) =     -419.11179644


--------------------------------------------------------------------------------------------------------




--------------------------------------- Iteration      1(   9)  ---------------------------------------


    POTLOK:  cpu time    0.1822: real time    0.1827
    SETDIJ:  cpu time    0.0246: real time    0.0247
     EDDAV:  cpu time  136.1087: real time  136.4302
    CHARGE:  cpu time    5.2369: real time    5.2493
    MIXING:  cpu time    0.0069: real time    0.0069
    --------------------------------------------
      LOOP:  cpu time  141.5594: real time  141.8938

 eigenvalue-minimisations  : 41024
 total energy-change (2. order) : 0.5611910E+02  (-0.1596567E+02)
 number of electron     432.0000002 magnetization      30.7956451
 augmentation part      178.3303725 magnetization      24.8018137

 Broyden mixing:
  rms(total) = 0.10287E+02    rms(broyden)= 0.10286E+02
  rms(prec ) = 0.14126E+02
  weight for this iteration     100.00

 eigenvalues of (default mixing * dielectric matrix)
  average eigenvalue GAMMA=   0.5343
  1.3644  0.4045  0.1840  0.1840

 Free energy of the ion-electron system (eV)
  ---------------------------------------------------
  alpha Z        PSCENC =      1355.35091105
  Ewald energy   TEWEN  =    -29729.97667189
  -Hartree energ DENC   =    -11887.91410720
  -exchange      EXHF   =         0.00000000
  -V(xc)+E(xc)   XCENC  =      1609.28190053
  PAW double counting   =     44722.78706009   -46656.76010836
  entropy T*S    EENTRO =        -0.06930774
  eigenvalues    EBANDS =      -484.18908363
  atomic energy  EATOM  =     40708.47505058
  Solvation  Ediel_sol  =         0.00000000
  ---------------------------------------------------
  free energy    TOTEN  =      -363.01435657 eV

  energy without entropy =     -362.94504883  energy(sigma->0) =     -362.97970270


--------------------------------------------------------------------------------------------------------




--------------------------------------- Iteration      1(  10)  ---------------------------------------


    POTLOK:  cpu time    0.2185: real time    0.2190
    SETDIJ:  cpu time    0.0302: real time    0.0303
     EDDAV:  cpu time  134.6017: real time  134.9195
    CHARGE:  cpu time    4.8061: real time    4.8175
    MIXING:  cpu time    0.0055: real time    0.0055
    --------------------------------------------
      LOOP:  cpu time  139.6620: real time  139.9918

 eigenvalue-minimisations  : 39072
 total energy-change (2. order) : 0.3936749E+02  (-0.8460827E+01)
 number of electron     432.0000004 magnetization      26.8634598
 augmentation part      179.8303348 magnetization      20.8212806

 Broyden mixing:
  rms(total) = 0.67492E+01    rms(broyden)= 0.67483E+01
  rms(prec ) = 0.93663E+01
  weight for this iteration     100.00

 eigenvalues of (default mixing * dielectric matrix)
  average eigenvalue GAMMA=   0.5122
  1.5028  0.4222  0.2421  0.2421  0.1519

 Free energy of the ion-electron system (eV)
  ---------------------------------------------------
  alpha Z        PSCENC =      1355.35091105
  Ewald energy   TEWEN  =    -29729.97667189
  -Hartree energ DENC   =    -11878.86944321
  -exchange      EXHF   =         0.00000000
  -V(xc)+E(xc)   XCENC  =      1608.52530456
  PAW double counting   =     45442.95091612   -47390.42074783
  entropy T*S    EENTRO =        -0.07532107
  eigenvalues    EBANDS =      -439.60686457
  atomic energy  EATOM  =     40708.47505058
  Solvation  Ediel_sol  =         0.00000000
  ---------------------------------------------------
  free energy    TOTEN  =      -323.64686626 eV

  energy without entropy =     -323.57154519  energy(sigma->0) =     -323.60920572


--------------------------------------------------------------------------------------------------------




--------------------------------------- Iteration      1(  11)  ---------------------------------------


    POTLOK:  cpu time    0.1851: real time    0.1855
    SETDIJ:  cpu time    0.0243: real time    0.0243
     EDDAV:  cpu time  132.7145: real time  133.0304
    CHARGE:  cpu time    4.9367: real time    4.9484
    MIXING:  cpu time    0.0054: real time    0.0054
    --------------------------------------------
      LOOP:  cpu time  137.8660: real time  138.1941

 eigenvalue-minimisations  : 39040
 total energy-change (2. order) : 0.1080114E+02  (-0.6172604E+01)
 number of electron     432.0000008 magnetization      22.8766769
 augmentation part      180.8279929 magnetization      17.5645815

 Broyden mixing:
  rms(total) = 0.58720E+01    rms(broyden)= 0.58707E+01
  rms(prec ) = 0.79873E+01
  weight for this iteration     100.00

 eigenvalues of (default mixing * dielectric matrix)
  average eigenvalue GAMMA=   0.5064
  1.6557  0.4855  0.3757  0.2547  0.1334  0.1334

 Free energy of the ion-electron system (eV)
  ---------------------------------------------------
  alpha Z        PSCENC =      1355.35091105
  Ewald energy   TEWEN  =    -29729.97667189
  -Hartree energ DENC   =    -11861.68892874
  -exchange      EXHF   =         0.00000000
  -V(xc)+E(xc)   XCENC  =      1607.28014106
  PAW double counting   =     46026.83492646   -47978.34060040
  entropy T*S    EENTRO =        -0.06326040
  eigenvalues    EBANDS =      -440.71729204
  atomic energy  EATOM  =     40708.47505058
  Solvation  Ediel_sol  =         0.00000000
  ---------------------------------------------------
  free energy    TOTEN  =      -312.84572432 eV

  energy without entropy =     -312.78246392  energy(sigma->0) =     -312.81409412


--------------------------------------------------------------------------------------------------------




--------------------------------------- Iteration      1(  12)  ---------------------------------------


    POTLOK:  cpu time    0.1958: real time    0.1962
    SETDIJ:  cpu time    0.0299: real time    0.0300
     EDDAV:  cpu time  146.6508: real time  147.0034
    CHARGE:  cpu time    5.0261: real time    5.0379
    MIXING:  cpu time    0.0054: real time    0.0054
    --------------------------------------------
      LOOP:  cpu time  151.9080: real time  152.2730

 eigenvalue-minimisations  : 42688
 total energy-change (2. order) : 0.1002651E+02  (-0.3220604E+01)
 number of electron     432.0000004 magnetization      21.5775458
 augmentation part      180.3785915 magnetization      16.5044314

 Broyden mixing:
  rms(total) = 0.49441E+01    rms(broyden)= 0.49435E+01
  rms(prec ) = 0.70867E+01
  weight for this iteration     100.00

 eigenvalues of (default mixing * dielectric matrix)
  average eigenvalue GAMMA=   0.4779
  1.6335  0.4339  0.4339  0.4340  0.1372  0.1372  0.1358

 Free energy of the ion-electron system (eV)
  ---------------------------------------------------
  alpha Z        PSCENC =      1355.35091105
  Ewald energy   TEWEN  =    -29729.97667189
  -Hartree energ DENC   =    -11853.92327152
  -exchange      EXHF   =         0.00000000
  -V(xc)+E(xc)   XCENC  =      1606.24322929
  PAW double counting   =     46556.00421424   -48511.66324463
  entropy T*S    EENTRO =        -0.06829913
  eigenvalues    EBANDS =      -433.26113377
  atomic energy  EATOM  =     40708.47505058
  Solvation  Ediel_sol  =         0.00000000
  ---------------------------------------------------
  free energy    TOTEN  =      -302.81921579 eV

  energy without entropy =     -302.75091666  energy(sigma->0) =     -302.78506622


--------------------------------------------------------------------------------------------------------




--------------------------------------- Iteration      1(  13)  ---------------------------------------


    POTLOK:  cpu time    0.1872: real time    0.1876
    SETDIJ:  cpu time    0.0253: real time    0.0253
     EDDAV:  cpu time  142.8624: real time  143.2169
    CHARGE:  cpu time    4.8770: real time    4.8885
    MIXING:  cpu time    0.0055: real time    0.0056
    --------------------------------------------
      LOOP:  cpu time  147.9574: real time  148.3239

 eigenvalue-minimisations  : 41744
 total energy-change (2. order) :-0.9005295E+00  (-0.6248128E+01)
 number of electron     432.0000006 magnetization      19.8018951
 augmentation part      180.7740251 magnetization      15.3248097

 Broyden mixing:
  rms(total) = 0.40712E+01    rms(broyden)= 0.40705E+01
  rms(prec ) = 0.58791E+01
  weight for this iteration     100.00

 eigenvalues of (default mixing * dielectric matrix)
  average eigenvalue GAMMA=   0.4626
  1.5404  0.6133  0.6133  0.3902  0.1559  0.1559  0.1323  0.0994

 Free energy of the ion-electron system (eV)
  ---------------------------------------------------
  alpha Z        PSCENC =      1355.35091105
  Ewald energy   TEWEN  =    -29729.97667189
  -Hartree energ DENC   =    -11852.20627145
  -exchange      EXHF   =         0.00000000
  -V(xc)+E(xc)   XCENC  =      1605.75781782
  PAW double counting   =     46644.18514523   -48597.43663365
  entropy T*S    EENTRO =        -0.07420629
  eigenvalues    EBANDS =      -437.79488665
  atomic energy  EATOM  =     40708.47505058
  Solvation  Ediel_sol  =         0.00000000
  ---------------------------------------------------
  free energy    TOTEN  =      -303.71974524 eV

  energy without entropy =     -303.64553896  energy(sigma->0) =     -303.68264210


--------------------------------------------------------------------------------------------------------




--------------------------------------- Iteration      1(  14)  ---------------------------------------


    POTLOK:  cpu time    0.1880: real time    0.1885
    SETDIJ:  cpu time    0.0260: real time    0.0260
     EDDAV:  cpu time  136.4554: real time  136.7776
    CHARGE:  cpu time    5.1639: real time    5.1761
    MIXING:  cpu time    0.0059: real time    0.0060
    --------------------------------------------
      LOOP:  cpu time  141.8393: real time  142.1741

 eigenvalue-minimisations  : 40160
 total energy-change (2. order) : 0.2867405E+01  (-0.1782439E+01)
 number of electron     432.0000008 magnetization      17.8436375
 augmentation part      180.7993619 magnetization      13.7920470

 Broyden mixing:
  rms(total) = 0.29393E+01    rms(broyden)= 0.29385E+01
  rms(prec ) = 0.39663E+01
  weight for this iteration     100.00

 eigenvalues of (default mixing * dielectric matrix)
  average eigenvalue GAMMA=   0.4545
  1.5837  0.6588  0.6588  0.3358  0.3358  0.1608  0.1305  0.1305  0.0959

 Free energy of the ion-electron system (eV)
  ---------------------------------------------------
  alpha Z        PSCENC =      1355.35091105
  Ewald energy   TEWEN  =    -29729.97667189
  -Hartree energ DENC   =    -11852.14840915
  -exchange      EXHF   =         0.00000000
  -V(xc)+E(xc)   XCENC  =      1605.30158133
  PAW double counting   =     46682.35153902   -48630.27975568
  entropy T*S    EENTRO =        -0.06597014
  eigenvalues    EBANDS =      -439.86061503
  atomic energy  EATOM  =     40708.47505058
  Solvation  Ediel_sol  =         0.00000000
  ---------------------------------------------------
  free energy    TOTEN  =      -300.85233991 eV

  energy without entropy =     -300.78636977  energy(sigma->0) =     -300.81935484


--------------------------------------------------------------------------------------------------------




--------------------------------------- Iteration      1(  15)  ---------------------------------------


    POTLOK:  cpu time    0.1911: real time    0.1916
    SETDIJ:  cpu time    0.0253: real time    0.0254
     EDDAV:  cpu time  137.7777: real time  138.1030
    CHARGE:  cpu time    4.9850: real time    4.9968
    MIXING:  cpu time    0.0052: real time    0.0052
    --------------------------------------------
      LOOP:  cpu time  142.9844: real time  143.3220

 eigenvalue-minimisations  : 41264
 total energy-change (2. order) : 0.4302172E+00  (-0.1188149E+01)
 number of electron     432.0000006 magnetization      15.1849644
 augmentation part      181.1406954 magnetization      11.0595355

 Broyden mixing:
  rms(total) = 0.28553E+01    rms(broyden)= 0.28549E+01
  rms(prec ) = 0.39400E+01
  weight for this iteration     100.00

 eigenvalues of (default mixing * dielectric matrix)
  average eigenvalue GAMMA=   0.4550
  1.7244  0.6640  0.6640  0.4264  0.4264  0.1581  0.1376  0.1376  0.1180  0.0937

 Free energy of the ion-electron system (eV)
  ---------------------------------------------------
  alpha Z        PSCENC =      1355.35091105
  Ewald energy   TEWEN  =    -29729.97667189
  -Hartree energ DENC   =    -11847.59682092
  -exchange      EXHF   =         0.00000000
  -V(xc)+E(xc)   XCENC  =      1604.97918574
  PAW double counting   =     46849.86385206   -48796.15325607
  entropy T*S    EENTRO =        -0.06840135
  eigenvalues    EBANDS =      -445.29597194
  atomic energy  EATOM  =     40708.47505058
  Solvation  Ediel_sol  =         0.00000000
  ---------------------------------------------------
  free energy    TOTEN  =      -300.42212274 eV

  energy without entropy =     -300.35372139  energy(sigma->0) =     -300.38792207


--------------------------------------------------------------------------------------------------------




--------------------------------------- Iteration      1(  16)  ---------------------------------------


    POTLOK:  cpu time    0.1867: real time    0.1871
    SETDIJ:  cpu time    0.0250: real time    0.0251
     EDDAV:  cpu time  137.3781: real time  137.7033
    CHARGE:  cpu time    4.6954: real time    4.7065
    MIXING:  cpu time    0.0076: real time    0.0076
    --------------------------------------------
      LOOP:  cpu time  142.2929: real time  142.6296

 eigenvalue-minimisations  : 40800
 total energy-change (2. order) : 0.1214054E+01  (-0.8139073E+00)
 number of electron     432.0000005 magnetization      13.3465284
 augmentation part      181.3967281 magnetization       9.8495539

 Broyden mixing:
  rms(total) = 0.18962E+01    rms(broyden)= 0.18959E+01
  rms(prec ) = 0.26106E+01
  weight for this iteration     100.00

 eigenvalues of (default mixing * dielectric matrix)
  average eigenvalue GAMMA=   0.4521
  1.8177  0.7735  0.5232  0.4936  0.4936  0.2283  0.1654  0.1379  0.1379  0.1101
  0.0925

 Free energy of the ion-electron system (eV)
  ---------------------------------------------------
  alpha Z        PSCENC =      1355.35091105
  Ewald energy   TEWEN  =    -29729.97667189
  -Hartree energ DENC   =    -11846.03885923
  -exchange      EXHF   =         0.00000000
  -V(xc)+E(xc)   XCENC  =      1604.69187287
  PAW double counting   =     47129.91618056   -49076.66782519
  entropy T*S    EENTRO =        -0.06446229
  eigenvalues    EBANDS =      -444.89426533
  atomic energy  EATOM  =     40708.47505058
  Solvation  Ediel_sol  =         0.00000000
  ---------------------------------------------------
  free energy    TOTEN  =      -299.20806887 eV

  energy without entropy =     -299.14360658  energy(sigma->0) =     -299.17583772


--------------------------------------------------------------------------------------------------------




--------------------------------------- Iteration      1(  17)  ---------------------------------------


    POTLOK:  cpu time    0.1867: real time    0.1871
    SETDIJ:  cpu time    0.0252: real time    0.0252
     EDDAV:  cpu time  135.0002: real time  135.3333
    CHARGE:  cpu time    4.6488: real time    4.6598
    MIXING:  cpu time    0.0062: real time    0.0062
    --------------------------------------------
      LOOP:  cpu time  139.8671: real time  140.2116

 eigenvalue-minimisations  : 39856
 total energy-change (2. order) : 0.1713611E+00  (-0.5726365E+00)
 number of electron     432.0000006 magnetization      10.9510177
 augmentation part      181.5054210 magnetization       7.8558886

 Broyden mixing:
  rms(total) = 0.16794E+01    rms(broyden)= 0.16790E+01
  rms(prec ) = 0.23495E+01
  weight for this iteration     100.00

 eigenvalues of (default mixing * dielectric matrix)
  average eigenvalue GAMMA=   0.4703
  1.9494  0.9785  0.5732  0.5732  0.4596  0.3485  0.1636  0.1366  0.1366  0.1254
  0.1071  0.0921

 Free energy of the ion-electron system (eV)
  ---------------------------------------------------
  alpha Z        PSCENC =      1355.35091105
  Ewald energy   TEWEN  =    -29729.97667189
  -Hartree energ DENC   =    -11843.80702289
  -exchange      EXHF   =         0.00000000
  -V(xc)+E(xc)   XCENC  =      1604.54485637
  PAW double counting   =     47294.76951298   -49241.13814136
  entropy T*S    EENTRO =        -0.06347916
  eigenvalues    EBANDS =      -447.19172348
  atomic energy  EATOM  =     40708.47505058
  Solvation  Ediel_sol  =         0.00000000
  ---------------------------------------------------
  free energy    TOTEN  =      -299.03670781 eV

  energy without entropy =     -298.97322865  energy(sigma->0) =     -299.00496823


--------------------------------------------------------------------------------------------------------




--------------------------------------- Iteration      1(  18)  ---------------------------------------


    POTLOK:  cpu time    0.1868: real time    0.1872
    SETDIJ:  cpu time    0.0252: real time    0.0253
     EDDAV:  cpu time  138.4290: real time  138.7557
    CHARGE:  cpu time    4.6250: real time    4.6359
    MIXING:  cpu time    0.0089: real time    0.0089
    --------------------------------------------
      LOOP:  cpu time  143.2749: real time  143.6130

 eigenvalue-minimisations  : 41024
 total energy-change (2. order) : 0.4039250E+00  (-0.2997868E+00)
 number of electron     432.0000006 magnetization       9.9129356
 augmentation part      181.5875884 magnetization       7.1517405

 Broyden mixing:
  rms(total) = 0.12947E+01    rms(broyden)= 0.12943E+01
  rms(prec ) = 0.18603E+01
  weight for this iteration     100.00

 eigenvalues of (default mixing * dielectric matrix)
  average eigenvalue GAMMA=   0.4670
  2.0122  1.0407  0.6330  0.6330  0.4377  0.3434  0.2347  0.1369  0.1369  0.1542
  0.1156  0.0923  0.0999

 Free energy of the ion-electron system (eV)
  ---------------------------------------------------
  alpha Z        PSCENC =      1355.35091105
  Ewald energy   TEWEN  =    -29729.97667189
  -Hartree energ DENC   =    -11843.99529897
  -exchange      EXHF   =         0.00000000
  -V(xc)+E(xc)   XCENC  =      1604.42656119
  PAW double counting   =     47473.33662289   -49418.95190773
  entropy T*S    EENTRO =        -0.06347346
  eigenvalues    EBANDS =      -447.23457643
  atomic energy  EATOM  =     40708.47505058
  Solvation  Ediel_sol  =         0.00000000
  ---------------------------------------------------
  free energy    TOTEN  =      -298.63278277 eV

  energy without entropy =     -298.56930931  energy(sigma->0) =     -298.60104604


--------------------------------------------------------------------------------------------------------




--------------------------------------- Iteration      1(  19)  ---------------------------------------


    POTLOK:  cpu time    0.1911: real time    0.1915
    SETDIJ:  cpu time    0.0273: real time    0.0274
     EDDAV:  cpu time  136.9009: real time  137.2377
    CHARGE:  cpu time    4.7249: real time    4.7361
    MIXING:  cpu time    0.0068: real time    0.0068
    --------------------------------------------
      LOOP:  cpu time  141.8509: real time  142.1995

 eigenvalue-minimisations  : 40368
 total energy-change (2. order) : 0.3485206E+00  (-0.1874960E+00)
 number of electron     432.0000005 magnetization       8.3754156
 augmentation part      181.5952220 magnetization       5.8548101

 Broyden mixing:
  rms(total) = 0.77189E+00    rms(broyden)= 0.77167E+00
  rms(prec ) = 0.10118E+01
  weight for this iteration     100.00

 eigenvalues of (default mixing * dielectric matrix)
  average eigenvalue GAMMA=   0.4793
  1.9904  1.3092  0.6464  0.6464  0.4567  0.4027  0.4027  0.1368  0.1368  0.1547
  0.1308  0.1073  0.0945  0.0945

 Free energy of the ion-electron system (eV)
  ---------------------------------------------------
  alpha Z        PSCENC =      1355.35091105
  Ewald energy   TEWEN  =    -29729.97667189
  -Hartree energ DENC   =    -11844.23042572
  -exchange      EXHF   =         0.00000000
  -V(xc)+E(xc)   XCENC  =      1604.40814139
  PAW double counting   =     47530.42412775   -49475.13094335
  entropy T*S    EENTRO =        -0.06361794
  eigenvalues    EBANDS =      -447.54083406
  atomic energy  EATOM  =     40708.47505058
  Solvation  Ediel_sol  =         0.00000000
  ---------------------------------------------------
  free energy    TOTEN  =      -298.28426218 eV

  energy without entropy =     -298.22064425  energy(sigma->0) =     -298.25245321


--------------------------------------------------------------------------------------------------------




--------------------------------------- Iteration      1(  20)  ---------------------------------------


    POTLOK:  cpu time    0.1909: real time    0.1913
    SETDIJ:  cpu time    0.0252: real time    0.0252
     EDDAV:  cpu time  148.2315: real time  148.6117
    CHARGE:  cpu time    4.5846: real time    4.5954
    MIXING:  cpu time    0.0070: real time    0.0071
    --------------------------------------------
      LOOP:  cpu time  153.0392: real time  153.4307

 eigenvalue-minimisations  : 43248
 total energy-change (2. order) :-0.1880776E+00  (-0.1037733E+00)
 number of electron     432.0000006 magnetization       7.7914367
 augmentation part      181.4554200 magnetization       5.5972818

 Broyden mixing:
  rms(total) = 0.88216E+00    rms(broyden)= 0.88198E+00
  rms(prec ) = 0.11972E+01
  weight for this iteration     100.00

 eigenvalues of (default mixing * dielectric matrix)
  average eigenvalue GAMMA=   0.4671
  1.9599  1.3859  0.6696  0.6696  0.4409  0.4269  0.4269  0.1628  0.1628  0.1371
  0.1371  0.1331  0.1072  0.0919  0.0951

 Free energy of the ion-electron system (eV)
  ---------------------------------------------------
  alpha Z        PSCENC =      1355.35091105
  Ewald energy   TEWEN  =    -29729.97667189
  -Hartree energ DENC   =    -11847.21105251
  -exchange      EXHF   =         0.00000000
  -V(xc)+E(xc)   XCENC  =      1604.44417181
  PAW double counting   =     47568.96327067   -49511.33462689
  entropy T*S    EENTRO =        -0.06132034
  eigenvalues    EBANDS =      -447.12207222
  atomic energy  EATOM  =     40708.47505058
  Solvation  Ediel_sol  =         0.00000000
  ---------------------------------------------------
  free energy    TOTEN  =      -298.47233974 eV

  energy without entropy =     -298.41101940  energy(sigma->0) =     -298.44167957


--------------------------------------------------------------------------------------------------------




--------------------------------------- Iteration      1(  21)  ---------------------------------------


    POTLOK:  cpu time    0.1845: real time    0.1849
    SETDIJ:  cpu time    0.0250: real time    0.0251
     EDDAV:  cpu time  134.5009: real time  134.8185
    CHARGE:  cpu time    4.7646: real time    4.7758
    MIXING:  cpu time    0.0069: real time    0.0069
    --------------------------------------------
      LOOP:  cpu time  139.4818: real time  139.8112

 eigenvalue-minimisations  : 40560
 total energy-change (2. order) : 0.1325557E+00  (-0.7411753E-01)
 number of electron     432.0000006 magnetization       6.7342211
 augmentation part      181.4813241 magnetization       4.5409407

 Broyden mixing:
  rms(total) = 0.53328E+00    rms(broyden)= 0.53313E+00
  rms(prec ) = 0.69066E+00
  weight for this iteration     100.00

 eigenvalues of (default mixing * dielectric matrix)
  average eigenvalue GAMMA=   0.4909
  1.8081  1.6727  0.6742  0.6742  0.6276  0.6276  0.4441  0.3563  0.1367  0.1367
  0.1569  0.1398  0.1092  0.1060  0.0919  0.0919

 Free energy of the ion-electron system (eV)
  ---------------------------------------------------
  alpha Z        PSCENC =      1355.35091105
  Ewald energy   TEWEN  =    -29729.97667189
  -Hartree energ DENC   =    -11847.81420275
  -exchange      EXHF   =         0.00000000
  -V(xc)+E(xc)   XCENC  =      1604.47540868
  PAW double counting   =     47577.15194224   -49518.29746805
  entropy T*S    EENTRO =        -0.06160936
  eigenvalues    EBANDS =      -447.64314450
  atomic energy  EATOM  =     40708.47505058
  Solvation  Ediel_sol  =         0.00000000
  ---------------------------------------------------
  free energy    TOTEN  =      -298.33978401 eV

  energy without entropy =     -298.27817465  energy(sigma->0) =     -298.30897933


--------------------------------------------------------------------------------------------------------




--------------------------------------- Iteration      1(  22)  ---------------------------------------


    POTLOK:  cpu time    0.1842: real time    0.1846
    SETDIJ:  cpu time    0.0244: real time    0.0245
     EDDAV:  cpu time  134.3523: real time  134.6695
    CHARGE:  cpu time    4.7836: real time    4.7949
    MIXING:  cpu time    0.0072: real time    0.0072
    --------------------------------------------
      LOOP:  cpu time  139.3517: real time  139.6807

 eigenvalue-minimisations  : 40960
 total energy-change (2. order) :-0.1714809E+00  (-0.5963445E-01)
 number of electron     432.0000006 magnetization       5.9468378
 augmentation part      181.4929817 magnetization       4.0196188

 Broyden mixing:
  rms(total) = 0.71739E+00    rms(broyden)= 0.71727E+00
  rms(prec ) = 0.95578E+00
  weight for this iteration     100.00

 eigenvalues of (default mixing * dielectric matrix)
  average eigenvalue GAMMA=   0.4994
  1.8666  1.8666  0.7878  0.7878  0.6217  0.6217  0.4436  0.3734  0.1368  0.1368
  0.1649  0.1613  0.1259  0.1077  0.1031  0.0916  0.0916

 Free energy of the ion-electron system (eV)
  ---------------------------------------------------
  alpha Z        PSCENC =      1355.35091105
  Ewald energy   TEWEN  =    -29729.97667189
  -Hartree energ DENC   =    -11849.64773432
  -exchange      EXHF   =         0.00000000
  -V(xc)+E(xc)   XCENC  =      1604.59637125
  PAW double counting   =     47596.36278177   -49535.38800569
  entropy T*S    EENTRO =        -0.06340998
  eigenvalues    EBANDS =      -448.22055770
  atomic energy  EATOM  =     40708.47505058
  Solvation  Ediel_sol  =         0.00000000
  ---------------------------------------------------
  free energy    TOTEN  =      -298.51126494 eV

  energy without entropy =     -298.44785496  energy(sigma->0) =     -298.47955995


--------------------------------------------------------------------------------------------------------




--------------------------------------- Iteration      1(  23)  ---------------------------------------


    POTLOK:  cpu time    0.1835: real time    0.1839
    SETDIJ:  cpu time    0.0242: real time    0.0242
     EDDAV:  cpu time  134.0038: real time  134.3202
    CHARGE:  cpu time    4.8334: real time    4.8449
    MIXING:  cpu time    0.0085: real time    0.0086
    --------------------------------------------
      LOOP:  cpu time  139.0535: real time  139.3818

 eigenvalue-minimisations  : 40960
 total energy-change (2. order) : 0.9688253E-01  (-0.5736169E-01)
 number of electron     432.0000006 magnetization       5.0469106
 augmentation part      181.5236902 magnetization       3.2282659

 Broyden mixing:
  rms(total) = 0.38829E+00    rms(broyden)= 0.38814E+00
  rms(prec ) = 0.50460E+00
  weight for this iteration     100.00

 eigenvalues of (default mixing * dielectric matrix)
  average eigenvalue GAMMA=   0.5192
  2.2955  1.5749  1.1695  0.8555  0.6084  0.6084  0.3893  0.3749  0.3749  0.1369
  0.1369  0.1515  0.1515  0.1266  0.1085  0.1003  0.0910  0.0910

 Free energy of the ion-electron system (eV)
  ---------------------------------------------------
  alpha Z        PSCENC =      1355.35091105
  Ewald energy   TEWEN  =    -29729.97667189
  -Hartree energ DENC   =    -11851.47336628
  -exchange      EXHF   =         0.00000000
  -V(xc)+E(xc)   XCENC  =      1604.73430910
  PAW double counting   =     47608.23358785   -49545.70990765
  entropy T*S    EENTRO =        -0.05726819
  eigenvalues    EBANDS =      -447.99102697
  atomic energy  EATOM  =     40708.47505058
  Solvation  Ediel_sol  =         0.00000000
  ---------------------------------------------------
  free energy    TOTEN  =      -298.41438241 eV

  energy without entropy =     -298.35711422  energy(sigma->0) =     -298.38574832


--------------------------------------------------------------------------------------------------------




--------------------------------------- Iteration      1(  24)  ---------------------------------------


    POTLOK:  cpu time    0.1853: real time    0.1858
    SETDIJ:  cpu time    0.0252: real time    0.0253
     EDDAV:  cpu time  133.6436: real time  133.9592
    CHARGE:  cpu time    4.7695: real time    4.7808
    MIXING:  cpu time    0.0082: real time    0.0083
    --------------------------------------------
      LOOP:  cpu time  138.6319: real time  138.9592

 eigenvalue-minimisations  : 40496
 total energy-change (2. order) :-0.6690150E-01  (-0.3336835E-01)
 number of electron     432.0000006 magnetization       4.8534398
 augmentation part      181.5749346 magnetization       3.2101369

 Broyden mixing:
  rms(total) = 0.49013E+00    rms(broyden)= 0.49001E+00
  rms(prec ) = 0.67431E+00
  weight for this iteration     100.00

 eigenvalues of (default mixing * dielectric matrix)
  average eigenvalue GAMMA=   0.5128
  2.2911  1.5775  1.1448  1.0996  0.6017  0.6017  0.4076  0.4076  0.3700  0.1368
  0.1368  0.1645  0.1475  0.1475  0.1146  0.1100  0.0998  0.0916  0.0916

 Free energy of the ion-electron system (eV)
  ---------------------------------------------------
  alpha Z        PSCENC =      1355.35091105
  Ewald energy   TEWEN  =    -29729.97667189
  -Hartree energ DENC   =    -11853.17691843
  -exchange      EXHF   =         0.00000000
  -V(xc)+E(xc)   XCENC  =      1604.89923826
  PAW double counting   =     47648.98761619   -49585.70448246
  entropy T*S    EENTRO =        -0.05726568
  eigenvalues    EBANDS =      -447.27876154
  atomic energy  EATOM  =     40708.47505058
  Solvation  Ediel_sol  =         0.00000000
  ---------------------------------------------------
  free energy    TOTEN  =      -298.48128391 eV

  energy without entropy =     -298.42401823  energy(sigma->0) =     -298.45265107


--------------------------------------------------------------------------------------------------------




--------------------------------------- Iteration      1(  25)  ---------------------------------------


    POTLOK:  cpu time    0.1856: real time    0.1861
    SETDIJ:  cpu time    0.0250: real time    0.0251
     EDDAV:  cpu time  135.9575: real time  136.2785
    CHARGE:  cpu time    4.7688: real time    4.7801
    MIXING:  cpu time    0.0082: real time    0.0083
    --------------------------------------------
      LOOP:  cpu time  140.9452: real time  141.2780

 eigenvalue-minimisations  : 41488
 total energy-change (2. order) : 0.5817004E-01  (-0.2149788E-01)
 number of electron     432.0000006 magnetization       4.7021200
 augmentation part      181.5990845 magnetization       3.0780291

 Broyden mixing:
  rms(total) = 0.24376E+00    rms(broyden)= 0.24363E+00
  rms(prec ) = 0.31009E+00
  weight for this iteration     100.00

 eigenvalues of (default mixing * dielectric matrix)
  average eigenvalue GAMMA=   0.5189
  2.2260  1.4878  1.4878  1.2186  0.6034  0.6034  0.4258  0.4258  0.3869  0.3091
  0.1368  0.1368  0.1541  0.1541  0.1242  0.1098  0.1068  0.0982  0.0910  0.0910

 Free energy of the ion-electron system (eV)
  ---------------------------------------------------
  alpha Z        PSCENC =      1355.35091105
  Ewald energy   TEWEN  =    -29729.97667189
  -Hartree energ DENC   =    -11853.68756152
  -exchange      EXHF   =         0.00000000
  -V(xc)+E(xc)   XCENC  =      1604.96782304
  PAW double counting   =     47651.37267796   -49587.83222939
  entropy T*S    EENTRO =        -0.05748091
  eigenvalues    EBANDS =      -447.03563278
  atomic energy  EATOM  =     40708.47505058
  Solvation  Ediel_sol  =         0.00000000
  ---------------------------------------------------
  free energy    TOTEN  =      -298.42311387 eV

  energy without entropy =     -298.36563296  energy(sigma->0) =     -298.39437342


--------------------------------------------------------------------------------------------------------




--------------------------------------- Iteration      1(  26)  ---------------------------------------


    POTLOK:  cpu time    0.1834: real time    0.1838
    SETDIJ:  cpu time    0.0246: real time    0.0246
     EDDAV:  cpu time  142.7143: real time  143.0513
    CHARGE:  cpu time    4.9043: real time    4.9158
    MIXING:  cpu time    0.0086: real time    0.0087
    --------------------------------------------
      LOOP:  cpu time  147.8351: real time  148.1841

[...]
  in kB      -13.0787760    -15.7067333    368.4570195     -1.1910984      4.3786160     -6.4997648
  external PRESSURE =     113.2238367 kB  Pullay stress =       0.0000000 kB


 VOLUME and BASIS-vectors are now :
 -----------------------------------------------------------------------------
  energy-cutoff  :      500.00
  volume of cell :      638.20
      direct lattice vectors                 reciprocal lattice vectors
     8.555157000  0.000000000  0.000000000     0.116888562  0.067485643  0.000000000
    -4.277578500  7.408983300  0.000000000     0.000000000  0.134971285  0.000000000
     0.000000000  0.000000000 10.068620250     0.000000000  0.000000000  0.099318474

  length of vectors
     8.555157000  8.555157004 10.068620250     0.134971286  0.134971285  0.099318474


 FORCES acting on ions
    electron-ion (+dipol)            ewald-force                    non-local-force                 convergence-correction
 -----------------------------------------------------------------------------------------------
   -.218E+02 0.351E+02 -.326E+03   0.181E+02 -.328E+02 0.378E+03   0.614E+00 0.155E+00 -.527E+01   -.125E-01 -.131E-01 -.453E-01
   -.373E+02 -.113E+02 0.117E+03   0.389E+02 0.124E+02 -.130E+03   -.674E+00 -.390E+00 0.129E+01   -.378E-01 -.172E-01 0.428E-01
   -.210E+02 -.664E+02 0.955E+02   0.209E+02 0.661E+02 -.969E+02   -.117E+00 0.194E+00 0.946E+00   -.359E-01 -.128E-01 -.201E-02
   0.482E+02 0.523E+02 -.238E+03   -.458E+02 -.528E+02 0.273E+03   0.236E-01 0.391E+00 -.375E+01   -.250E-01 -.365E-03 -.553E-01
   0.100E+03 0.616E+02 -.344E+02   -.999E+02 -.611E+02 0.352E+02   0.585E-01 0.509E-01 0.847E+00   -.253E-01 -.257E-01 0.275E-01
   0.433E+02 0.849E+02 0.785E+02   -.435E+02 -.851E+02 -.812E+02   -.141E+00 -.285E+00 0.255E+01   -.202E-01 -.182E-01 0.200E-01
   0.152E+03 0.215E+02 -.256E+03   -.152E+03 -.221E+02 0.272E+03   -.192E+00 0.147E+00 -.175E+01   -.227E-01 -.191E-01 -.484E-01
   0.838E+02 0.359E+02 0.969E+02   -.840E+02 -.358E+02 -.105E+03   0.986E-01 0.303E-03 0.764E+00   -.139E-01 0.190E-02 0.274E-01
   0.969E+02 0.369E+02 0.130E+03   -.965E+02 -.368E+02 -.135E+03   -.228E+00 -.540E+00 0.143E+01   -.327E-01 -.232E-01 0.201E-01
   0.134E+03 -.115E+03 -.826E+02   -.134E+03 0.115E+03 0.874E+02   0.143E+00 -.717E+00 -.191E+00   0.946E-02 0.158E-01 -.326E-02
   -.898E+01 -.759E+02 -.190E+03   0.846E+01 0.758E+02 0.194E+03   0.108E+00 0.277E-01 0.172E+01   0.348E-01 0.400E-02 0.456E-02
   0.207E+02 -.115E+03 0.140E+03   -.215E+02 0.115E+03 -.146E+03   0.610E+00 0.155E-02 0.211E+01   -.440E-02 0.129E-02 0.221E-02
   -.629E+02 -.153E+01 -.207E+03   0.626E+02 0.177E+01 0.225E+03   -.181E+00 -.332E+00 -.763E+00   0.136E-01 0.955E-02 -.385E-01
   -.979E+02 -.246E+02 0.386E+00   0.976E+02 0.247E+02 -.372E+01   -.647E-01 -.262E+00 0.250E+01   0.147E-01 0.623E-02 0.269E-01
   -.909E+02 0.149E+02 -.118E+03   0.917E+02 -.143E+02 0.131E+03   0.135E+00 -.743E-01 0.700E+00   -.871E-02 0.151E-01 0.188E-01
   -.250E+01 0.440E+02 -.212E+01   0.115E+01 -.441E+02 -.507E+01   0.113E+01 -.349E+00 0.111E+01   0.120E-02 -.231E-02 -.367E-01
   -.597E+02 0.232E+02 -.861E+02   0.596E+02 -.231E+02 0.889E+02   0.864E-01 0.143E+00 -.114E+01   0.265E-01 0.359E-01 0.203E-01
   -.862E+02 -.186E+02 0.854E+02   0.858E+02 0.178E+02 -.862E+02   0.628E+00 0.289E+00 0.564E+00   0.850E-02 -.207E-01 0.148E-01
   -.694E+02 -.757E+02 -.164E+03   0.690E+02 0.759E+02 0.172E+03   0.279E-01 -.235E+00 -.285E+00   0.563E-02 0.129E-01 -.258E-02
   -.699E+01 -.709E+02 -.150E+03   0.706E+01 0.710E+02 0.154E+03   -.352E-01 0.134E-01 0.732E+00   -.304E-02 -.463E-02 0.231E-01
   0.186E+01 -.765E+02 0.133E+03   -.159E+01 0.770E+02 -.136E+03   -.295E+00 -.751E+00 0.210E+01   0.370E-01 0.603E-02 -.191E-01
   -.305E+01 -.100E+03 -.500E+02   0.341E+01 0.100E+03 0.491E+02   -.432E+00 0.975E-01 -.130E+01   0.653E-02 0.124E-01 -.190E-01
   -.176E+02 -.253E+01 0.560E+01   0.170E+02 0.257E+01 -.556E+01   -.201E+00 -.787E-01 -.155E+01   0.822E-02 -.216E-01 -.358E-02
   0.117E+02 -.291E+02 0.172E+03   -.118E+02 0.288E+02 -.176E+03   -.534E+00 0.185E+00 0.105E+00   0.253E-01 0.210E-01 0.208E-01
   -.635E+02 0.941E+02 -.102E+03   0.638E+02 -.941E+02 0.105E+03   0.547E-01 0.252E+00 0.818E-02   0.172E-01 -.520E-02 -.401E-01
   -.432E+02 0.790E+02 -.870E+02   0.425E+02 -.792E+02 0.868E+02   0.378E+00 0.182E+00 0.244E+01   -.146E-01 0.303E-01 0.398E-01
   -.159E+02 0.868E+02 0.944E+01   0.160E+02 -.872E+02 -.316E+01   0.321E+00 0.565E+00 -.186E+00   0.178E-01 0.165E-01 -.496E-02
   -.108E+02 0.218E+02 -.315E+02   0.108E+02 -.211E+02 0.316E+02   -.826E-01 -.948E+00 -.123E+00   -.142E-01 -.882E-02 -.172E-02
   0.339E+02 0.961E+01 -.143E+03   -.406E+02 -.136E+02 0.166E+03   0.611E+01 0.340E+01 -.125E+02   -.267E-01 -.968E-02 0.384E-01
   -.577E+02 0.100E+02 0.263E+03   0.634E+02 -.142E+02 -.327E+03   -.212E+01 0.202E+01 0.173E+02   -.972E-02 -.833E-02 -.425E-01
   0.322E+02 0.112E+02 -.410E+02   -.300E+02 -.996E+01 0.392E+02   -.296E+01 -.184E+01 0.115E+01   -.158E-01 -.603E-02 -.230E-01
   0.555E+02 0.417E+02 -.223E+02   -.566E+02 -.407E+02 0.260E+02   0.821E+00 -.143E+01 -.313E+01   -.103E-01 -.132E-01 0.589E-01
   0.500E+02 0.347E+02 0.250E+03   -.555E+02 -.343E+02 -.296E+03   0.332E+01 0.107E+00 0.145E+02   -.107E-01 0.846E-03 -.416E-01
   0.786E+02 0.119E+02 0.979E+01   -.791E+02 -.112E+02 -.136E+02   0.203E+00 -.114E+01 0.325E+01   -.835E-02 -.455E-02 -.159E-01
   0.428E+02 0.424E+02 -.590E+02   -.416E+02 -.451E+02 0.717E+02   -.163E+01 0.285E+01 -.639E+01   -.141E-01 -.464E-02 0.331E-01
   0.778E+02 0.792E+01 0.767E+02   -.801E+02 -.674E+01 -.919E+02   0.138E+01 -.447E+00 0.491E+01   -.142E-01 -.141E-01 -.123E-01
   0.465E+02 -.400E+02 -.211E+02   -.461E+02 0.400E+02 0.154E+02   -.693E+00 0.812E+00 0.300E+01   0.153E-01 0.608E-02 0.102E-01
   -.220E+02 -.526E+02 0.109E+03   0.225E+02 0.540E+02 -.117E+03   -.465E+00 -.142E+01 0.703E+01   0.737E-02 0.318E-03 -.874E-02
   0.141E+02 -.186E+02 0.475E+02   -.935E+01 0.133E+02 -.496E+02   -.522E+01 0.574E+01 0.340E+00   0.285E-03 0.323E-02 0.444E-02
   -.493E+02 -.138E+01 -.300E+01   0.503E+02 -.468E+00 -.120E+01   -.119E+01 0.239E+01 0.327E+01   0.139E-01 0.310E-02 -.869E-02
   -.532E+01 0.248E+02 0.117E+03   0.119E+00 -.276E+02 -.137E+03   0.450E+01 0.232E+01 0.753E+01   -.450E-02 0.313E-02 0.122E-01
   -.616E+02 0.148E+02 0.198E+03   0.652E+02 -.147E+02 -.228E+03   -.228E+01 -.259E+00 0.128E+02   0.188E-02 0.801E-02 -.130E-01
   -.592E+02 0.205E+02 -.124E+03   0.641E+02 -.177E+02 0.137E+03   -.434E+01 -.310E+01 -.489E+01   0.101E-01 0.134E-01 0.147E-01
   -.423E+02 -.220E+02 0.177E+02   0.423E+02 0.216E+02 -.173E+02   0.341E+00 0.566E+00 -.229E+00   0.132E-01 0.618E-02 0.346E-02
   -.720E+02 0.459E+02 0.857E+02   0.763E+02 -.487E+02 -.923E+02   -.458E+01 0.300E+01 0.327E+01   0.353E-02 -.114E-01 -.166E-01
   -.106E+02 -.574E+02 0.126E+02   0.613E+01 0.570E+02 -.236E+02   0.462E+01 0.969E+00 0.636E+01   0.784E-02 0.574E-02 0.649E-01
   0.353E+02 -.328E+02 0.792E+02   -.356E+02 0.323E+02 -.855E+02   0.287E+00 0.734E+00 0.443E+01   0.141E-01 -.376E-02 -.243E-01
   -.242E+02 0.413E+01 0.842E+02   0.243E+02 -.879E+01 -.924E+02   0.406E+00 0.517E+01 0.313E+01   0.155E-01 0.289E-02 -.280E-01
   0.260E+02 -.500E+02 -.139E+03   -.311E+02 0.510E+02 0.152E+03   0.552E+01 -.576E+00 -.664E+01   0.715E-02 -.545E-02 -.247E-01
   0.202E+02 0.165E+02 -.260E+02   -.234E+02 -.186E+02 0.322E+02   0.399E+01 0.231E+01 -.434E+01   0.118E-01 0.646E-03 0.244E-01
   0.221E+02 -.369E+02 0.412E+02   -.218E+02 0.368E+02 -.421E+02   0.376E-01 0.343E+00 0.287E+00   0.904E-02 0.139E-01 -.486E-02
   -.526E+02 0.272E+02 -.907E+01   0.527E+02 -.253E+02 0.565E+01   -.125E+00 -.239E+01 0.231E+01   -.132E-02 0.613E-02 -.399E-02
   -.628E+00 0.337E+02 0.176E+03   -.300E+00 -.325E+02 -.197E+03   0.104E+01 -.156E+01 0.113E+02   0.308E-02 0.160E-01 0.422E-01
   -.559E+02 0.340E+02 0.659E+01   0.591E+02 -.311E+02 -.687E+01   -.350E+01 -.377E+01 -.646E-01   0.840E-02 -.282E-02 -.330E-01
 -----------------------------------------------------------------------------------------------
   -.468E+01 -.126E+02 -.736E+02   -.711E-14 0.497E-13 0.121E-12   0.471E+01 0.126E+02 0.736E+02   -.177E-01 0.160E-02 -.577E-02
 
 
 POSITION                                       TOTAL-FORCE (eV/Angst)
 -----------------------------------------------------------------------------------
      8.48392      0.07538     10.06417        -3.049619      2.385730     47.044069
      0.13502      0.08612      3.59010         0.917045      0.751437    -11.175305
     -4.22129      7.38465      6.97594        -0.234926     -0.056926     -0.488137
     -1.18241      2.53028      9.97020         2.308717     -0.112452     30.438027
     -1.25756      2.55675      3.27832         0.312221      0.468612      1.681822
     -1.19396      2.72223      6.82246        -0.432481     -0.508674     -0.146465
     -2.66577      4.91471      9.99222         0.515186     -0.455651     14.920767
     -2.73770      5.02899      3.62719        -0.060182      0.134977     -7.443918
     -2.72873      5.13709      6.92988         0.215588     -0.409542     -2.980040
      3.05984      0.20152     10.06287         0.220830     -0.196312      4.538812
     -1.40508      7.36085      3.24981        -0.377803      0.005809      5.614094
     -1.37350      7.37139      6.94855        -0.211663     -0.203507     -3.658575
      1.41869      2.58775      9.98321        -0.467279     -0.075244     17.794227
      1.43092      2.48997      3.52373        -0.278879     -0.207563     -0.808868
      1.53900      2.55374      6.66585         0.976897      0.553884     13.983898
     -0.19458      5.14909      0.17492        -0.226014     -0.439804     -6.118546
      0.01845      5.00089      3.33018         0.062027      0.304925      1.604827
     -0.07714      5.02460      6.85538         0.191699     -0.486042     -0.244554
      5.66787      0.00557      0.00809        -0.340800      0.012399      7.897726
      1.61718      7.35955      3.38757         0.032156      0.179079      5.309001
      5.86408      0.09052      6.92463         0.009787     -0.283165     -1.466667
      4.42817      2.44618      0.08918        -0.067286     -0.254228     -2.238122
      4.41859      2.54664      3.42706        -0.764469     -0.052301     -1.510812
      4.48660      2.46858      6.93468        -0.559066     -0.170360     -4.178107
      2.70417      5.02568      0.07133         0.420711      0.234657      2.707041
      2.96086      5.02218      3.46506        -0.332664      0.080212      2.352804
      2.87402      4.99737      6.90005         0.448825      0.224433      6.089930
      0.04518      0.13451      1.77440        -0.073297     -0.213485     -0.010725
      4.17304      7.33008      5.03723        -0.577365     -0.565244     10.902444
      0.03174      0.01273      8.82066         3.584458     -2.149935    -46.721874
     -1.12397      2.62824      1.61245        -0.745232     -0.560496     -0.691419
     -1.27086      2.67288      5.00188        -0.264184     -0.431919      0.659593
     -1.28842      2.55471      8.65706        -2.156894      0.503638    -31.574964
     -2.69536      5.03427      1.83500        -0.296865     -0.471473     -0.569795
     -2.71366      4.96797      5.16316        -0.407550      0.221460      6.382051
     -2.73876      5.02755      8.55259        -0.887465      0.713287    -10.298149
      2.98128      0.03595      1.66997        -0.264001      0.816575     -2.607358
      2.84907      0.04535      5.25563         0.011441     -0.053911     -1.752931
     -1.14740      7.31615      8.52816        -0.486441      0.393818     -1.841150
      1.50897      2.46086      1.77739        -0.127176      0.548908     -0.928436
      1.34386      2.45610      5.23631        -0.713914     -0.484425    -12.390324
      1.53460      2.56784      8.57176         1.293228     -0.215111    -17.229989
      0.05007      5.19903      1.65541         0.573019     -0.317106      7.614060
     -0.03470      4.97486      5.08878         0.388924      0.227336      0.150927
      0.01263      4.94126      8.63734        -0.268058      0.190291     -3.344823
      1.34015      7.37487      1.83015         0.201775      0.569626     -4.599216
      5.87891      0.01542      5.24513         0.023139      0.258072     -1.907453
      1.49567      7.30728      8.55292         0.491555      0.509746     -5.043005
      4.23340      2.50654      1.62793         0.530375      0.403098      6.135765
      4.26362      2.44471      5.09733         0.836038      0.249958      1.899838
      4.47930      2.44851      8.55398         0.341441      0.253070     -0.591725
      2.83019      5.10113      1.80002        -0.072516     -0.559025     -1.118200
      2.85732      5.02407      5.40207         0.117184     -0.397239     -9.664647
      2.95264      5.14147      8.52964        -0.280178     -0.863897     -0.377422
 -----------------------------------------------------------------------------------
    total drift:                                0.013101     -0.011913      0.003924


--------------------------------------------------------------------------------------------------------



  FREE ENERGIE OF THE ION-ELECTRON SYSTEM (eV)
  ---------------------------------------------------
  free  energy   TOTEN  =      -298.5345740269 eV

  energy  without entropy=     -298.4856043588  energy(sigma->0) =     -298.51008919
 


--------------------------------------------------------------------------------------------------------


    POTLOK:  cpu time    0.2090: real time    0.2095


--------------------------------------------------------------------------------------------------------


     LOOP+:  cpu time 8863.7925: real time 8885.1911
    4ORBIT:  cpu time    0.0000: real time    0.0000

volume of typ            1:    27.0 %

volume of typ            2:     6.9 %
 
total charge     
 
# of ion       s       p       d       tot
------------------------------------------
    1        0.485   0.624   8.107   9.216
    2        0.349   0.399   7.944   8.692
    3        0.215   0.174   7.982   8.372
    4        0.447   0.589   8.058   9.094
    5        0.292   0.306   7.910   8.509
    6        0.238   0.209   7.948   8.395
    7        0.352   0.383   7.999   8.734
    8        0.327   0.362   7.920   8.609
    9        0.295   0.311   7.957   8.562
   10        0.327   0.382   7.972   8.681
   11        0.279   0.267   7.944   8.491
   12        0.324   0.365   7.925   8.615
   13        0.375   0.428   7.988   8.791
   14        0.272   0.273   7.929   8.475
   15        0.348   0.379   8.004   8.731
   16        0.368   0.465   7.971   8.804
   17        0.275   0.281   7.936   8.492
   18        0.264   0.253   7.921   8.438
   19        0.319   0.352   7.977   8.648
   20        0.298   0.304   7.923   8.525
   21        0.311   0.338   7.924   8.573
   22        0.362   0.436   7.947   8.745
   23        0.273   0.264   7.910   8.446
   24        0.286   0.279   7.942   8.506
   25        0.295   0.312   7.940   8.546
   26        0.258   0.236   7.935   8.428
   27        0.373   0.457   7.946   8.776
   28        1.268   2.730   0.005   4.004
   29        1.283   2.786   0.016   4.084
   30        1.311   2.918   0.040   4.269
   31        1.270   2.773   0.010   4.053
   32        1.271   2.725   0.007   4.004
   33        1.299   2.882   0.032   4.212
   34        1.267   2.713   0.004   3.985
   35        1.275   2.792   0.014   4.081
   36        1.282   2.859   0.026   4.167
   37        1.275   2.791   0.014   4.080
   38        1.272   2.714   0.006   3.992
   39        1.274   2.837   0.019   4.130
   40        1.269   2.724   0.006   3.998
   41        1.283   2.829   0.022   4.135
   42        1.281   2.833   0.021   4.135
   43        1.281   2.820   0.019   4.120
   44        1.271   2.726   0.007   4.005
   45        1.270   2.776   0.010   4.056
   46        1.273   2.771   0.011   4.056
   47        1.270   2.735   0.007   4.012
   48        1.276   2.829   0.019   4.123
   49        1.274   2.782   0.013   4.068
   50        1.270   2.733   0.008   4.010
   51        1.271   2.813   0.016   4.099
   52        1.269   2.758   0.010   4.037
   53        1.279   2.782   0.014   4.075
   54        1.269   2.810   0.014   4.092
--------------------------------------------------
tot          43.06   84.67  215.25  342.98
 
magnetization (x)
 
# of ion       s       p       d       tot
------------------------------------------
    1       -0.002  -0.010  -0.368  -0.380
    2        0.015   0.002   0.802   0.819
    3        0.001   0.002  -0.088  -0.085
    4        0.008   0.006   0.410   0.424
    5       -0.005   0.001  -0.502  -0.506
    6        0.000   0.000  -0.200  -0.199
    7       -0.005  -0.005  -0.446  -0.455
    8        0.012  -0.002   0.774   0.783
    9       -0.001  -0.001  -0.151  -0.153
   10        0.001  -0.001   0.119   0.119
   11        0.009   0.004   0.654   0.667
   12       -0.004   0.004  -0.542  -0.542
   13        0.015   0.005   0.704   0.723
   14       -0.003  -0.001  -0.180  -0.184
   15       -0.005  -0.006  -0.367  -0.378
   16       -0.006   0.001  -0.418  -0.423
   17        0.000  -0.003   0.224   0.222
   18        0.004  -0.001   0.485   0.489
   19       -0.001  -0.001  -0.062  -0.065
   20        0.010   0.000   0.624   0.634
   21       -0.004   0.002  -0.410  -0.412
   22       -0.005   0.002  -0.361  -0.364
   23        0.008  -0.001   0.655   0.662
   24        0.000  -0.002  -0.018  -0.019
   25        0.007  -0.001   0.468   0.474
   26        0.005   0.001   0.586   0.592
   27       -0.008   0.003  -0.563  -0.569
   28        0.002   0.071  -0.000   0.073
   29        0.008   0.332   0.001   0.341
   30       -0.004  -0.156  -0.001  -0.161
   31       -0.001  -0.029  -0.000  -0.030
   32       -0.007  -0.270   0.000  -0.277
   33        0.004   0.164   0.001   0.168
   34        0.004   0.156   0.000   0.160
   35        0.006   0.254   0.000   0.261
   36       -0.005  -0.187   0.000  -0.191
   37        0.007   0.265  -0.000   0.272
   38       -0.004  -0.186  -0.000  -0.190
   39       -0.003  -0.113   0.000  -0.116
   40        0.003   0.118  -0.000   0.121
   41       -0.005  -0.199   0.000  -0.204
   42        0.006   0.237   0.001   0.244
   43       -0.003  -0.145  -0.000  -0.149
   44        0.007   0.277  -0.000   0.284
   45       -0.001  -0.020  -0.000  -0.021
   46        0.006   0.227   0.000   0.233
   47       -0.001  -0.038  -0.000  -0.039
   48       -0.004  -0.116   0.000  -0.120
   49       -0.001  -0.044  -0.000  -0.045
   50        0.007   0.265  -0.000   0.271
   51       -0.003  -0.107   0.000  -0.110
   52        0.008   0.311  -0.000   0.320
   53       -0.004  -0.192  -0.000  -0.197
   54       -0.001  -0.043   0.000  -0.044
--------------------------------------------------
tot           0.07    0.83    1.83    2.73
 

 total amount of memory used by VASP MPI-rank0   386217. kBytes
=======================================================================

   base      :      30000. kBytes
   nonlr-proj:      40206. kBytes
   fftplans  :       6899. kBytes
   grid      :      39583. kBytes
   one-center:       1679. kBytes
   wavefun   :     267850. kBytes
 
  
  
 General timing and accounting informations for this job:
 ========================================================
  
                  Total CPU time used (sec):     8931.688
                            User time (sec):     8918.501
                          System time (sec):       13.187
                         Elapsed time (sec):     8957.144
  
                   Maximum memory used (kb):      478704.
                   Average memory used (kb):           0.
  
                          Minor page faults:        43945
                          Major page faults:           20
                 Voluntary context switches:         1184
