 vasp.5.4.4.18Apr17-6-g9f103f2a35 (build May 12 2020 04:58:55) complex          
  
 MD_VERSION_INFO: Compiled 2020-05-12T11:58:55-UTC in devlin.sd.materialsdesign.
 com:/home/medea2/data/build/wwolf/vasp-gpu5.4.4/13047/x86_64/src/src/build/std 
 from svn 13047
 
 This VASP executable licensed from Materials Design, Inc.
 
 executed on                        Lin64 date 2023.03.24  08:23:58
 running on   16 total cores
 distrk:  each k-point on   16 cores,    1 groups
 distr:  one band on NCORES_PER_BAND=   1 cores,   16 groups


--------------------------------------------------------------------------------------------------------


 INCAR:
 POTCAR:    PAW_PBE Ni 02Aug2007                  
 POTCAR:    PAW_PBE O 08Apr2002                   

 ----------------------------------------------------------------------------- 
|                                                                             |
|           W    W    AA    RRRRR   N    N  II  N    N   GGGG   !!!           |
|           W    W   A  A   R    R  NN   N  II  NN   N  G    G  !!!           |
|           W    W  A    A  R    R  N N  N  II  N N  N  G       !!!           |
|           W WW W  AAAAAA  RRRRR   N  N N  II  N  N N  G  GGG   !            |
|           WW  WW  A    A  R   R   N   NN  II  N   NN  G    G                |
|           W    W  A    A  R    R  N    N  II  N    N   GGGG   !!!           |
|                                                                             |
|      For optimal performance we recommend to set                            |
|        NCORE= 4 - approx SQRT( number of cores)                             |
|      NCORE specifies how many cores store one orbital (NPAR=cpu/NCORE).     |
|      This setting can  greatly improve the performance of VASP for DFT.     |
|      The default,   NCORE=1            might be grossly inefficient         |
|      on modern multi-core architectures or massively parallel machines.     |
|      Do your own testing !!!!                                               |
|      Unfortunately you need to use the default for GW and RPA calculations. |
|      (for HF NCORE is supported but not extensively tested yet)             |
|                                                                             |
 ----------------------------------------------------------------------------- 

 POTCAR:    PAW_PBE Ni 02Aug2007                  
  local pseudopotential read in
  partial core-charges read in
  partial kinetic energy density read in
  atomic valenz-charges read in
  non local Contribution for L=           2  read in
    real space projection operators read in
  non local Contribution for L=           2  read in
    real space projection operators read in
  non local Contribution for L=           0  read in
    real space projection operators read in
  non local Contribution for L=           0  read in
    real space projection operators read in
  non local Contribution for L=           1  read in
    real space projection operators read in
  non local Contribution for L=           1  read in
    real space projection operators read in
    PAW grid and wavefunctions read in
 
   number of l-projection  operators is LMAX  =           6
   number of lm-projection operators is LMMAX =          18
 
 POTCAR:    PAW_PBE O 08Apr2002                   
  local pseudopotential read in
  partial core-charges read in
  partial kinetic energy density read in
  kinetic energy density of atom read in
  atomic valenz-charges read in
  non local Contribution for L=           0  read in
    real space projection operators read in
  non local Contribution for L=           0  read in
    real space projection operators read in
  non local Contribution for L=           1  read in
    real space projection operators read in
  non local Contribution for L=           1  read in
    real space projection operators read in
    PAW grid and wavefunctions read in
 
   number of l-projection  operators is LMAX  =           4
   number of lm-projection operators is LMMAX =           8
 
 Optimization of the real space projectors (new method)

 maximal supplied QI-value         = 16.25
 optimisation between [QCUT,QGAM] = [ 11.38, 22.75] = [ 36.24,144.96] Ry 
 Optimized for a Real-space Cutoff    1.47 Angstroem

   l    n(q)    QCUT    max X(q) W(low)/X(q) W(high)/X(q)  e(spline) 
   2      9    11.376    60.317    0.17E-03    0.16E-04    0.16E-06
   2      9    11.376    55.921    0.17E-03    0.16E-04    0.17E-06
   0     10    11.376    51.690    0.45E-04    0.60E-04    0.21E-06
   0     10    11.376    30.015    0.37E-04    0.55E-04    0.19E-06
   1     10    11.376    18.849    0.83E-04    0.11E-03    0.92E-07
   1     10    11.376    14.624    0.69E-04    0.92E-04    0.82E-07
 Optimization of the real space projectors (new method)

 maximal supplied QI-value         = 24.76
 optimisation between [QCUT,QGAM] = [ 11.39, 22.77] = [ 36.31,145.25] Ry 
 Optimized for a Real-space Cutoff    1.10 Angstroem

   l    n(q)    QCUT    max X(q) W(low)/X(q) W(high)/X(q)  e(spline) 
   0      7    11.387    20.381    0.22E-03    0.48E-03    0.18E-06
   0      7    11.387    15.268    0.22E-03    0.52E-03    0.19E-06
   1      7    11.387     5.964    0.22E-03    0.73E-03    0.24E-06
   1      7    11.387     5.382    0.19E-03    0.60E-03    0.21E-06

 ----------------------------------------------------------------------------- 
|                                                                             |
|  ADVICE TO THIS USER RUNNING 'VASP/VAMP'   (HEAR YOUR MASTER'S VOICE ...):  |
|                                                                             |
|      You enforced a specific xc-type in the INCAR file,                     |
|      a different type was found on the POTCAR file                          |
|          I HOPE YOU KNOW, WHAT YOU ARE  DOING                               |
|                                                                             |
 ----------------------------------------------------------------------------- 

  PAW_PBE Ni 02Aug2007                  :
 energy of atom  1       EATOM=-1077.6739
 kinetic energy error for atom=    0.0030 (will be added to EATOM!!)
  PAW_PBE O 08Apr2002                   :
 energy of atom  2       EATOM= -432.3788
 kinetic energy error for atom=    0.0224 (will be added to EATOM!!)
 
 
 POSCAR: NiO_Cmmm_scale_0_950_disp_0_15_round_2  
  positions in direct lattice
  No initial velocities read in
 exchange correlation table for  LEXCH =       14
   RHO(1)=    0.500       N(1)  =     2000
   RHO(2)=  100.500       N(2)  =     4000
 


--------------------------------------------------------------------------------------------------------


 ion  position               nearest neighbor table
   1  0.002  0.015  0.003-  30 1.27  28 1.89  25 2.54  19 2.60   4 2.69   7 2.77  10 2.92   3 2.94

   2  0.005  0.969  0.376-  29 1.70  28 1.86   8 2.28  26 2.49  20 2.57   5 2.80  11 2.83  14 3.04

   3  0.007  0.026  0.703-  29 1.66  30 1.69   6 2.38  21 2.40  27 2.45  15 2.85   1 2.94   9 2.99
                            12 3.08
   4  0.072  0.368  0.005-  33 1.27  31 1.64  16 2.53  13 2.62   1 2.69   6 2.88   7 2.96
   5  0.055  0.326  0.375-  32 1.57  31 2.03  14 2.37   2 2.80  20 2.85  23 2.99
   6  0.027  0.320  0.715-  33 1.62  32 1.79   3 2.38  15 2.52  21 2.66  24 2.78   4 2.88  18 2.91
                             9 2.98
   7  0.006  0.684  0.993-  36 1.18  34 1.78   1 2.77  25 2.80   9 2.81  22 2.82  16 2.88   4 2.96
                            10 3.04
   8  0.049  0.722  0.349-  35 1.61  34 1.79   2 2.28  11 2.37  17 2.60  26 2.97  23 3.01
   9  0.032  0.680  0.707-  36 1.75  35 1.94  12 2.59  18 2.61  27 2.79   7 2.81  24 2.95   6 2.98
                             3 2.99
  10  0.367  0.049  0.023-  39 1.38  37 1.66  22 2.52  13 2.72  19 2.91   1 2.92  16 2.96   7 3.04

  11  0.351  0.984  0.348-  37 1.58  38 1.63  17 2.14   8 2.37   2 2.83  20 2.98  23 2.99  14 3.05

  12  0.348  0.979  0.669-  38 1.55  39 2.13  18 2.42   9 2.59  24 2.86  21 2.92   3 3.08
  13  0.395  0.387  0.005-  42 1.43  40 1.51  22 2.55   4 2.62  25 2.64  16 2.71  10 2.72  15 2.97

  14  0.349  0.349  0.354-  41 1.84  40 1.97   5 2.37  26 2.86  23 3.00   2 3.04  11 3.05
  15  0.349  0.367  0.704-  42 1.59  41 1.71   6 2.52  18 2.70   3 2.85  13 2.97  27 3.04  24 3.08

  16  0.354  0.689  0.993-  45 1.20  43 1.93   4 2.53  19 2.54  25 2.68  13 2.71   7 2.88  10 2.96

  17  0.368  0.736  0.351-  43 1.62  44 1.79  11 2.14  20 2.58   8 2.60  26 2.80
  18  0.346  0.688  0.672-  44 1.41  45 1.95  12 2.42   9 2.61  15 2.70  21 2.85   6 2.91  27 3.02

  19  0.673  0.978  0.993-  48 1.20  46 1.60  25 2.22  16 2.54   1 2.60  21 2.86  10 2.91  22 3.01

  20  0.709  0.991  0.387-  47 1.41  46 2.32  26 2.33   2 2.57  17 2.58   5 2.85  23 2.98  11 2.98

  21  0.707  0.001  0.703-  48 1.66  47 1.70  27 2.37   3 2.40   6 2.66  24 2.70  18 2.85  19 2.86
                            12 2.92
  22  0.675  0.340  0.990-  51 1.13  49 1.80  10 2.52  13 2.55  24 2.74   7 2.82  19 3.01
  23  0.707  0.344  0.352-  50 1.69  49 1.76  20 2.98  11 2.99   5 2.99  14 3.00   8 3.01  26 3.07

  24  0.691  0.316  0.712-  51 1.73  50 1.85  21 2.70  22 2.74   6 2.78  12 2.86   9 2.95  15 3.08

  25  0.689  0.720  0.985-  54 1.13  52 1.76  19 2.22  48 2.49   1 2.54  13 2.64  16 2.68  27 2.70
                             7 2.80
  26  0.683  0.699  0.372-  53 1.62  52 2.05  20 2.33   2 2.49  17 2.80  14 2.86   8 2.97  23 3.07

  27  0.722  0.724  0.710-  54 1.57  53 1.75  21 2.37   3 2.45  25 2.70   9 2.79  18 3.02  15 3.04

  28  0.958  0.948  0.189-   2 1.86   1 1.89
  29  0.020  0.055  0.536-   3 1.66   2 1.70
  30  0.003  0.002  0.875-   1 1.27   3 1.69
  31  0.071  0.323  0.168-   4 1.64   5 2.03
  32  0.064  0.347  0.534-   5 1.57   6 1.79
  33  0.071  0.353  0.877-   4 1.27   6 1.62
  34  0.071  0.731  0.167-   7 1.78   8 1.79
  35  0.041  0.727  0.513-   8 1.61   9 1.94
  36  0.068  0.694  0.883-   7 1.18   9 1.75
  37  0.346  0.011  0.190-  11 1.58  10 1.66
  38  0.369  0.009  0.513-  12 1.55  11 1.63
  39  0.364  0.020  0.884-  10 1.38  12 2.13
  40  0.339  0.350  0.153-  13 1.51  14 1.97
  41  0.348  0.307  0.538-  15 1.71  14 1.84
  42  0.341  0.369  0.866-  13 1.43  15 1.59
  43  0.373  0.741  0.186-  17 1.62  16 1.93
  44  0.335  0.682  0.529-  18 1.41  17 1.79
  45  0.350  0.704  0.871-  16 1.20  18 1.95
  46  0.728  0.003  0.150-  19 1.60  20 2.32
  47  0.696  0.999  0.529-  20 1.41  21 1.70
  48  0.692  0.989  0.871-  19 1.20  21 1.66  25 2.49
  49  0.689  0.342  0.173-  23 1.76  22 1.80
  50  0.703  0.344  0.524-  23 1.69  24 1.85
  51  0.655  0.274  0.885-  22 1.13  24 1.73
  52  0.705  0.716  0.163-  25 1.76  26 2.05
  53  0.736  0.731  0.532-  26 1.62  27 1.75
  54  0.695  0.718  0.870-  25 1.13  27 1.57
 
  LATTYP: Found a hexagonal cell.
 ALAT       =     8.3357939959
 C/A-ratio  =     1.1769065436
  
  Lattice vectors:
  
 A1 = (   8.3357940000,   0.0000000000,   0.0000000000)
 A2 = (  -4.1678970000,   7.2190093600,   0.0000000000)
 A3 = (   0.0000000000,   0.0000000000,   9.8104505000)


Analysis of symmetry for initial positions (statically):
=====================================================================
 Subroutine PRICEL returns:
 Original cell was already a primitive cell.
 

 Routine SETGRP: Setting up the symmetry group for a 
 hexagonal supercell.


 Subroutine GETGRP returns: Found  1 space group operations
 (whereof  1 operations were pure point group operations)
 out of a pool of 24 trial point group operations.


The static configuration has the point symmetry C_1 .


Analysis of symmetry for dynamics (positions and initial velocities):
=====================================================================
 Subroutine PRICEL returns:
 Original cell was already a primitive cell.
 

 Routine SETGRP: Setting up the symmetry group for a 
 hexagonal supercell.


 Subroutine GETGRP returns: Found  1 space group operations
 (whereof  1 operations were pure point group operations)
 out of a pool of 24 trial point group operations.


The dynamic configuration has the point symmetry C_1 .


Analysis of structural, dynamic, and magnetic symmetry:
=====================================================================
 Subroutine PRICEL returns:
 Original cell was already a primitive cell.
 

 Routine SETGRP: Setting up the symmetry group for a 
 hexagonal supercell.


 Subroutine GETGRP returns: Found  1 space group operations
 (whereof  1 operations were pure point group operations)
 out of a pool of 24 trial point group operations.


The magnetic configuration has the point symmetry C_1 .


 Subroutine INISYM returns: Found  1 space group operations
 (whereof  1 operations are pure point group operations),
 and found     1 'primitive' translations

 
 
 KPOINTS: Automatic mesh                          

Automatic generation of k-mesh.
Space group operators:
 irot       det(A)        alpha          n_x          n_y          n_z        tau_x        tau_y        tau_z
    1     1.000000     0.000000     1.000000     0.000000     0.000000     0.000000     0.000000     0.000000
 
 Subroutine IBZKPT returns following result:
 ===========================================
 
 Found     26 irreducible k-points:
 
 Following reciprocal coordinates:
            Coordinates               Weight
  0.000000  0.000000  0.000000      1.000000
  0.250000  0.000000  0.000000      2.000000
  0.500000  0.000000  0.000000      1.000000
  0.000000  0.250000  0.000000      2.000000
  0.250000  0.250000  0.000000      2.000000
  0.500000  0.250000  0.000000      2.000000
 -0.250000  0.250000  0.000000      2.000000
  0.000000  0.500000  0.000000      1.000000
  0.250000  0.500000  0.000000      2.000000
  0.500000  0.500000  0.000000      1.000000
  0.000000  0.000000  0.333333      2.000000
  0.250000  0.000000  0.333333      2.000000
  0.500000  0.000000  0.333333      2.000000
 -0.250000 -0.000000  0.333333      2.000000
  0.000000  0.250000  0.333333      2.000000
  0.250000  0.250000  0.333333      2.000000
  0.500000  0.250000  0.333333      2.000000
 -0.250000  0.250000  0.333333      2.000000
  0.000000  0.500000  0.333333      2.000000
  0.250000  0.500000  0.333333      2.000000
  0.500000  0.500000  0.333333      2.000000
 -0.250000  0.500000  0.333333      2.000000
  0.000000 -0.250000  0.333333      2.000000
  0.250000 -0.250000  0.333333      2.000000
  0.500000 -0.250000  0.333333      2.000000
 -0.250000 -0.250000  0.333333      2.000000
 
 Following cartesian coordinates:
            Coordinates               Weight
  0.000000  0.000000  0.000000      1.000000
  0.029991  0.017315  0.000000      2.000000
  0.059982  0.034631  0.000000      1.000000
  0.000000  0.034631  0.000000      2.000000
  0.029991  0.051946  0.000000      2.000000
  0.059982  0.069262  0.000000      2.000000
 -0.029991  0.017315  0.000000      2.000000
  0.000000  0.069262  0.000000      1.000000
  0.029991  0.086577  0.000000      2.000000
  0.059982  0.103892  0.000000      1.000000
  0.000000  0.000000  0.033977      2.000000
  0.029991  0.017315  0.033977      2.000000
  0.059982  0.034631  0.033977      2.000000
 -0.029991 -0.017315  0.033977      2.000000
  0.000000  0.034631  0.033977      2.000000
  0.029991  0.051946  0.033977      2.000000
  0.059982  0.069262  0.033977      2.000000
 -0.029991  0.017315  0.033977      2.000000
  0.000000  0.069262  0.033977      2.000000
  0.029991  0.086577  0.033977      2.000000
  0.059982  0.103892  0.033977      2.000000
 -0.029991  0.051946  0.033977      2.000000
  0.000000 -0.034631  0.033977      2.000000
  0.029991 -0.017315  0.033977      2.000000
  0.059982  0.000000  0.033977      2.000000
 -0.029991 -0.051946  0.033977      2.000000
 


--------------------------------------------------------------------------------------------------------




 Dimension of arrays:
   k-points           NKPTS =     26   k-points in BZ     NKDIM =     26   number of bands    NBANDS=    304
   number of dos      NEDOS =    301   number of ions     NIONS =     54
   non local maximal  LDIM  =      6   non local SUM 2l+1 LMDIM =     18
   total plane-waves  NPLWV = 294912
   max r-space proj   IRMAX =   6756   max aug-charges    IRDMAX=  16390
   dimension x,y,z NGX =    64 NGY =   64 NGZ =   72
   dimension x,y,z NGXF=   128 NGYF=  128 NGZF=  144
   support grid    NGXF=   128 NGYF=  128 NGZF=  144
   ions per type =              27  27
   NGX,Y,Z   is equivalent  to a cutoff of  12.76, 12.76, 12.20 a.u.
   NGXF,Y,Z  is equivalent  to a cutoff of  25.53, 25.53, 24.40 a.u.

 SYSTEM =  unknown system                          
 POSCAR =  NiO_Cmmm_scale_0_950_disp_0_15_round_2  

 Startparameter for this run:
   NWRITE =      1    write-flag & timer
   PREC   = accura    normal or accurate (medium, high low for compatibility)
   ISTART =      0    job   : 0-new  1-cont  2-samecut
   ICHARG =      2    charge: 1-file 2-atom 10-const
   ISPIN  =      2    spin polarized calculation?
   LNONCOLLINEAR =      F non collinear calculations
   LSORBIT =      F    spin-orbit coupling
   INIWAV =      1    electr: 0-lowe 1-rand  2-diag
   LASPH  =      F    aspherical Exc in radial PAW
   METAGGA=      F    non-selfconsistent MetaGGA calc.

 Electronic Relaxation 1
   ENCUT  =  500.0 eV  36.75 Ry    6.06 a.u.  15.20 15.20 17.89*2*pi/ulx,y,z
   ENINI  =  500.0     initial cutoff
   ENAUG  =  605.4 eV  augmentation charge cutoff
   NELM   =     80;   NELMIN=  2; NELMDL= -5     # of ELM steps 
   EDIFF  = 0.1E-04   stopping-criterion for ELM
   LREAL  =      T    real-space projection
   NLSPLINE    = F    spline interpolate recip. space projectors
   LCOMPAT=      F    compatible to vasp.4.4
   GGA_COMPAT  = T    GGA compatible to vasp.4.4-vasp.4.6
   LMAXPAW     = -100 max onsite density
   LMAXMIX     =    2 max onsite mixed and CHGCAR
   VOSKOWN=      1    Vosko Wilk Nusair interpolation
   ROPT   =   -0.00025  -0.00025
 Ionic relaxation
   EDIFFG = 0.1E-03   stopping-criterion for IOM
   NSW    =      0    number of steps for IOM
   NBLOCK =      1;   KBLOCK =      1    inner block; outer block 
   IBRION =     -1    ionic relax: 0-MD 1-quasi-New 2-CG
   NFREE  =      0    steps in history (QN), initial steepest desc. (CG)
   ISIF   =      2    stress and relaxation
   IWAVPR =     10    prediction:  0-non 1-charg 2-wave 3-comb
   ISYM   =      2    0-nonsym 1-usesym 2-fastsym
   LCORR  =      T    Harris-Foulkes like correction to forces

   POTIM  = 0.5000    time-step for ionic-motion
   TEIN   =    0.0    initial temperature
   TEBEG  =    0.0;   TEEND  =   0.0 temperature during run
   SMASS  =  -3.00    Nose mass-parameter (am)
   estimated Nose-frequenzy (Omega)   =  0.10E-29 period in steps =****** mass=  -0.159E-26a.u.
   SCALEE = 1.0000    scale energy and forces
   NPACO  =    256;   APACO  = 16.0  distance and # of slots for P.C.
   PSTRESS=    0.0 pullay stress

  Mass of Ions in am
   POMASS =  58.69 16.00
  Ionic Valenz
   ZVAL   =  10.00  6.00
  Atomic Wigner-Seitz radii
   RWIGS  =   1.15  0.73
  virtual crystal weights 
   VCA    =   1.00  1.00
   NELECT =     432.0000    total number of electrons
   NUPDOWN=      -1.0000    fix difference up-down

 DOS related values:
   EMIN   =  10.00;   EMAX   =-10.00  energy-range for DOS
   EFERMI =   0.00
   ISMEAR =     0;   SIGMA  =   0.05  broadening in eV -4-tet -1-fermi 0-gaus

 Electronic relaxation 2 (details)
   IALGO  =     38    algorithm
   LDIAG  =      T    sub-space diagonalisation (order eigenvalues)
   LSUBROT=      F    optimize rotation matrix (better conditioning)
   TURBO    =      0    0=normal 1=particle mesh
   IRESTART =      0    0=no restart 2=restart with 2 vectors
   NREBOOT  =      0    no. of reboots
   NMIN     =      0    reboot dimension
   EREF     =   0.00    reference energy to select bands
   IMIX   =      4    mixing-type and parameters
     AMIX     =   0.40;   BMIX     =  1.00
     AMIX_MAG =   1.60;   BMIX_MAG =  1.00
     AMIN     =   0.10
     WC   =   100.;   INIMIX=   1;  MIXPRE=   1;  MAXMIX= -45

 Intra band minimization:
   WEIMIN = 0.0000     energy-eigenvalue tresh-hold
   EBREAK =  0.82E-08  absolut break condition
   DEPER  =   0.30     relativ break condition  

   TIME   =   0.40     timestep for ELM

  volume/ion in A,a.u.               =      10.93        73.78
  Fermi-wavevector in a.u.,A,eV,Ry     =   1.475248  2.787814 29.611112  2.176355
  Thomas-Fermi vector in A             =   2.589920
 
 Write flags
   LWAVE        =      F    write WAVECAR
   LDOWNSAMPLE  =      F    k-point downsampling of WAVECAR
   LCHARG       =      T    write CHGCAR
   LVTOT        =      F    write LOCPOT, total local potential
   LVHAR        =      F    write LOCPOT, Hartree potential only
   LELF         =      F    write electronic localiz. function (ELF)
   LORBIT       =      0    0 simple, 1 ext, 2 COOP (PROOUT), +10 PAW based schemes


 Dipole corrections
   LMONO  =      F    monopole corrections only (constant potential shift)
   LDIPOL =      F    correct potential (dipole corrections)
   IDIPOL =      0    1-x, 2-y, 3-z, 4-all directions 
   EPSILON=  1.0000000 bulk dielectric constant

 Exchange correlation treatment:
   GGA     =    PS    GGA type
   LEXCH   =    14    internal setting for exchange type
   VOSKOWN=      1    Vosko Wilk Nusair interpolation
   LHFCALC =     F    Hartree Fock is set to
   LHFONE  =     F    Hartree Fock one center treatment
   AEXX    =    0.0000 exact exchange contribution

 Linear response parameters
   LEPSILON=     F    determine dielectric tensor
   LRPA    =     F    only Hartree local field effects (RPA)
   LNABLA  =     F    use nabla operator in PAW spheres
   LVEL    =     F    velocity operator in full k-point grid
   LINTERFAST=   F  fast interpolation
   KINTER  =     0    interpolate to denser k-point grid
   CSHIFT  =0.1000    complex shift for real part using Kramers Kronig
   OMEGAMAX=  -1.0    maximum frequency
   DEG_THRESHOLD= 0.2000000E-02 threshold for treating states as degnerate
   RTIME   =   -0.100 relaxation time in fs
  (WPLASMAI=    0.000 imaginary part of plasma frequency in eV, 0.658/RTIME)
   DFIELD  = 0.0000000 0.0000000 0.0000000 field for delta impulse in time
 
 Orbital magnetization related:
   ORBITALMAG=     F  switch on orbital magnetization
   LCHIMAG   =     F  perturbation theory with respect to B field
   DQ        =  0.001000  dq finite difference perturbation B field
   LLRAUG    =     F  two centre corrections for induced B field



--------------------------------------------------------------------------------------------------------


 Static calculation
 charge density and potential will be updated during run
 spin polarized calculation
 Variant of blocked Davidson
 Davidson routine will perform the subspace rotation
 perform sub-space diagonalisation
    after iterative eigenvector-optimisation
 modified Broyden-mixing scheme, WC =      100.0
 initial mixing is a Kerker type mixing with AMIX =  0.4000 and BMIX =      1.0000
 Hartree-type preconditioning will be used
 using additional bands           88
 real space projection scheme for non local part
 use partial core corrections
 calculate Harris-corrections to forces 
   (improved forces if not selfconsistent)
 use gradient corrections 
 use of overlap-Matrix (Vanderbilt PP)
 Gauss-broadening in eV      SIGMA  =   0.05


--------------------------------------------------------------------------------------------------------


  energy-cutoff  :      500.00
  volume of cell :      590.36
      direct lattice vectors                 reciprocal lattice vectors
     8.335794000  0.000000000  0.000000000     0.119964577  0.069261581  0.000000000
    -4.167897000  7.219009360  0.000000000     0.000000000  0.138523162  0.000000000
     0.000000000  0.000000000  9.810450500     0.000000000  0.000000000  0.101932118

  length of vectors
     8.335794000  8.335793996  9.810450500     0.138523162  0.138523162  0.101932118


 
 k-points in units of 2pi/SCALE and weight: Automatic mesh                          
   0.00000000  0.00000000  0.00000000       0.021
   0.02999114  0.01731540  0.00000000       0.042
   0.05998229  0.03463079  0.00000000       0.021
   0.00000000  0.03463079  0.00000000       0.042
   0.02999114  0.05194619  0.00000000       0.042
   0.05998229  0.06926158  0.00000000       0.042
  -0.02999114  0.01731540  0.00000000       0.042
   0.00000000  0.06926158  0.00000000       0.021
   0.02999114  0.08657698  0.00000000       0.042
   0.05998229  0.10389237  0.00000000       0.021
   0.00000000  0.00000000  0.03397737       0.042
   0.02999114  0.01731540  0.03397737       0.042
   0.05998229  0.03463079  0.03397737       0.042
  -0.02999114 -0.01731540  0.03397737       0.042
   0.00000000  0.03463079  0.03397737       0.042
   0.02999114  0.05194619  0.03397737       0.042
   0.05998229  0.06926158  0.03397737       0.042
  -0.02999114  0.01731540  0.03397737       0.042
   0.00000000  0.06926158  0.03397737       0.042
   0.02999114  0.08657698  0.03397737       0.042
   0.05998229  0.10389237  0.03397737       0.042
  -0.02999114  0.05194619  0.03397737       0.042
   0.00000000 -0.03463079  0.03397737       0.042
   0.02999114 -0.01731540  0.03397737       0.042
   0.05998229  0.00000000  0.03397737       0.042
  -0.02999114 -0.05194619  0.03397737       0.042
 
 k-points in reciprocal lattice and weights: Automatic mesh                          
   0.00000000  0.00000000  0.00000000       0.021
   0.25000000  0.00000000  0.00000000       0.042
   0.50000000  0.00000000  0.00000000       0.021
   0.00000000  0.25000000  0.00000000       0.042
   0.25000000  0.25000000  0.00000000       0.042
   0.50000000  0.25000000  0.00000000       0.042
  -0.25000000  0.25000000  0.00000000       0.042
   0.00000000  0.50000000  0.00000000       0.021
   0.25000000  0.50000000  0.00000000       0.042
   0.50000000  0.50000000  0.00000000       0.021
   0.00000000  0.00000000  0.33333333       0.042
   0.25000000  0.00000000  0.33333333       0.042
   0.50000000  0.00000000  0.33333333       0.042
  -0.25000000 -0.00000000  0.33333333       0.042
   0.00000000  0.25000000  0.33333333       0.042
   0.25000000  0.25000000  0.33333333       0.042
   0.50000000  0.25000000  0.33333333       0.042
  -0.25000000  0.25000000  0.33333333       0.042
   0.00000000  0.50000000  0.33333333       0.042
   0.25000000  0.50000000  0.33333333       0.042
   0.50000000  0.50000000  0.33333333       0.042
  -0.25000000  0.50000000  0.33333333       0.042
   0.00000000 -0.25000000  0.33333333       0.042
   0.25000000 -0.25000000  0.33333333       0.042
   0.50000000 -0.25000000  0.33333333       0.042
  -0.25000000 -0.25000000  0.33333333       0.042
 
 position of ions in fractional coordinates (direct lattice) 
   0.00196335  0.01514759  0.00333044
   0.00455088  0.96853945  0.37593815
   0.00681507  0.02571830  0.70345702
   0.07246635  0.36771786  0.00542496
   0.05524874  0.32642923  0.37479445
   0.02668034  0.32008303  0.71486505
   0.00568542  0.68442018  0.99288246
   0.04852104  0.72161400  0.34893591
   0.03179060  0.68028293  0.70724344
   0.36666573  0.04855115  0.02297732
   0.35066788  0.98424665  0.34839112
   0.34837460  0.97891716  0.66915506
   0.39548433  0.38722596  0.00540542
   0.34927863  0.34898602  0.35356913
   0.34938661  0.36735563  0.70441302
   0.35413478  0.68945960  0.99269931
   0.36779699  0.73630923  0.35134168
   0.34588377  0.68758163  0.67249286
   0.67345741  0.97770828  0.99259291
   0.70868061  0.99069342  0.38663709
   0.70745898  0.00107757  0.70254610
   0.67495737  0.33989905  0.98985469
   0.70668363  0.34444352  0.35226195
   0.69050220  0.31557273  0.71180724
   0.68940354  0.72028508  0.98494369
   0.68265993  0.69938651  0.37182351
   0.72166412  0.72399730  0.71045097
   0.95798537  0.94832849  0.18940555
   0.01960120  0.05467400  0.53551754
   0.00311494  0.00158182  0.87481759
   0.07115582  0.32268819  0.16835326
   0.06357596  0.34711264  0.53448360
   0.07079131  0.35325160  0.87685376
   0.07122659  0.73053681  0.16749710
   0.04066290  0.72707606  0.51320475
   0.06805093  0.69395548  0.88324986
   0.34564763  0.01097812  0.18981186
   0.36856608  0.00922737  0.51321513
   0.36388455  0.01976451  0.88394600
   0.33880627  0.34989217  0.15328655
   0.34847859  0.30668879  0.53780531
   0.34132435  0.36903965  0.86588155
   0.37268744  0.74133553  0.18605558
   0.33546207  0.68164147  0.52887021
   0.34955016  0.70414585  0.87114992
   0.72786984  0.00317262  0.15047963
   0.69550037  0.99876124  0.52928459
   0.69205858  0.98850417  0.87147244
   0.68932720  0.34162219  0.17327157
   0.70335393  0.34433902  0.52409914
   0.65491891  0.27419622  0.88535181
   0.70488860  0.71559964  0.16326761
   0.73609678  0.73085984  0.53219791
   0.69540372  0.71801976  0.86964519
 
 position of ions in cartesian coordinates  (Angst):
  -0.04676751  0.10935059  0.03267312
  -3.99883747  6.99189536  3.68812261
  -0.05038221  0.18566065  6.90123027
  -0.92854560  2.65455867  0.05322130
  -0.89998129  2.35649567  3.67690240
  -1.11167128  2.31068239  7.01314819
  -2.80520033  4.94083569  9.74062423
  -2.60315143  5.20933822  3.42321847
  -2.57034929  4.91096884  6.93837676
   2.85409380  0.35049121  0.22541786
  -1.17914345  7.10528578  3.41787384
  -1.17604699  7.06681214  6.56471259
   1.68275799  2.79538783  0.05302961
   1.45697692  2.51933334  3.46867245
   1.38131438  2.65194373  6.91060906
   0.07839798  4.97721531  9.73882744
  -0.00298109  5.31542322  3.44682016
   0.01744644  4.96365822  6.59745791
   1.53881483  7.05808522  9.73778361
   1.77830744  7.15182507  3.79308403
   5.89274112  0.00777899  6.89229374
   4.20964136  2.45373442  9.71092044
   4.45516405  2.48654099  3.45584842
   4.44060946  2.27812249  6.98314969
   2.74465187  5.19974473  9.66274132
   2.77554161  5.04887776  3.64775614
   2.99809727  5.22654329  6.96984407
   4.03303323  6.84599225  1.85815377
  -0.06448404  0.39469212  5.25366832
   0.01937264  0.01141917  8.58235466
  -0.75179088  2.32948906  1.65162132
  -0.91677363  2.50580940  5.24352490
  -0.88221451  2.55012661  8.60233041
  -2.45107200  5.27375207  1.64322201
  -2.69142057  5.24876888  5.03476980
  -2.32507643  5.00967111  8.66507903
   2.83549177  0.07925115  1.86213986
   3.03383219  0.06661247  5.03487163
   2.95089021  0.14268018  8.67190848
   1.36590475  2.52587485  1.50381011
   1.62659845  2.21398925  5.27611237
   1.30709022  2.66410069  8.49468809
   0.01683559  5.35170813  1.82528906
  -0.04466873  4.92077615  5.18845502
  -0.02102925  5.08323548  8.54637317
   6.05414989  0.02290317  1.47627296
   1.63481384  7.21006674  5.19252027
   1.64887419  7.13602086  8.54953723
   4.32224344  2.46617379  1.69987216
   4.42784390  2.48578661  5.14164867
   4.31644752  1.97942508  8.68570011
   2.89326057  5.16592050  1.60172881
   3.08980259  5.27608403  5.22110125
   2.80410975  5.18339137  8.53161109
 


--------------------------------------------------------------------------------------------------------


 k-point  1 :   0.0000 0.0000 0.0000  plane waves:   14975
 k-point  2 :   0.2500 0.0000 0.0000  plane waves:   14982
 k-point  3 :   0.5000 0.0000 0.0000  plane waves:   15010
 k-point  4 :   0.0000 0.2500 0.0000  plane waves:   14982
 k-point  5 :   0.2500 0.2500 0.0000  plane waves:   14973
 k-point  6 :   0.5000 0.2500 0.0000  plane waves:   14973
 k-point  7 :  -0.2500 0.2500 0.0000  plane waves:   14982
 k-point  8 :   0.0000 0.5000 0.0000  plane waves:   15010
 k-point  9 :   0.2500 0.5000 0.0000  plane waves:   14973
 k-point 10 :   0.5000 0.5000 0.0000  plane waves:   15010
 k-point 11 :   0.0000 0.0000 0.3333  plane waves:   14988
 k-point 12 :   0.2500 0.0000 0.3333  plane waves:   14984
 k-point 13 :   0.5000 0.0000 0.3333  plane waves:   14996
 k-point 14 :  -0.2500-0.0000 0.3333  plane waves:   14984
 k-point 15 :   0.0000 0.2500 0.3333  plane waves:   14984
 k-point 16 :   0.2500 0.2500 0.3333  plane waves:   14986
 k-point 17 :   0.5000 0.2500 0.3333  plane waves:   14986
 k-point 18 :  -0.2500 0.2500 0.3333  plane waves:   14984
 k-point 19 :   0.0000 0.5000 0.3333  plane waves:   14996
 k-point 20 :   0.2500 0.5000 0.3333  plane waves:   14986
 k-point 21 :   0.5000 0.5000 0.3333  plane waves:   14996
 k-point 22 :  -0.2500 0.5000 0.3333  plane waves:   14986
 k-point 23 :   0.0000-0.2500 0.3333  plane waves:   14984
 k-point 24 :   0.2500-0.2500 0.3333  plane waves:   14984
 k-point 25 :   0.5000-0.2500 0.3333  plane waves:   14986
 k-point 26 :  -0.2500-0.2500 0.3333  plane waves:   14986

 maximum and minimum number of plane-waves per node :     15010    14973

 maximum number of plane-waves:     15010
 maximum index in each direction: 
   IXMAX=   15   IYMAX=   15   IZMAX=   17
   IXMIN=  -15   IYMIN=  -15   IZMIN=  -18

 The following grids will avoid any aliasing or wrap around errors in the Hartre
 e energy
  - symmetry arguments have not been applied
  - exchange correlation energies might require even more grid points
  - we recommend to set PREC=Normal or Accurate and rely on VASP defaults
 NGX is ok and might be reduce to    64
 NGY is ok and might be reduce to    64
 NGZ is ok and might be reduce to    72

 serial   3D FFT for wavefunctions
 parallel 3D FFT for charge:
    minimum data exchange during FFTs selected (reduces bandwidth)


 total amount of memory used by VASP MPI-rank0   361316. kBytes
=======================================================================

   base      :      30000. kBytes
   nonlr-proj:      39134. kBytes
   fftplans  :       6224. kBytes
   grid      :      35651. kBytes
   one-center:       1679. kBytes
   wavefun   :     248628. kBytes
 
     INWAV:  cpu time    0.0000: real time    0.0000
 Broyden mixing: mesh for mixing (old mesh)
   NGX = 31   NGY = 31   NGZ = 35
  (NGX  =128   NGY  =128   NGZ  =144)
  gives a total of  33635 points

 initial charge density was supplied:
 charge density of overlapping atoms calculated
 number of electron     432.0000000 magnetization      67.5000000
 keeping initial charge density in first step


--------------------------------------------------------------------------------------------------------


 Maximum index for non-local projection operator         6531
 Maximum index for augmentation-charges         1072 (set IRDMAX)


--------------------------------------------------------------------------------------------------------


 First call to EWALD:  gamma=   0.211
 Maximum number of real-space cells 3x 3x 2
 Maximum number of reciprocal cells 3x 3x 3

    FEWALD:  cpu time    0.0018: real time    0.0018


--------------------------------------- Iteration      1(   1)  ---------------------------------------


    POTLOK:  cpu time    0.1493: real time    0.1521
    SETDIJ:  cpu time    0.0184: real time    0.0184
     EDDAV:  cpu time   73.0491: real time   73.2372
    --------------------------------------------
      LOOP:  cpu time   73.2190: real time   73.4100

 eigenvalue-minimisations  : 31616
 total energy-change (2. order) : 0.5316075E+04  (-0.1797864E+05)
 number of electron     432.0000000 magnetization      67.5000000
 augmentation part      432.0000000 magnetization      67.5000000

 Free energy of the ion-electron system (eV)
  ---------------------------------------------------
  alpha Z        PSCENC =      1465.19282686
  Ewald energy   TEWEN  =    -29047.37346412
  -Hartree energ DENC   =    -13191.50382197
  -exchange      EXHF   =         0.00000000
  -V(xc)+E(xc)   XCENC  =      1652.85779096
  PAW double counting   =     35307.98069315   -37155.18892105
  entropy T*S    EENTRO =        -0.01203938
  eigenvalues    EBANDS =      5575.64659033
  atomic energy  EATOM  =     40708.47505058
  Solvation  Ediel_sol  =         0.00000000
  ---------------------------------------------------
  free energy    TOTEN  =      5316.07470536 eV

  energy without entropy =     5316.08674474  energy(sigma->0) =     5316.08072505


--------------------------------------------------------------------------------------------------------




--------------------------------------- Iteration      1(   2)  ---------------------------------------


     EDDAV:  cpu time   72.8033: real time   72.9757
    --------------------------------------------
      LOOP:  cpu time   72.8033: real time   72.9757

 eigenvalue-minimisations  : 31616
 total energy-change (2. order) :-0.4420356E+04  (-0.3972277E+04)
 number of electron     432.0000000 magnetization      67.5000000
 augmentation part      432.0000000 magnetization      67.5000000

 Free energy of the ion-electron system (eV)
  ---------------------------------------------------
  alpha Z        PSCENC =      1465.19282686
  Ewald energy   TEWEN  =    -29047.37346412
  -Hartree energ DENC   =    -13191.50382197
  -exchange      EXHF   =         0.00000000
  -V(xc)+E(xc)   XCENC  =      1652.85779096
  PAW double counting   =     35307.98069315   -37155.18892105
  entropy T*S    EENTRO =        -0.03061486
  eigenvalues    EBANDS =      1155.30906364
  atomic energy  EATOM  =     40708.47505058
  Solvation  Ediel_sol  =         0.00000000
  ---------------------------------------------------
  free energy    TOTEN  =       895.71860320 eV

  energy without entropy =      895.74921806  energy(sigma->0) =      895.73391063


--------------------------------------------------------------------------------------------------------




--------------------------------------- Iteration      1(   3)  ---------------------------------------


     EDDAV:  cpu time   73.8623: real time   74.0373
    --------------------------------------------
      LOOP:  cpu time   73.8624: real time   74.0374

 eigenvalue-minimisations  : 32224
 total energy-change (2. order) :-0.1101968E+04  (-0.9682984E+03)
 number of electron     432.0000000 magnetization      67.5000000
 augmentation part      432.0000000 magnetization      67.5000000

 Free energy of the ion-electron system (eV)
  ---------------------------------------------------
  alpha Z        PSCENC =      1465.19282686
  Ewald energy   TEWEN  =    -29047.37346412
  -Hartree energ DENC   =    -13191.50382197
  -exchange      EXHF   =         0.00000000
  -V(xc)+E(xc)   XCENC  =      1652.85779096
  PAW double counting   =     35307.98069315   -37155.18892105
  entropy T*S    EENTRO =        -0.05670087
  eigenvalues    EBANDS =        53.36689393
  atomic energy  EATOM  =     40708.47505058
  Solvation  Ediel_sol  =         0.00000000
  ---------------------------------------------------
  free energy    TOTEN  =      -206.24965252 eV

  energy without entropy =     -206.19295165  energy(sigma->0) =     -206.22130209


--------------------------------------------------------------------------------------------------------




--------------------------------------- Iteration      1(   4)  ---------------------------------------


     EDDAV:  cpu time   77.9315: real time   78.1160
    --------------------------------------------
      LOOP:  cpu time   77.9314: real time   78.1160

 eigenvalue-minimisations  : 34560
 total energy-change (2. order) :-0.1312485E+03  (-0.1266670E+03)
 number of electron     432.0000000 magnetization      67.5000000
 augmentation part      432.0000000 magnetization      67.5000000

 Free energy of the ion-electron system (eV)
  ---------------------------------------------------
  alpha Z        PSCENC =      1465.19282686
  Ewald energy   TEWEN  =    -29047.37346412
  -Hartree energ DENC   =    -13191.50382197
  -exchange      EXHF   =         0.00000000
  -V(xc)+E(xc)   XCENC  =      1652.85779096
  PAW double counting   =     35307.98069315   -37155.18892105
  entropy T*S    EENTRO =        -0.04996322
  eigenvalues    EBANDS =       -77.88832823
  atomic energy  EATOM  =     40708.47505058
  Solvation  Ediel_sol  =         0.00000000
  ---------------------------------------------------
  free energy    TOTEN  =      -337.49813704 eV

  energy without entropy =     -337.44817382  energy(sigma->0) =     -337.47315543


--------------------------------------------------------------------------------------------------------




--------------------------------------- Iteration      1(   5)  ---------------------------------------


     EDDAV:  cpu time   78.7853: real time   78.9742
    CHARGE:  cpu time    2.8782: real time    2.8850
    MIXING:  cpu time    0.0032: real time    0.0032
    --------------------------------------------
      LOOP:  cpu time   81.6644: real time   81.8602

 eigenvalue-minimisations  : 34480
 total energy-change (2. order) :-0.3186363E+01  (-0.3175278E+01)
 number of electron     432.0000022 magnetization      59.9119667
 augmentation part      160.8790673 magnetization      48.2387796

 Broyden mixing:
  rms(total) = 0.19571E+02    rms(broyden)= 0.19570E+02
  rms(prec ) = 0.21102E+02
  weight for this iteration     100.00

 Free energy of the ion-electron system (eV)
  ---------------------------------------------------
  alpha Z        PSCENC =      1465.19282686
  Ewald energy   TEWEN  =    -29047.37346412
  -Hartree energ DENC   =    -13191.50382197
  -exchange      EXHF   =         0.00000000
  -V(xc)+E(xc)   XCENC  =      1652.85779096
  PAW double counting   =     35307.98069315   -37155.18892105
  entropy T*S    EENTRO =        -0.05024248
  eigenvalues    EBANDS =       -81.07441238
  atomic energy  EATOM  =     40708.47505058
  Solvation  Ediel_sol  =         0.00000000
  ---------------------------------------------------
  free energy    TOTEN  =      -340.68450044 eV

  energy without entropy =     -340.63425796  energy(sigma->0) =     -340.65937920


--------------------------------------------------------------------------------------------------------




--------------------------------------- Iteration      1(   6)  ---------------------------------------


    POTLOK:  cpu time    0.1292: real time    0.1295
    SETDIJ:  cpu time    0.0223: real time    0.0224
     EDDAV:  cpu time  101.1482: real time  101.4091
    CHARGE:  cpu time    2.6862: real time    2.6926
    MIXING:  cpu time    0.0088: real time    0.0417
    --------------------------------------------
      LOOP:  cpu time  103.9948: real time  104.2953

 eigenvalue-minimisations  : 44640
 total energy-change (2. order) :-0.1044443E+03  (-0.6806991E+02)
 number of electron     432.0000017 magnetization      49.3897847
 augmentation part      200.5221933 magnetization      44.4032025

 Broyden mixing:
  rms(total) = 0.18764E+02    rms(broyden)= 0.18763E+02
  rms(prec ) = 0.22620E+02
  weight for this iteration     100.00

 eigenvalues of (default mixing * dielectric matrix)
  average eigenvalue GAMMA=   0.4492
  0.4492

 Free energy of the ion-electron system (eV)
  ---------------------------------------------------
  alpha Z        PSCENC =      1465.19282686
  Ewald energy   TEWEN  =    -29047.37346412
  -Hartree energ DENC   =    -12522.23442514
  -exchange      EXHF   =         0.00000000
  -V(xc)+E(xc)   XCENC  =      1631.41914251
  PAW double counting   =     41388.92170008   -43053.38285836
  entropy T*S    EENTRO =        -0.03679892
  eigenvalues    EBANDS =     -1016.10998326
  atomic energy  EATOM  =     40708.47505058
  Solvation  Ediel_sol  =         0.00000000
  ---------------------------------------------------
  free energy    TOTEN  =      -445.12880977 eV

  energy without entropy =     -445.09201085  energy(sigma->0) =     -445.11041031


--------------------------------------------------------------------------------------------------------




--------------------------------------- Iteration      1(   7)  ---------------------------------------


    POTLOK:  cpu time    0.1392: real time    0.1395
    SETDIJ:  cpu time    0.0189: real time    0.0189
     EDDAV:  cpu time   80.7937: real time   80.9848
    CHARGE:  cpu time    2.6761: real time    2.6825
    MIXING:  cpu time    0.0034: real time    0.0210
    --------------------------------------------
      LOOP:  cpu time   83.6313: real time   83.8466

 eigenvalue-minimisations  : 36096
 total energy-change (2. order) : 0.1560429E+03  (-0.4597218E+02)
 number of electron     432.0000037 magnetization      39.3439121
 augmentation part      184.8544216 magnetization      33.6444896

 Broyden mixing:
  rms(total) = 0.15084E+02    rms(broyden)= 0.15083E+02
  rms(prec ) = 0.18050E+02
  weight for this iteration     100.00

 eigenvalues of (default mixing * dielectric matrix)
  average eigenvalue GAMMA=   0.5515
  0.7675  0.3356

 Free energy of the ion-electron system (eV)
  ---------------------------------------------------
  alpha Z        PSCENC =      1465.19282686
  Ewald energy   TEWEN  =    -29047.37346412
  -Hartree energ DENC   =    -12756.66351548
  -exchange      EXHF   =         0.00000000
  -V(xc)+E(xc)   XCENC  =      1628.89269098
  PAW double counting   =     44112.81255609   -45973.88208402
  entropy T*S    EENTRO =        -0.05143342
  eigenvalues    EBANDS =      -426.48856644
  atomic energy  EATOM  =     40708.47505058
  Solvation  Ediel_sol  =         0.00000000
  ---------------------------------------------------
  free energy    TOTEN  =      -289.08593898 eV

  energy without entropy =     -289.03450556  energy(sigma->0) =     -289.06022227


--------------------------------------------------------------------------------------------------------




--------------------------------------- Iteration      1(   8)  ---------------------------------------


    POTLOK:  cpu time    0.1241: real time    0.1244
    SETDIJ:  cpu time    0.0188: real time    0.0188
     EDDAV:  cpu time   89.2233: real time   89.4343
    CHARGE:  cpu time    2.6685: real time    2.6748
    MIXING:  cpu time    0.0032: real time    0.0057
    --------------------------------------------
      LOOP:  cpu time   92.0379: real time   92.2581

 eigenvalue-minimisations  : 40944
 total energy-change (2. order) : 0.4037267E+00  (-0.1853527E+02)
 number of electron     432.0000027 magnetization      28.2161131
 augmentation part      174.1316011 magnetization      21.9856428

 Broyden mixing:
  rms(total) = 0.11578E+02    rms(broyden)= 0.11577E+02
  rms(prec ) = 0.16209E+02
  weight for this iteration     100.00

 eigenvalues of (default mixing * dielectric matrix)
  average eigenvalue GAMMA=   0.6723
  1.3643  0.3950  0.2577

 Free energy of the ion-electron system (eV)
  ---------------------------------------------------
  alpha Z        PSCENC =      1465.19282686
  Ewald energy   TEWEN  =    -29047.37346412
  -Hartree energ DENC   =    -12888.10094419
  -exchange      EXHF   =         0.00000000
  -V(xc)+E(xc)   XCENC  =      1630.47239246
  PAW double counting   =     46707.18675370   -48686.29273253
  entropy T*S    EENTRO =        -0.04531285
  eigenvalues    EBANDS =      -178.19678223
  atomic energy  EATOM  =     40708.47505058
  Solvation  Ediel_sol  =         0.00000000
  ---------------------------------------------------
  free energy    TOTEN  =      -288.68221231 eV

  energy without entropy =     -288.63689947  energy(sigma->0) =     -288.65955589


--------------------------------------------------------------------------------------------------------




--------------------------------------- Iteration      1(   9)  ---------------------------------------


    POTLOK:  cpu time    0.1241: real time    0.1244
    SETDIJ:  cpu time    0.0188: real time    0.0188
     EDDAV:  cpu time   86.6338: real time   86.8386
    CHARGE:  cpu time    2.6757: real time    2.6820
    MIXING:  cpu time    0.0030: real time    0.0031
    --------------------------------------------
      LOOP:  cpu time   89.4553: real time   89.6668

 eigenvalue-minimisations  : 39264
 total energy-change (2. order) :-0.8124030E+02  (-0.2994975E+02)
 number of electron     432.0000035 magnetization      18.5168921
 augmentation part      166.9332716 magnetization      13.3777628

 Broyden mixing:
  rms(total) = 0.14761E+02    rms(broyden)= 0.14761E+02
  rms(prec ) = 0.20430E+02
  weight for this iteration     100.00

 eigenvalues of (default mixing * dielectric matrix)
  average eigenvalue GAMMA=   0.6708
  1.8079  0.4047  0.3048  0.1658

 Free energy of the ion-electron system (eV)
  ---------------------------------------------------
  alpha Z        PSCENC =      1465.19282686
  Ewald energy   TEWEN  =    -29047.37346412
  -Hartree energ DENC   =    -12903.75274173
  -exchange      EXHF   =         0.00000000
  -V(xc)+E(xc)   XCENC  =      1629.07627116
  PAW double counting   =     49313.32915063   -51345.03920158
  entropy T*S    EENTRO =        -0.06037532
  eigenvalues    EBANDS =      -189.77003220
  atomic energy  EATOM  =     40708.47505058
  Solvation  Ediel_sol  =         0.00000000
  ---------------------------------------------------
  free energy    TOTEN  =      -369.92251571 eV

  energy without entropy =     -369.86214039  energy(sigma->0) =     -369.89232805


--------------------------------------------------------------------------------------------------------




--------------------------------------- Iteration      1(  10)  ---------------------------------------


    POTLOK:  cpu time    0.1235: real time    0.1238
    SETDIJ:  cpu time    0.0198: real time    0.0199
     EDDAV:  cpu time   86.7514: real time   86.9566
    CHARGE:  cpu time    2.6742: real time    2.6806
    MIXING:  cpu time    0.0033: real time    0.0033
    --------------------------------------------
      LOOP:  cpu time   89.5723: real time   89.7841

 eigenvalue-minimisations  : 39568
 total energy-change (2. order) :-0.6036249E+01  (-0.3529383E+02)
 number of electron     432.0000021 magnetization      13.7291559
 augmentation part      172.9252094 magnetization       9.1533747

 Broyden mixing:
  rms(total) = 0.12513E+02    rms(broyden)= 0.12513E+02
  rms(prec ) = 0.18502E+02
  weight for this iteration     100.00

 eigenvalues of (default mixing * dielectric matrix)
  average eigenvalue GAMMA=   0.5993
  1.9169  0.4459  0.2145  0.2145  0.2046

 Free energy of the ion-electron system (eV)
  ---------------------------------------------------
  alpha Z        PSCENC =      1465.19282686
  Ewald energy   TEWEN  =    -29047.37346412
  -Hartree energ DENC   =    -12782.91740306
  -exchange      EXHF   =         0.00000000
  -V(xc)+E(xc)   XCENC  =      1624.83919705
  PAW double counting   =     51391.16196146   -53430.87260208
  entropy T*S    EENTRO =        -0.04365724
  eigenvalues    EBANDS =      -304.42067376
  atomic energy  EATOM  =     40708.47505058
  Solvation  Ediel_sol  =         0.00000000
  ---------------------------------------------------
  free energy    TOTEN  =      -375.95876430 eV

  energy without entropy =     -375.91510706  energy(sigma->0) =     -375.93693568


--------------------------------------------------------------------------------------------------------




--------------------------------------- Iteration      1(  11)  ---------------------------------------


    POTLOK:  cpu time    0.1245: real time    0.1248
    SETDIJ:  cpu time    0.0191: real time    0.0191
     EDDAV:  cpu time   93.9307: real time   94.1681
    CHARGE:  cpu time    2.6741: real time    2.7264
    MIXING:  cpu time    0.0033: real time    0.0033
    --------------------------------------------
      LOOP:  cpu time   96.7517: real time   97.0417

 eigenvalue-minimisations  : 38864
 total energy-change (2. order) : 0.7628067E+02  (-0.2063664E+02)
 number of electron     432.0000025 magnetization      12.0570557
 augmentation part      181.7665097 magnetization       8.7106983

 Broyden mixing:
  rms(total) = 0.80288E+01    rms(broyden)= 0.80276E+01
  rms(prec ) = 0.11166E+02
  weight for this iteration     100.00

 eigenvalues of (default mixing * dielectric matrix)
  average eigenvalue GAMMA=   0.5412
  1.8924  0.4760  0.2746  0.2746  0.1766  0.1527

 Free energy of the ion-electron system (eV)
  ---------------------------------------------------
  alpha Z        PSCENC =      1465.19282686
  Ewald energy   TEWEN  =    -29047.37346412
  -Hartree energ DENC   =    -12686.89806557
  -exchange      EXHF   =         0.00000000
  -V(xc)+E(xc)   XCENC  =      1621.92460026
  PAW double counting   =     52285.64024743   -54318.16638732
  entropy T*S    EENTRO =        -0.04529986
  eigenvalues    EBANDS =      -328.42760181
  atomic energy  EATOM  =     40708.47505058
  Solvation  Ediel_sol  =         0.00000000
  ---------------------------------------------------
  free energy    TOTEN  =      -299.67809354 eV

  energy without entropy =     -299.63279368  energy(sigma->0) =     -299.65544361


--------------------------------------------------------------------------------------------------------




--------------------------------------- Iteration      1(  12)  ---------------------------------------


    POTLOK:  cpu time    0.1236: real time    0.1239
    SETDIJ:  cpu time    0.0190: real time    0.0191
     EDDAV:  cpu time   81.9935: real time   82.1875
    CHARGE:  cpu time    2.6736: real time    2.6800
    MIXING:  cpu time    0.0035: real time    0.0035
    --------------------------------------------
      LOOP:  cpu time   84.8132: real time   85.0139

 eigenvalue-minimisations  : 36528
 total energy-change (2. order) : 0.3925833E+02  (-0.8532906E+01)
 number of electron     432.0000027 magnetization      11.6359598
 augmentation part      183.6874398 magnetization       8.9020370

 Broyden mixing:
  rms(total) = 0.57734E+01    rms(broyden)= 0.57724E+01
  rms(prec ) = 0.79154E+01
  weight for this iteration     100.00

 eigenvalues of (default mixing * dielectric matrix)
  average eigenvalue GAMMA=   0.4981
  1.7852  0.5095  0.3255  0.3255  0.2415  0.1496  0.1496

 Free energy of the ion-electron system (eV)
  ---------------------------------------------------
  alpha Z        PSCENC =      1465.19282686
  Ewald energy   TEWEN  =    -29047.37346412
  -Hartree energ DENC   =    -12678.73104480
  -exchange      EXHF   =         0.00000000
  -V(xc)+E(xc)   XCENC  =      1620.81595869
  PAW double counting   =     52490.52698132   -54525.20499875
  entropy T*S    EENTRO =        -0.04865837
  eigenvalues    EBANDS =      -294.07241379
  atomic energy  EATOM  =     40708.47505058
  Solvation  Ediel_sol  =         0.00000000
  ---------------------------------------------------
  free energy    TOTEN  =      -260.41976238 eV

  energy without entropy =     -260.37110401  energy(sigma->0) =     -260.39543320


--------------------------------------------------------------------------------------------------------




--------------------------------------- Iteration      1(  13)  ---------------------------------------


    POTLOK:  cpu time    0.1252: real time    0.1255
    SETDIJ:  cpu time    0.0192: real time    0.0192
     EDDAV:  cpu time   86.9181: real time   87.1237
    CHARGE:  cpu time    2.6872: real time    2.6935
    MIXING:  cpu time    0.0036: real time    0.0037
    --------------------------------------------
      LOOP:  cpu time   89.7532: real time   89.9655

 eigenvalue-minimisations  : 39616
 total energy-change (2. order) : 0.1613138E+02  (-0.4453495E+01)
 number of electron     432.0000030 magnetization      11.0652113
 augmentation part      181.6539596 magnetization       8.6933541

 Broyden mixing:
  rms(total) = 0.47252E+01    rms(broyden)= 0.47245E+01
  rms(prec ) = 0.62961E+01
  weight for this iteration     100.00

 eigenvalues of (default mixing * dielectric matrix)
  average eigenvalue GAMMA=   0.4741
  1.7677  0.4393  0.4393  0.3413  0.3413  0.1647  0.1647  0.1341

 Free energy of the ion-electron system (eV)
  ---------------------------------------------------
  alpha Z        PSCENC =      1465.19282686
  Ewald energy   TEWEN  =    -29047.37346412
  -Hartree energ DENC   =    -12696.96729970
  -exchange      EXHF   =         0.00000000
  -V(xc)+E(xc)   XCENC  =      1620.69374317
  PAW double counting   =     52387.16696613   -54423.58567876
  entropy T*S    EENTRO =        -0.05571872
  eigenvalues    EBANDS =      -257.83480506
  atomic energy  EATOM  =     40708.47505058
  Solvation  Ediel_sol  =         0.00000000
  ---------------------------------------------------
  free energy    TOTEN  =      -244.28837962 eV

  energy without entropy =     -244.23266090  energy(sigma->0) =     -244.26052026


--------------------------------------------------------------------------------------------------------




--------------------------------------- Iteration      1(  14)  ---------------------------------------


    POTLOK:  cpu time    0.1246: real time    0.1249
    SETDIJ:  cpu time    0.0197: real time    0.0198
     EDDAV:  cpu time   88.2017: real time   88.4104
    CHARGE:  cpu time    2.6979: real time    2.7043
    MIXING:  cpu time    0.0037: real time    0.0037
    --------------------------------------------
      LOOP:  cpu time   91.0475: real time   91.2629

 eigenvalue-minimisations  : 40368
 total energy-change (2. order) : 0.1909671E+01  (-0.3070037E+01)
 number of electron     432.0000026 magnetization      10.2365049
 augmentation part      180.8640596 magnetization       7.8346036

 Broyden mixing:
  rms(total) = 0.47087E+01    rms(broyden)= 0.47082E+01
  rms(prec ) = 0.64031E+01
  weight for this iteration     100.00

 eigenvalues of (default mixing * dielectric matrix)
  average eigenvalue GAMMA=   0.4549
  1.7984  0.4145  0.4145  0.4288  0.4288  0.1774  0.1774  0.1272  0.1272

 Free energy of the ion-electron system (eV)
  ---------------------------------------------------
  alpha Z        PSCENC =      1465.19282686
  Ewald energy   TEWEN  =    -29047.37346412
  -Hartree energ DENC   =    -12703.28899635
  -exchange      EXHF   =         0.00000000
  -V(xc)+E(xc)   XCENC  =      1620.64897954
  PAW double counting   =     52336.45037983   -54370.63593519
  entropy T*S    EENTRO =        -0.06890070
  eigenvalues    EBANDS =      -251.77864895
  atomic energy  EATOM  =     40708.47505058
  Solvation  Ediel_sol  =         0.00000000
  ---------------------------------------------------
  free energy    TOTEN  =      -242.37870849 eV

  energy without entropy =     -242.30980779  energy(sigma->0) =     -242.34425814


--------------------------------------------------------------------------------------------------------




--------------------------------------- Iteration      1(  15)  ---------------------------------------


    POTLOK:  cpu time    0.1245: real time    0.1248
    SETDIJ:  cpu time    0.0192: real time    0.0193
     EDDAV:  cpu time   83.9382: real time   84.1367
    CHARGE:  cpu time    2.6962: real time    2.7026
    MIXING:  cpu time    0.0039: real time    0.0039
    --------------------------------------------
      LOOP:  cpu time   86.7820: real time   86.9872

 eigenvalue-minimisations  : 37920
 total energy-change (2. order) : 0.4050712E+01  (-0.2356087E+01)
 number of electron     432.0000029 magnetization       9.5159932
 augmentation part      181.5019584 magnetization       7.1676586

 Broyden mixing:
  rms(total) = 0.33301E+01    rms(broyden)= 0.33298E+01
  rms(prec ) = 0.46294E+01
  weight for this iteration     100.00

 eigenvalues of (default mixing * dielectric matrix)
  average eigenvalue GAMMA=   0.4567
  1.7992  0.5880  0.5880  0.3636  0.3636  0.2705  0.1656  0.1656  0.1426  0.1202

 Free energy of the ion-electron system (eV)
  ---------------------------------------------------
  alpha Z        PSCENC =      1465.19282686
  Ewald energy   TEWEN  =    -29047.37346412
  -Hartree energ DENC   =    -12703.21326374
  -exchange      EXHF   =         0.00000000
  -V(xc)+E(xc)   XCENC  =      1620.56488656
  PAW double counting   =     52388.57569949   -54419.03967292
  entropy T*S    EENTRO =        -0.06106107
  eigenvalues    EBANDS =      -251.44899771
  atomic energy  EATOM  =     40708.47505058
  Solvation  Ediel_sol  =         0.00000000
  ---------------------------------------------------
  free energy    TOTEN  =      -238.32799606 eV

  energy without entropy =     -238.26693499  energy(sigma->0) =     -238.29746553


--------------------------------------------------------------------------------------------------------




--------------------------------------- Iteration      1(  16)  ---------------------------------------


    POTLOK:  cpu time    0.1255: real time    0.1258
    SETDIJ:  cpu time    0.0193: real time    0.0194
     EDDAV:  cpu time   84.7175: real time   84.9179
    CHARGE:  cpu time    2.6303: real time    2.6366
    MIXING:  cpu time    0.0076: real time    0.0572
    --------------------------------------------
      LOOP:  cpu time   87.5003: real time   87.7569

 eigenvalue-minimisations  : 38512
 total energy-change (2. order) : 0.3582885E+01  (-0.8714751E+00)
 number of electron     432.0000025 magnetization       8.6588437
 augmentation part      182.6122380 magnetization       6.4172540

 Broyden mixing:
  rms(total) = 0.28968E+01    rms(broyden)= 0.28965E+01
  rms(prec ) = 0.38810E+01
  weight for this iteration     100.00

 eigenvalues of (default mixing * dielectric matrix)
  average eigenvalue GAMMA=   0.4855
  1.7678  0.8525  0.8525  0.4798  0.3224  0.3224  0.1692  0.1692  0.1680  0.1247
  0.1119

 Free energy of the ion-electron system (eV)
  ---------------------------------------------------
  alpha Z        PSCENC =      1465.19282686
  Ewald energy   TEWEN  =    -29047.37346412
  -Hartree energ DENC   =    -12701.11914151
  -exchange      EXHF   =         0.00000000
  -V(xc)+E(xc)   XCENC  =      1620.52957004
  PAW double counting   =     52401.50037094   -54425.88327112
  entropy T*S    EENTRO =        -0.06585012
  eigenvalues    EBANDS =      -256.00120305
  atomic energy  EATOM  =     40708.47505058
  Solvation  Ediel_sol  =         0.00000000
  ---------------------------------------------------
  free energy    TOTEN  =      -234.74511150 eV

  energy without entropy =     -234.67926137  energy(sigma->0) =     -234.71218644


--------------------------------------------------------------------------------------------------------




--------------------------------------- Iteration      1(  17)  ---------------------------------------


    POTLOK:  cpu time    0.1378: real time    0.1381
    SETDIJ:  cpu time    0.0189: real time    0.0190
     EDDAV:  cpu time   95.0912: real time   95.3287
    CHARGE:  cpu time    2.6243: real time    2.6305
    MIXING:  cpu time    0.0047: real time    0.0159
    --------------------------------------------
      LOOP:  cpu time   97.8768: real time   98.1321

 eigenvalue-minimisations  : 40656
 total energy-change (2. order) : 0.1271743E+01  (-0.1118026E+01)
 number of electron     432.0000026 magnetization       7.3946660
 augmentation part      182.5150624 magnetization       5.4723005

 Broyden mixing:
  rms(total) = 0.30020E+01    rms(broyden)= 0.30017E+01
  rms(prec ) = 0.38966E+01
  weight for this iteration     100.00

 eigenvalues of (default mixing * dielectric matrix)
  average eigenvalue GAMMA=   0.4955
  1.7688  1.0404  1.0404  0.5225  0.3195  0.3195  0.2332  0.1626  0.1626  0.1348
  0.1207  0.1207

 Free energy of the ion-electron system (eV)
  ---------------------------------------------------
  alpha Z        PSCENC =      1465.19282686
  Ewald energy   TEWEN  =    -29047.37346412
  -Hartree energ DENC   =    -12705.67871186
  -exchange      EXHF   =         0.00000000
  -V(xc)+E(xc)   XCENC  =      1620.64544308
  PAW double counting   =     52404.90247264   -54422.59627434
  entropy T*S    EENTRO =        -0.06896831
  eigenvalues    EBANDS =      -256.97174257
  atomic energy  EATOM  =     40708.47505058
  Solvation  Ediel_sol  =         0.00000000
  ---------------------------------------------------
  free energy    TOTEN  =      -233.47336803 eV

  energy without entropy =     -233.40439972  energy(sigma->0) =     -233.43888388


--------------------------------------------------------------------------------------------------------




--------------------------------------- Iteration      1(  18)  ---------------------------------------


    POTLOK:  cpu time    0.1268: real time    0.1271
    SETDIJ:  cpu time    0.0187: real time    0.0188
     EDDAV:  cpu time   96.3883: real time   96.6166
    CHARGE:  cpu time    2.9688: real time    2.9759
    MIXING:  cpu time    0.0047: real time    0.0047
    --------------------------------------------
      LOOP:  cpu time   99.5073: real time   99.7431

 eigenvalue-minimisations  : 43888
 total energy-change (2. order) : 0.1585877E+01  (-0.8490721E+00)
 number of electron     432.0000023 magnetization       5.9828564
 augmentation part      181.7476106 magnetization       4.1584181

 Broyden mixing:
  rms(total) = 0.22277E+01    rms(broyden)= 0.22274E+01
  rms(prec ) = 0.30139E+01
  weight for this iteration     100.00

 eigenvalues of (default mixing * dielectric matrix)
  average eigenvalue GAMMA=   0.5183
  1.8066  1.2347  1.2347  0.4592  0.4592  0.3253  0.3253  0.1911  0.1682  0.1682
  0.1275  0.1275  0.1101

 Free energy of the ion-electron system (eV)
  ---------------------------------------------------
  alpha Z        PSCENC =      1465.19282686
  Ewald energy   TEWEN  =    -29047.37346412
  -Hartree energ DENC   =    -12718.06587170
  -exchange      EXHF   =         0.00000000
  -V(xc)+E(xc)   XCENC  =      1620.86585636
  PAW double counting   =     52464.53445029   -54476.78324323
  entropy T*S    EENTRO =        -0.06790821
  eigenvalues    EBANDS =      -248.66518833
  atomic energy  EATOM  =     40708.47505058
  Solvation  Ediel_sol  =         0.00000000
  ---------------------------------------------------
  free energy    TOTEN  =      -231.88749150 eV

  energy without entropy =     -231.81958329  energy(sigma->0) =     -231.85353739


--------------------------------------------------------------------------------------------------------




--------------------------------------- Iteration      1(  19)  ---------------------------------------


    POTLOK:  cpu time    0.1346: real time    0.1349
    SETDIJ:  cpu time    0.0215: real time    0.0216
     EDDAV:  cpu time  107.6893: real time  107.9504
    CHARGE:  cpu time    3.1690: real time    3.1765
    MIXING:  cpu time    0.0058: real time    0.0085
    --------------------------------------------
      LOOP:  cpu time  111.0202: real time  111.2919

 eigenvalue-minimisations  : 43152
 total energy-change (2. order) : 0.9951028E+00  (-0.6191039E+00)
 number of electron     432.0000026 magnetization       3.7352482
 augmentation part      181.5490325 magnetization       2.3528496

 Broyden mixing:
  rms(total) = 0.17001E+01    rms(broyden)= 0.16997E+01
  rms(prec ) = 0.21901E+01
  weight for this iteration     100.00

 eigenvalues of (default mixing * dielectric matrix)
  average eigenvalue GAMMA=   0.5495
  1.8649  1.4122  1.4122  0.6220  0.6220  0.3322  0.3322  0.2492  0.1686  0.1686
  0.1508  0.1234  0.1234  0.1115

 Free energy of the ion-electron system (eV)
  ---------------------------------------------------
  alpha Z        PSCENC =      1465.19282686
  Ewald energy   TEWEN  =    -29047.37346412
  -Hartree energ DENC   =    -12725.22122913
  -exchange      EXHF   =         0.00000000
  -V(xc)+E(xc)   XCENC  =      1621.02926364
  PAW double counting   =     52558.96035944   -54566.31297002
  entropy T*S    EENTRO =        -0.06927899
  eigenvalues    EBANDS =      -245.57294695
  atomic energy  EATOM  =     40708.47505058
  Solvation  Ediel_sol  =         0.00000000
  ---------------------------------------------------
  free energy    TOTEN  =      -230.89238869 eV

  energy without entropy =     -230.82310969  energy(sigma->0) =     -230.85774919


--------------------------------------------------------------------------------------------------------




--------------------------------------- Iteration      1(  20)  ---------------------------------------


    POTLOK:  cpu time    0.1492: real time    0.1495
    SETDIJ:  cpu time    0.0242: real time    0.0242
     EDDAV:  cpu time  186.7907: real time  205.9439
    CHARGE:  cpu time    3.1505: real time    3.1579
    MIXING:  cpu time    0.0059: real time    0.0059
    --------------------------------------------
      LOOP:  cpu time  190.1204: real time  209.2815

 eigenvalue-minimisations  : 41936
 total energy-change (2. order) :-0.1621644E+01  (-0.7350162E+00)
 number of electron     432.0000024 magnetization       2.8857832
 augmentation part      180.8803700 magnetization       2.0694464

 Broyden mixing:
  rms(total) = 0.29905E+01    rms(broyden)= 0.29901E+01
  rms(prec ) = 0.43219E+01
  weight for this iteration     100.00

 eigenvalues of (default mixing * dielectric matrix)
  average eigenvalue GAMMA=   0.5232
  1.9011  1.3792  1.3792  0.6504  0.6504  0.3330  0.3330  0.2871  0.1688  0.1688
  0.1567  0.1215  0.1215  0.1163  0.0816

 Free energy of the ion-electron system (eV)
  ---------------------------------------------------
  alpha Z        PSCENC =      1465.19282686
  Ewald energy   TEWEN  =    -29047.37346412
  -Hartree energ DENC   =    -12733.24290989
  -exchange      EXHF   =         0.00000000
  -V(xc)+E(xc)   XCENC  =      1621.15641030
  PAW double counting   =     52682.97917750   -54682.13050078
  entropy T*S    EENTRO =        -0.07911183
  eigenvalues    EBANDS =      -247.49151114
  atomic energy  EATOM  =     40708.47505058
  Solvation  Ediel_sol  =         0.00000000
  ---------------------------------------------------
  free energy    TOTEN  =      -232.51403253 eV

  energy without entropy =     -232.43492069  energy(sigma->0) =     -232.47447661


--------------------------------------------------------------------------------------------------------




--------------------------------------- Iteration      1(  21)  ---------------------------------------


    POTLOK:  cpu time    0.1490: real time    0.1494
    SETDIJ:  cpu time    0.0243: real time    0.0244
     EDDAV:  cpu time  103.2075: real time  103.4518
    CHARGE:  cpu time    3.1514: real time    3.1588
    MIXING:  cpu time    0.0063: real time    0.0155
    --------------------------------------------
      LOOP:  cpu time  106.5386: real time  106.7999

 eigenvalue-minimisations  : 41488
 total energy-change (2. order) : 0.1216249E+01  (-0.9944538E+00)
 number of electron     432.0000025 magnetization       1.8540404
 augmentation part      181.4008673 magnetization       1.1444806

 Broyden mixing:
  rms(total) = 0.15898E+01    rms(broyden)= 0.15893E+01
  rms(prec ) = 0.21597E+01
  weight for this iteration     100.00

 eigenvalues of (default mixing * dielectric matrix)
  average eigenvalue GAMMA=   0.5102
  2.0076  1.3484  1.3484  0.6700  0.6700  0.3366  0.3366  0.3359  0.1670  0.1670
  0.1656  0.1656  0.1262  0.1262  0.1106  0.0807

 Free energy of the ion-electron system (eV)
  ---------------------------------------------------
  alpha Z        PSCENC =      1465.19282686
  Ewald energy   TEWEN  =    -29047.37346412
  -Hartree energ DENC   =    -12732.18310052
  -exchange      EXHF   =         0.00000000
  -V(xc)+E(xc)   XCENC  =      1621.10166400
  PAW double counting   =     52740.16446529   -54736.71369208
  entropy T*S    EENTRO =        -0.06944624
  eigenvalues    EBANDS =      -249.89208693
  atomic energy  EATOM  =     40708.47505058
  Solvation  Ediel_sol  =         0.00000000
  ---------------------------------------------------
  free energy    TOTEN  =      -231.29778316 eV

  energy without entropy =     -231.22833692  energy(sigma->0) =     -231.26306004


--------------------------------------------------------------------------------------------------------




--------------------------------------- Iteration      1(  22)  ---------------------------------------


    POTLOK:  cpu time    0.1491: real time    0.1494
    SETDIJ:  cpu time    0.0243: real time    0.0243
     EDDAV:  cpu time   99.5233: real time   99.7589
    CHARGE:  cpu time    3.3625: real time    3.3705
    MIXING:  cpu time    0.0061: real time    0.0061
    --------------------------------------------
      LOOP:  cpu time  103.0653: real time  103.3092

 eigenvalue-minimisations  : 39072
 total energy-change (2. order) : 0.3448907E+00  (-0.4113469E+00)
 number of electron     432.0000025 magnetization       0.9540747
 augmentation part      181.4593003 magnetization       0.4516671

 Broyden mixing:
  rms(total) = 0.12639E+01    rms(broyden)= 0.12634E+01
  rms(prec ) = 0.17951E+01
  weight for this iteration     100.00

 eigenvalues of (default mixing * dielectric matrix)
  average eigenvalue GAMMA=   0.5140
  2.2210  1.1748  1.1748  0.8379  0.8379  0.4673  0.3319  0.3319  0.3015  0.1685
  0.1685  0.1629  0.1354  0.1234  0.1234  0.1092  0.0684

 Free energy of the ion-electron system (eV)
  ---------------------------------------------------
  alpha Z        PSCENC =      1465.19282686
  Ewald energy   TEWEN  =    -29047.37346412
  -Hartree energ DENC   =    -12732.64794842
  -exchange      EXHF   =         0.00000000
  -V(xc)+E(xc)   XCENC  =      1621.12663247
  PAW double counting   =     52833.95797921   -54828.23748662
  entropy T*S    EENTRO =        -0.07161641
  eigenvalues    EBANDS =      -251.37486598
  atomic energy  EATOM  =     40708.47505058
  Solvation  Ediel_sol  =         0.00000000
  ---------------------------------------------------
  free energy    TOTEN  =      -230.95289242 eV

  energy without entropy =     -230.88127601  energy(sigma->0) =     -230.91708421


--------------------------------------------------------------------------------------------------------




--------------------------------------- Iteration      1(  23)  ---------------------------------------


    POTLOK:  cpu time    0.1487: real time    0.1491
    SETDIJ:  cpu time    0.0240: real time    0.0241
     EDDAV:  cpu time  116.8602: real time  117.1369
    CHARGE:  cpu time    3.0396: real time    3.0469
    MIXING:  cpu time    0.0093: real time    0.0094
    --------------------------------------------
      LOOP:  cpu time  120.0820: real time  120.3663

 eigenvalue-minimisations  : 41136
 total energy-change (2. order) : 0.7508504E-01  (-0.2114807E+00)
 number of electron     432.0000025 magnetization       0.5158370
 augmentation part      181.3513220 magnetization       0.2643352

 Broyden mixing:
  rms(total) = 0.11080E+01    rms(broyden)= 0.11078E+01
  rms(prec ) = 0.15399E+01
  weight for this iteration     100.00

 eigenvalues of (default mixing * dielectric matrix)
  average eigenvalue GAMMA=   0.5056
  2.2881  1.0277  1.0277  1.0288  1.0288  0.5000  0.3313  0.3313  0.3365  0.1683
  0.1683  0.1830  0.1358  0.1330  0.1183  0.1183  0.1047  0.0704

 Free energy of the ion-electron system (eV)
  ---------------------------------------------------
  alpha Z        PSCENC =      1465.19282686
  Ewald energy   TEWEN  =    -29047.37346412
  -Hartree energ DENC   =    -12736.22305304
  -exchange      EXHF   =         0.00000000
  -V(xc)+E(xc)   XCENC  =      1621.28864742
  PAW double counting   =     52913.07093509   -54906.22935485
  entropy T*S    EENTRO =        -0.07285430
  eigenvalues    EBANDS =      -249.00654102
  atomic energy  EATOM  =     40708.47505058
  Solvation  Ediel_sol  =         0.00000000
  ---------------------------------------------------
  free energy    TOTEN  =      -230.87780737 eV

  energy without entropy =     -230.80495307  energy(sigma->0) =     -230.84138022


--------------------------------------------------------------------------------------------------------




--------------------------------------- Iteration      1(  24)  ---------------------------------------


    POTLOK:  cpu time    0.2110: real time    0.2115
    SETDIJ:  cpu time    0.0366: real time    0.0366
     EDDAV:  cpu time  119.2481: real time  119.5305
    CHARGE:  cpu time    3.6660: real time    3.6746
    MIXING:  cpu time    0.0093: real time    0.0093
    --------------------------------------------
      LOOP:  cpu time  123.1709: real time  123.4626

 eigenvalue-minimisations  : 41888
 total energy-change (2. order) : 0.9945464E-01  (-0.1461907E+00)
 number of electron     432.0000025 magnetization      -0.0073400
 augmentation part      181.2501460 magnetization      -0.0707843

 Broyden mixing:
  rms(total) = 0.10030E+01    rms(broyden)= 0.10029E+01
  rms(prec ) = 0.14554E+01
  weight for this iteration     100.00

 eigenvalues of (default mixing * dielectric matrix)
  average eigenvalue GAMMA=   0.5053
  2.3187  1.0415  1.0415  1.0554  1.0554  0.5376  0.4590  0.3307  0.3307  0.2582
  0.1692  0.1692  0.1497  0.1497  0.1247  0.1247  0.1130  0.1021  0.0690

 Free energy of the ion-electron system (eV)
  ---------------------------------------------------
  alpha Z        PSCENC =      1465.19282686
  Ewald energy   TEWEN  =    -29047.37346412
  -Hartree energ DENC   =    -12738.56763175
  -exchange      EXHF   =         0.00000000
  -V(xc)+E(xc)   XCENC  =      1621.40578761
  PAW double counting   =     52947.58444080   -54940.38419424
  entropy T*S    EENTRO =        -0.06934899
  eigenvalues    EBANDS =      -247.04181948
  atomic energy  EATOM  =     40708.47505058
  Solvation  Ediel_sol  =         0.00000000
  ---------------------------------------------------
  free energy    TOTEN  =      -230.77835273 eV

  energy without entropy =     -230.70900375  energy(sigma->0) =     -230.74367824


--------------------------------------------------------------------------------------------------------




--------------------------------------- Iteration      1(  25)  ---------------------------------------


    POTLOK:  cpu time    0.2142: real time    0.2147
    SETDIJ:  cpu time    0.0325: real time    0.0326
     EDDAV:  cpu time  124.1027: real time  124.3964
    CHARGE:  cpu time    3.3227: real time    3.3305
    MIXING:  cpu time    0.0094: real time    0.0095
    --------------------------------------------
      LOOP:  cpu time  127.6815: real time  127.9837

 eigenvalue-minimisations  : 43328
 total energy-change (2. order) : 0.5709177E-01  (-0.8110658E-01)
 number of electron     432.0000026 magnetization      -0.1890921
 augmentation part      181.2035023 magnetization      -0.1378031

 Broyden mixing:
  rms(total) = 0.88635E+00    rms(broyden)= 0.88627E+00
  rms(prec ) = 0.12790E+01
  weight for this iteration     100.00

 eigenvalues of (default mixing * dielectric matrix)
  average eigenvalue GAMMA=   0.4904
  2.3067  1.0595  1.0595  1.0464  1.0464  0.5786  0.4983  0.3302  0.3302  0.2609
  0.1696  0.1696  0.1578  0.1578  0.1265  0.1265  0.1165  0.1084  0.0880  0.0697

 Free energy of the ion-electron system (eV)
  ---------------------------------------------------
  alpha Z        PSCENC =      1465.19282686
  Ewald energy   TEWEN  =    -29047.37346412
  -Hartree energ DENC   =    -12739.78880962
  -exchange      EXHF   =         0.00000000
  -V(xc)+E(xc)   XCENC  =      1621.50334751
  PAW double counting   =     52986.83756781   -54979.54334368
  entropy T*S    EENTRO =        -0.07090954
  eigenvalues    EBANDS =      -245.95352676
  atomic energy  EATOM  =     40708.47505058
  Solvation  Ediel_sol  =         0.00000000
  ---------------------------------------------------
  free energy    TOTEN  =      -230.72126096 eV

  energy without entropy =     -230.65035142  energy(sigma->0) =     -230.68580619


--------------------------------------------------------------------------------------------------------




--------------------------------------- Iteration      1(  26)  ---------------------------------------


    POTLOK:  cpu time    0.1676: real time    0.1680
    SETDIJ:  cpu time    0.0278: real time    0.0279
     EDDAV:  cpu time  103.2468: real time  103.4913
    CHARGE:  cpu time    2.7587: real time    2.7653
[...]
  in kB      117.8728912    121.6698264   1652.7429895    -19.6885263    105.2759065   -133.0517046
  external PRESSURE =     630.7619024 kB  Pullay stress =       0.0000000 kB


 VOLUME and BASIS-vectors are now :
 -----------------------------------------------------------------------------
  energy-cutoff  :      500.00
  volume of cell :      590.36
      direct lattice vectors                 reciprocal lattice vectors
     8.335794000  0.000000000  0.000000000     0.119964577  0.069261581  0.000000000
    -4.167897000  7.219009360  0.000000000     0.000000000  0.138523162  0.000000000
     0.000000000  0.000000000  9.810450500     0.000000000  0.000000000  0.101932118

  length of vectors
     8.335794000  8.335793996  9.810450500     0.138523162  0.138523162  0.101932118


 FORCES acting on ions
    electron-ion (+dipol)            ewald-force                    non-local-force                 convergence-correction
 -----------------------------------------------------------------------------------------------
   -.164E+03 -.143E+03 -.441E+03   0.164E+03 0.145E+03 0.488E+03   -.913E+00 -.697E+00 -.364E+01   0.105E-01 0.627E-02 -.187E-01
   -.850E+02 -.938E+02 0.110E+03   0.841E+02 0.948E+02 -.112E+03   -.224E+00 0.187E+00 0.323E+00   0.274E-02 -.129E-01 0.964E-03
   -.254E+03 0.761E+01 0.106E+03   0.255E+03 -.812E+01 -.109E+03   0.513E-01 0.204E+00 0.293E+01   0.581E-02 0.913E-02 0.207E-01
   0.244E+03 -.665E+02 -.430E+03   -.247E+03 0.703E+02 0.478E+03   0.141E+01 -.110E+01 -.713E+01   -.483E-02 0.512E-03 -.292E-01
   0.169E+03 -.112E+03 0.237E+03   -.168E+03 0.112E+03 -.241E+03   -.389E+00 -.253E+00 -.179E+01   -.449E-01 0.109E-02 0.106E-01
   0.199E+03 -.131E+03 0.196E+03   -.201E+03 0.131E+03 -.202E+03   0.142E+01 0.613E+00 0.247E+01   -.609E-03 0.622E-02 0.161E-01
   0.209E+03 0.194E+03 -.407E+03   -.238E+03 -.199E+03 0.476E+03   0.267E+01 0.503E+00 -.475E+01   0.448E-02 -.324E-02 -.170E-01
   0.599E+02 0.356E+03 0.826E+02   -.596E+02 -.358E+03 -.870E+02   0.949E-01 0.638E+00 0.108E+01   0.828E-02 0.666E-03 0.378E-02
   0.117E+03 0.163E+03 0.184E+03   -.117E+03 -.162E+03 -.189E+03   -.938E-01 -.212E+00 0.302E+01   0.605E-02 -.434E-02 0.975E-02
   0.621E+02 -.877E+02 -.249E+03   -.646E+02 0.898E+02 0.270E+03   0.829E+00 -.246E+00 -.227E+01   0.195E-02 0.478E-02 -.190E-01
   -.207E+02 -.262E+03 -.580E+01   0.197E+02 0.264E+03 0.687E+01   0.516E+00 -.577E+00 0.132E+01   0.746E-02 -.152E-01 -.669E-02
   0.732E+02 -.151E+03 -.964E+02   -.730E+02 0.151E+03 0.100E+03   -.164E+00 0.469E+00 0.338E+01   -.190E-02 -.173E-02 0.190E-01
   -.205E+03 -.236E+02 -.215E+03   0.212E+03 0.267E+02 0.226E+03   -.244E+01 -.117E+01 -.295E+01   0.537E-02 -.106E-01 -.352E-01
   -.148E+03 -.873E+02 0.478E+02   0.148E+03 0.875E+02 -.464E+02   0.178E+00 -.682E+00 -.156E+01   -.646E-02 -.793E-02 -.624E-02
   -.224E+03 -.431E+02 0.227E+03   0.225E+03 0.430E+02 -.235E+03   -.556E+00 -.780E+00 0.344E+01   -.615E-02 -.516E-02 0.462E-01
   0.459E+02 0.811E+02 -.491E+03   -.411E+02 -.858E+02 0.557E+03   0.309E+00 0.609E+00 -.298E+01   -.100E-01 -.328E-02 -.149E-01
   -.998E+02 0.236E+03 -.115E+02   0.102E+03 -.238E+03 0.120E+02   -.112E+01 0.494E+00 0.223E+01   -.230E-01 0.205E-01 -.236E-02
   -.514E+02 0.911E+02 -.435E+02   0.522E+02 -.906E+02 0.596E+02   -.399E+00 0.258E+00 0.179E+01   -.145E-01 -.324E-02 0.191E-01
   0.221E+03 -.205E+03 -.442E+03   -.230E+03 0.203E+03 0.510E+03   0.391E+01 -.135E+01 -.724E+01   -.786E-02 0.997E-02 -.278E-02
   0.929E+02 -.192E+03 0.356E+03   -.920E+02 0.192E+03 -.373E+03   0.218E+00 0.337E+00 -.127E+01   -.725E-02 0.131E-01 0.415E-02
   0.186E+03 -.121E+03 0.173E+03   -.187E+03 0.122E+03 -.176E+03   -.275E+00 -.688E+00 0.179E+01   -.436E-02 0.150E-01 0.566E-02
   -.607E+02 -.299E+03 -.446E+03   0.529E+02 0.340E+03 0.534E+03   -.248E+00 -.460E+01 -.614E+01   -.119E-02 -.836E-02 -.184E-01
   -.283E+02 -.766E+02 0.510E+02   0.280E+02 0.769E+02 -.526E+02   0.561E-01 -.262E+00 0.475E+00   0.257E-01 -.504E-02 -.168E-02
   0.728E+02 -.159E+03 0.213E+03   -.716E+02 0.159E+03 -.220E+03   -.103E+01 -.231E+00 0.508E+01   0.449E-02 -.481E-03 0.197E-01
   -.101E+03 0.292E+03 -.493E+03   0.981E+02 -.295E+03 0.592E+03   -.509E+00 0.191E+01 -.804E+01   0.689E-02 -.104E-01 -.822E-02
   0.183E+02 0.363E+03 0.150E+03   -.187E+02 -.365E+03 -.153E+03   0.519E+00 0.595E+00 -.101E+01   0.155E-01 0.195E-01 -.117E-02
   -.974E+02 0.355E+03 0.261E+03   0.985E+02 -.356E+03 -.271E+03   -.528E+00 0.312E+00 0.485E+01   0.742E-02 -.389E-02 0.150E-01
   -.469E+02 -.434E+02 -.675E+02   0.449E+02 0.418E+02 0.656E+02   0.305E+01 0.296E+01 0.228E+01   0.213E-02 -.185E-02 -.888E-02
   -.723E+02 -.746E+02 0.836E+02   0.702E+02 0.836E+02 -.864E+02   0.348E+01 -.990E+01 0.238E+01   -.415E-02 -.303E-02 0.149E-01
   -.163E+03 0.313E+01 0.197E+03   0.169E+03 -.949E+01 -.250E+03   -.238E+01 0.450E+01 0.124E+02   0.723E-02 0.629E-02 -.387E-02
   0.976E+02 -.103E+02 -.223E+03   -.962E+02 0.606E+01 0.234E+03   -.261E+01 0.462E+01 -.771E+01   -.139E-01 0.700E-03 -.167E-01
   0.839E+02 -.117E+03 0.339E+02   -.822E+02 0.121E+03 -.237E+02   -.296E+01 -.364E+01 -.630E+01   -.145E-01 0.153E-02 0.136E-01
   0.839E+02 -.195E+02 0.165E+03   -.792E+02 0.176E+02 -.215E+03   -.550E+01 -.881E+00 0.111E+02   0.206E-02 0.977E-03 -.390E-02
   0.104E+02 0.128E+03 -.549E+02   -.574E+01 -.124E+03 0.546E+02   -.599E+01 -.505E+01 0.148E+01   0.310E-02 0.138E-02 -.564E-02
   0.438E+02 0.129E+03 -.770E+02   -.456E+02 -.128E+03 0.907E+02   0.160E+01 -.203E+01 -.101E+02   0.556E-02 -.258E-02 0.114E-01
   -.980E+02 0.243E+02 0.253E+03   0.141E+03 -.169E+02 -.332E+03   -.173E+02 -.410E+01 0.149E+02   0.255E-02 -.787E-03 -.115E-01
   0.120E+02 -.112E+03 -.163E+02   -.147E+02 0.114E+03 0.100E+02   0.238E+01 0.420E+00 0.323E+01   0.526E-02 -.470E-02 -.129E-01
   -.381E+01 -.164E+03 0.404E+02   0.421E+01 0.173E+03 -.447E+02   -.373E+00 -.825E+01 0.121E+01   0.427E-02 -.932E-02 0.643E-02
   0.406E+02 -.627E+00 0.265E+03   -.381E+02 -.525E+01 -.303E+03   -.182E+01 0.280E+01 0.174E+02   -.276E-02 0.709E-02 0.770E-02
   -.285E+02 0.195E+02 -.280E+03   0.226E+02 -.250E+02 0.301E+03   0.610E+01 0.467E+01 -.102E+02   0.137E-02 -.433E-02 -.501E-01
   -.138E+03 -.179E+02 0.959E+02   0.142E+03 0.987E+01 -.100E+03   -.428E+01 0.950E+01 0.257E+01   -.149E-03 -.444E-02 0.593E-01
   -.541E+02 0.505E+02 0.120E+03   0.436E+02 -.541E+02 -.135E+03   0.921E+01 0.319E+01 0.290E+01   -.735E-03 -.626E-02 -.965E-02
   -.296E+02 0.761E+02 0.161E+02   0.301E+02 -.747E+02 -.288E+02   0.145E+00 -.297E+01 0.924E+01   -.904E-02 0.873E-02 -.892E-02
   -.171E+02 0.123E+03 0.206E+03   0.152E+02 -.129E+03 -.234E+03   0.200E+01 0.620E+01 0.110E+02   -.121E-01 0.506E-02 0.137E-01
   0.564E+02 -.217E+02 0.331E+03   -.652E+02 0.312E+02 -.415E+03   0.438E+01 -.510E+01 0.209E+02   -.716E-02 -.379E-02 -.562E-02
   0.522E+02 -.159E+03 -.291E+03   -.482E+02 0.162E+03 0.311E+03   -.548E+01 -.213E+01 -.155E+02   -.276E-02 0.536E-02 -.192E-02
   0.114E+03 -.921E+02 -.389E+02   -.119E+03 0.943E+02 0.634E+02   0.343E+01 -.102E+01 -.910E+01   -.411E-02 0.804E-02 0.134E-01
   0.714E+02 -.135E+03 0.248E+03   -.656E+02 0.141E+03 -.325E+03   -.235E+01 -.129E+01 0.146E+02   -.278E-02 0.832E-02 -.134E-01
   -.495E+02 -.483E+02 -.109E+03   0.490E+02 0.487E+02 0.108E+03   0.731E+00 0.543E+00 0.215E+01   0.622E-02 -.409E-02 -.222E-01
   0.226E+02 -.780E+02 0.120E+02   -.236E+02 0.790E+02 -.602E+01   0.125E+01 -.101E+01 -.465E+01   0.127E-01 -.157E-02 0.171E-01
   -.436E+02 0.845E+02 0.288E+03   0.550E+02 -.139E+03 -.387E+03   -.245E+01 0.200E+02 0.174E+02   -.541E-02 0.486E-02 0.871E-02
   -.285E+02 0.180E+03 -.196E+03   0.295E+02 -.181E+03 0.204E+03   -.127E+01 0.172E+00 -.582E+01   0.477E-02 0.174E-02 -.158E-01
   -.523E+02 0.187E+03 0.567E+01   0.585E+02 -.184E+03 0.117E+01   -.629E+01 -.388E+01 -.428E+01   0.813E-02 0.437E-02 0.141E-01
   -.745E+02 0.201E+03 0.296E+03   0.789E+02 -.205E+03 -.399E+03   0.387E+00 0.118E+01 0.160E+02   0.288E-02 -.692E-02 0.537E-02
 -----------------------------------------------------------------------------------------------
   0.196E+02 -.378E+01 -.730E+02   -.284E-13 0.284E-12 -.568E-13   -.196E+02 0.377E+01 0.730E+02   -.318E-01 0.218E-01 0.391E-02
 
 
 POSITION                                       TOTAL-FORCE (eV/Angst)
 -----------------------------------------------------------------------------------
     -0.04677      0.10935      0.03267        -1.104696      2.047637     43.305821
     -3.99884      6.99190      3.68812        -1.172561      1.212462     -2.058376
     -0.05038      0.18566      6.90123         0.788852     -0.292328      0.297782
     -0.92855      2.65456      0.05322        -1.789877      2.702590     39.987871
     -0.89998      2.35650      3.67690        -0.158814     -0.129897     -5.861130
     -1.11167      2.31068      7.01315        -0.192915      0.761696     -3.656392
     -2.80520      4.94084      9.74062       -26.541417     -3.950304     64.135591
     -2.60315      5.20934      3.42322         0.483098     -0.904953     -3.330573
     -2.57035      4.91097      6.93838         0.269637      0.567869     -1.798934
      2.85409      0.35049      0.22542        -1.677837      1.898503     18.522829
     -1.17914      7.10529      3.41787        -0.384047      1.451106      2.385585
     -1.17605      7.06681      6.56471         0.011739     -0.064996      7.263904
      1.68276      2.79539      0.05303         4.482459      1.956369      7.558905
      1.45698      2.51933      3.46867         0.628223     -0.426410     -0.164658
      1.38131      2.65194      6.91061         0.349000     -0.826247     -4.191490
      0.07840      4.97722      9.73883         5.160533     -4.153822     62.919350
     -0.00298      5.31542      3.44682         0.953092     -2.253987      2.726621
      0.01745      4.96366      6.59746         0.420646      0.690174     17.861889
      1.53881      7.05809      9.73778        -5.189959     -2.815300     60.869510
      1.77831      7.15183      3.79308         1.170188      0.098892    -17.867653
      5.89274      0.00778      6.89229        -0.857190      0.548257     -1.510848
      4.20964      2.45373      9.71092        -8.087650     35.843242     82.139745
      4.45516      2.48654      3.45585        -0.220334      0.003067     -1.145671
      4.44061      2.27812      6.98315         0.189655     -0.195530     -2.047932
      2.74465      5.19974      9.66274        -3.617250     -1.261114     91.376493
      2.77554      5.04888      3.64776         0.163594     -0.654892     -3.991229
      2.99810      5.22654      6.96984         0.572651     -0.590844     -5.255938
      4.03303      6.84599      1.85815         1.063989      1.338313      0.375729
     -0.06448      0.39469      5.25367         1.337275     -0.906505     -0.397178
      0.01937      0.01142      8.58235         2.925394     -1.852036    -41.221741
     -0.75179      2.32949      1.65162        -1.214463      0.384297      3.853162
     -0.91677      2.50581      5.24352        -1.329187      0.428736      3.938274
     -0.88221      2.55013      8.60233        -0.800070     -2.858985    -38.756279
     -2.45107      5.27375      1.64322        -1.295019     -1.428880      1.191683
     -2.69142      5.24877      5.03477        -0.262293     -1.209624      3.572170
     -2.32508      5.00967      8.66508        25.393796      3.260402    -64.072868
      2.83549      0.07925      1.86214        -0.250891      1.701604     -3.045360
      3.03383      0.06661      5.03487         0.028789      1.046585     -3.106468
      2.95089      0.14268      8.67191         0.647296     -3.069614    -21.274857
      1.36590      2.52587      1.50381         0.167635     -0.784275     10.669827
      1.62660      2.21399      5.27611         0.023355      1.512934     -1.701957
      1.30709      2.66410      8.49469        -1.284324     -0.436361    -12.181606
      0.01684      5.35171      1.82529         0.638108     -1.500155     -3.520354
     -0.04467      4.92078      5.18846         0.115237     -0.202697    -17.009253
     -0.02103      5.08324      8.54637        -4.481523      4.399466    -62.461228
      6.05415      0.02290      1.47627        -1.430865      1.042862      4.812477
      1.63481      7.21007      5.19252        -2.049753      1.257386     15.375244
      1.64887      7.13602      8.54954         3.478355      5.302202    -62.214146
      4.32224      2.46617      1.69987         0.292957      0.883342      1.213857
      4.42784      2.48579      5.14165         0.215771      0.004157      1.303291
      4.31645      1.97943      8.68570         8.891770    -34.125083    -81.527447
      2.89326      5.16592      1.60173        -0.296350     -1.060519      1.789680
      3.08980      5.27608      5.22110         0.003475     -1.496988      2.572640
      2.80411      5.18339      8.53161         4.822716     -2.891802    -86.648364
 -----------------------------------------------------------------------------------
    total drift:                               -0.016480      0.005792      0.006697


--------------------------------------------------------------------------------------------------------



  FREE ENERGIE OF THE ION-ELECTRON SYSTEM (eV)
  ---------------------------------------------------
  free  energy   TOTEN  =      -230.5744002026 eV

  energy  without entropy=     -230.5151815010  energy(sigma->0) =     -230.54479085
 


--------------------------------------------------------------------------------------------------------


    POTLOK:  cpu time    0.1450: real time    0.1453


--------------------------------------------------------------------------------------------------------


     LOOP+:  cpu time 6908.4706: real time 6963.3765
    4ORBIT:  cpu time    0.0000: real time    0.0000

volume of typ            1:    29.1 %

volume of typ            2:     7.5 %
 
total charge     
 
# of ion       s       p       d       tot
------------------------------------------
    1        0.458   0.567   8.170   9.195
    2        0.277   0.282   7.958   8.517
    3        0.321   0.356   7.987   8.663
    4        0.500   0.684   8.139   9.322
    5        0.294   0.274   7.963   8.531
    6        0.304   0.324   7.996   8.624
    7        0.525   0.695   8.228   9.448
    8        0.320   0.343   7.942   8.606
    9        0.239   0.209   7.999   8.447
   10        0.417   0.544   8.046   9.007
   11        0.365   0.444   7.988   8.796
   12        0.299   0.285   8.003   8.587
   13        0.432   0.629   8.059   9.120
   14        0.230   0.179   7.954   8.363
   15        0.320   0.358   7.977   8.654
   16        0.507   0.644   8.218   9.368
   17        0.322   0.346   7.961   8.628
   18        0.379   0.425   8.046   8.851
   19        0.553   0.841   8.218   9.611
   20        0.365   0.377   8.065   8.807
   21        0.310   0.347   8.009   8.666
   22        0.567   0.754   8.275   9.596
   23        0.290   0.278   7.885   8.453
   24        0.250   0.223   7.990   8.463
   25        0.574   0.817   8.301   9.693
   26        0.284   0.264   7.965   8.513
   27        0.326   0.356   8.017   8.698
   28        1.290   2.671   0.006   3.967
   29        1.283   2.766   0.012   4.061
   30        1.304   2.955   0.044   4.303
   31        1.278   2.730   0.008   4.016
   32        1.280   2.770   0.013   4.063
   33        1.311   2.962   0.046   4.319
   34        1.275   2.738   0.007   4.020
   35        1.276   2.745   0.010   4.031
   36        1.328   2.974   0.055   4.357
   37        1.279   2.804   0.015   4.099
   38        1.280   2.817   0.019   4.116
   39        1.292   2.837   0.023   4.152
   40        1.285   2.775   0.015   4.074
   41        1.276   2.725   0.008   4.009
   42        1.288   2.904   0.030   4.222
   43        1.275   2.749   0.009   4.032
   44        1.287   2.839   0.024   4.150
   45        1.321   2.949   0.047   4.317
   46        1.292   2.718   0.009   4.019
   47        1.290   2.853   0.026   4.169
   48        1.323   3.015   0.054   4.392
   49        1.265   2.746   0.006   4.017
   50        1.269   2.736   0.007   4.012
   51        1.333   3.011   0.062   4.407
   52        1.285   2.689   0.005   3.979
   53        1.275   2.773   0.012   4.060
   54        1.335   3.066   0.070   4.471
--------------------------------------------------
tot          44.90   88.16  218.00  351.06
 
magnetization (x)
 
# of ion       s       p       d       tot
------------------------------------------
    1        0.008   0.008   0.275   0.290
    2       -0.004   0.000  -0.344  -0.348
    3       -0.001  -0.000  -0.054  -0.056
    4       -0.001  -0.002  -0.047  -0.049
    5        0.007   0.005   0.709   0.721
    6        0.001  -0.001   0.139   0.139
    7       -0.008  -0.009  -0.172  -0.189
    8        0.006  -0.001   0.562   0.566
    9        0.000  -0.002   0.005   0.004
   10        0.006   0.002   0.199   0.206
   11        0.000   0.001  -0.110  -0.109
   12       -0.002  -0.002  -0.238  -0.242
   13       -0.003  -0.002  -0.073  -0.078
   14        0.001  -0.000   0.389   0.390
   15        0.000  -0.001   0.089   0.089
   16        0.005   0.010   0.235   0.250
   17        0.000   0.003  -0.296  -0.293
   18        0.000  -0.002  -0.156  -0.159
   19       -0.003   0.003   0.005   0.004
   20       -0.006  -0.009  -0.596  -0.612
   21       -0.000   0.001  -0.104  -0.104
   22        0.000   0.008   0.066   0.074
   23       -0.009   0.003  -0.841  -0.848
   24        0.003   0.000   0.030   0.032
   25        0.003   0.001   0.045   0.049
   26       -0.004   0.001  -0.568  -0.572
   27       -0.000   0.001  -0.125  -0.125
   28       -0.009  -0.237   0.000  -0.246
   29       -0.003  -0.116  -0.000  -0.119
   30        0.003   0.103   0.001   0.106
   31        0.001   0.009   0.000   0.010
   32        0.009   0.342   0.000   0.352
   33        0.000  -0.009  -0.000  -0.009
   34        0.002   0.085   0.000   0.087
   35        0.007   0.278   0.000   0.286
   36       -0.001  -0.077  -0.001  -0.079
   37       -0.000  -0.001   0.000  -0.001
   38       -0.003  -0.109   0.000  -0.112
   39        0.002   0.076   0.000   0.078
   40        0.000  -0.004  -0.000  -0.004
   41        0.005   0.166  -0.000   0.170
   42       -0.000  -0.016   0.000  -0.016
   43       -0.004  -0.137  -0.000  -0.141
   44       -0.003  -0.099  -0.000  -0.102
   45        0.003   0.104   0.001   0.108
   46       -0.004  -0.125   0.000  -0.129
   47       -0.007  -0.283  -0.001  -0.291
   48        0.001   0.027  -0.000   0.028
   49       -0.005  -0.200  -0.000  -0.205
   50       -0.007  -0.260  -0.000  -0.267
   51        0.002   0.047   0.000   0.048
   52       -0.007  -0.173  -0.000  -0.180
   53       -0.007  -0.233  -0.000  -0.241
   54        0.001   0.017   0.000   0.018
--------------------------------------------------
tot          -0.03   -0.81   -0.98   -1.82
 

 total amount of memory used by VASP MPI-rank0   361316. kBytes
=======================================================================

   base      :      30000. kBytes
   nonlr-proj:      39134. kBytes
   fftplans  :       6224. kBytes
   grid      :      35651. kBytes
   one-center:       1679. kBytes
   wavefun   :     248628. kBytes
 
  
  
 General timing and accounting informations for this job:
 ========================================================
  
                  Total CPU time used (sec):     6955.239
                            User time (sec):     6943.197
                          System time (sec):       12.042
                         Elapsed time (sec):     7014.179
  
                   Maximum memory used (kb):      455688.
                   Average memory used (kb):           0.
  
                          Minor page faults:        46752
                          Major page faults:           80
                 Voluntary context switches:         1228
