 vasp.5.4.4.18Apr17-6-g9f103f2a35 (build May 12 2020 04:58:55) complex          
  
 MD_VERSION_INFO: Compiled 2020-05-12T11:58:55-UTC in devlin.sd.materialsdesign.
 com:/home/medea2/data/build/wwolf/vasp-gpu5.4.4/13047/x86_64/src/src/build/std 
 from svn 13047
 
 This VASP executable licensed from Materials Design, Inc.
 
 executed on                        Lin64 date 2023.03.24  10:44:49
 running on   16 total cores
 distrk:  each k-point on   16 cores,    1 groups
 distr:  one band on NCORES_PER_BAND=   1 cores,   16 groups


--------------------------------------------------------------------------------------------------------


 INCAR:
 POTCAR:    PAW_PBE Ni 02Aug2007                  
 POTCAR:    PAW_PBE O 08Apr2002                   

 ----------------------------------------------------------------------------- 
|                                                                             |
|           W    W    AA    RRRRR   N    N  II  N    N   GGGG   !!!           |
|           W    W   A  A   R    R  NN   N  II  NN   N  G    G  !!!           |
|           W    W  A    A  R    R  N N  N  II  N N  N  G       !!!           |
|           W WW W  AAAAAA  RRRRR   N  N N  II  N  N N  G  GGG   !            |
|           WW  WW  A    A  R   R   N   NN  II  N   NN  G    G                |
|           W    W  A    A  R    R  N    N  II  N    N   GGGG   !!!           |
|                                                                             |
|      For optimal performance we recommend to set                            |
|        NCORE= 4 - approx SQRT( number of cores)                             |
|      NCORE specifies how many cores store one orbital (NPAR=cpu/NCORE).     |
|      This setting can  greatly improve the performance of VASP for DFT.     |
|      The default,   NCORE=1            might be grossly inefficient         |
|      on modern multi-core architectures or massively parallel machines.     |
|      Do your own testing !!!!                                               |
|      Unfortunately you need to use the default for GW and RPA calculations. |
|      (for HF NCORE is supported but not extensively tested yet)             |
|                                                                             |
 ----------------------------------------------------------------------------- 

 POTCAR:    PAW_PBE Ni 02Aug2007                  
  local pseudopotential read in
  partial core-charges read in
  partial kinetic energy density read in
  atomic valenz-charges read in
  non local Contribution for L=           2  read in
    real space projection operators read in
  non local Contribution for L=           2  read in
    real space projection operators read in
  non local Contribution for L=           0  read in
    real space projection operators read in
  non local Contribution for L=           0  read in
    real space projection operators read in
  non local Contribution for L=           1  read in
    real space projection operators read in
  non local Contribution for L=           1  read in
    real space projection operators read in
    PAW grid and wavefunctions read in
 
   number of l-projection  operators is LMAX  =           6
   number of lm-projection operators is LMMAX =          18
 
 POTCAR:    PAW_PBE O 08Apr2002                   
  local pseudopotential read in
  partial core-charges read in
  partial kinetic energy density read in
  kinetic energy density of atom read in
  atomic valenz-charges read in
  non local Contribution for L=           0  read in
    real space projection operators read in
  non local Contribution for L=           0  read in
    real space projection operators read in
  non local Contribution for L=           1  read in
    real space projection operators read in
  non local Contribution for L=           1  read in
    real space projection operators read in
    PAW grid and wavefunctions read in
 
   number of l-projection  operators is LMAX  =           4
   number of lm-projection operators is LMMAX =           8
 
 Optimization of the real space projectors (new method)

 maximal supplied QI-value         = 16.25
 optimisation between [QCUT,QGAM] = [ 11.38, 22.75] = [ 36.24,144.96] Ry 
 Optimized for a Real-space Cutoff    1.47 Angstroem

   l    n(q)    QCUT    max X(q) W(low)/X(q) W(high)/X(q)  e(spline) 
   2      9    11.376    60.317    0.17E-03    0.16E-04    0.16E-06
   2      9    11.376    55.921    0.17E-03    0.16E-04    0.17E-06
   0     10    11.376    51.690    0.45E-04    0.60E-04    0.21E-06
   0     10    11.376    30.015    0.37E-04    0.55E-04    0.19E-06
   1     10    11.376    18.849    0.83E-04    0.11E-03    0.92E-07
   1     10    11.376    14.624    0.69E-04    0.92E-04    0.82E-07
 Optimization of the real space projectors (new method)

 maximal supplied QI-value         = 24.76
 optimisation between [QCUT,QGAM] = [ 11.39, 22.77] = [ 36.31,145.25] Ry 
 Optimized for a Real-space Cutoff    1.10 Angstroem

   l    n(q)    QCUT    max X(q) W(low)/X(q) W(high)/X(q)  e(spline) 
   0      7    11.387    20.381    0.22E-03    0.48E-03    0.18E-06
   0      7    11.387    15.268    0.22E-03    0.52E-03    0.19E-06
   1      7    11.387     5.964    0.22E-03    0.73E-03    0.24E-06
   1      7    11.387     5.382    0.19E-03    0.60E-03    0.21E-06

 ----------------------------------------------------------------------------- 
|                                                                             |
|  ADVICE TO THIS USER RUNNING 'VASP/VAMP'   (HEAR YOUR MASTER'S VOICE ...):  |
|                                                                             |
|      You enforced a specific xc-type in the INCAR file,                     |
|      a different type was found on the POTCAR file                          |
|          I HOPE YOU KNOW, WHAT YOU ARE  DOING                               |
|                                                                             |
 ----------------------------------------------------------------------------- 

  PAW_PBE Ni 02Aug2007                  :
 energy of atom  1       EATOM=-1077.6739
 kinetic energy error for atom=    0.0030 (will be added to EATOM!!)
  PAW_PBE O 08Apr2002                   :
 energy of atom  2       EATOM= -432.3788
 kinetic energy error for atom=    0.0224 (will be added to EATOM!!)
 
 
 POSCAR: NiO_C2_m_scale_1_050_disp_0_10_round_1  
  positions in direct lattice
  No initial velocities read in
 exchange correlation table for  LEXCH =       14
   RHO(1)=    0.500       N(1)  =     2000
   RHO(2)=  100.500       N(2)  =     4000
 


--------------------------------------------------------------------------------------------------------


 ion  position               nearest neighbor table
   1  0.986  0.980  0.979-  54 2.25  30 2.26  36 2.28  29 2.38  53 2.47  10 2.91   2 3.08
   2  0.204  0.103  0.321-  28 1.93  37 1.94  30 2.11  40 2.14  39 2.37  36 2.39   5 2.69  10 2.85
                            14 2.91   3 2.93  13 2.94  12 2.99  11 3.02   9 3.07   1 3.08
   3  0.117  0.237  0.634-  32 1.93  31 2.01  29 2.05  40 2.08  47 2.20  28 2.27   5 2.65   6 2.75
                            15 2.80   2 2.93  12 3.04
   4  0.991  0.322  0.021-  33 1.92  30 1.99  32 2.19  48 2.38  20 2.82   5 2.84   7 2.84  23 2.85
                            16 2.98  13 3.02
   5  0.206  0.397  0.322-  40 1.77  31 1.94  30 1.96  42 2.03  33 2.15  43 2.22   3 2.65   2 2.69
                            14 2.70  13 2.81   4 2.84   6 2.91  15 3.00  17 3.05
   6  0.097  0.526  0.618-  34 1.89  31 1.93  43 2.12  35 2.20  32 2.23  50 2.40   8 2.71   3 2.75
                             9 2.85   5 2.91  15 2.95  23 3.05  18 3.07
   7  0.989  0.630  0.985-  36 2.13  50 2.21  33 2.22  35 2.36  51 2.42  53 2.51   4 2.84  16 2.93
                            22 2.95  23 3.01
   8  0.215  0.741  0.336-  34 2.00  43 2.02  33 2.15  36 2.30  45 2.30  37 2.33   9 2.70   6 2.71
                            17 2.83  16 3.03  18 3.05
   9  0.100  0.839  0.619-  37 1.85  35 1.95  34 2.02  53 2.33  28 2.34   8 2.70   6 2.85  18 3.01
                             2 3.07  26 3.08
  10  0.317  0.009  0.008-  39 2.00  36 2.16  29 2.38  38 2.46  45 2.50   2 2.85  13 2.86  19 2.88
                            11 2.88   1 2.91  22 3.00
  11  0.546  0.128  0.308-  48 1.77  49 1.87  39 2.09  46 2.26  37 2.46  23 2.66  21 2.77  22 2.77
                            19 2.79  20 2.81  10 2.88  14 2.89  12 2.91   2 3.02
  12  0.431  0.204  0.641-  49 1.93  38 1.94  29 1.99  41 2.08  37 2.09  40 2.34  24 2.76  21 2.85
                            11 2.91   2 2.99  14 3.00   3 3.04
  13  0.321  0.324  0.005-  39 1.96  42 2.10  32 2.23  41 2.29  30 2.30  29 2.34  25 2.66  14 2.80
                             5 2.81  10 2.86  22 2.93   2 2.94  16 2.97   4 3.02
  14  0.514  0.427  0.319-  40 1.86  52 1.97  42 1.99  39 2.09  51 2.13  49 2.33   5 2.70  25 2.76
                            13 2.80  17 2.85  26 2.88  11 2.89   2 2.91  22 2.93  15 2.93  12 3.00
  15  0.425  0.540  0.647-  52 1.91  44 1.93  43 2.00  40 2.12  32 2.27  41 2.34  27 2.63   3 2.80
                            18 2.86  24 2.89  17 2.93  14 2.93   6 2.95   5 3.00  16 3.06  25 3.07
  16  0.316  0.645  0.988-  45 2.03  42 2.14  33 2.19  32 2.28  44 2.28  35 2.32  18 2.89  25 2.90
                             7 2.93  13 2.97   4 2.98  17 2.99   8 3.03  15 3.06
  17  0.525  0.744  0.320-  43 1.95  45 1.98  42 1.98  52 2.02  46 2.09  54 2.21   8 2.83  14 2.85
                            26 2.86  15 2.93  27 2.93  25 2.94  16 2.99  20 3.04   5 3.05
  18  0.433  0.855  0.673-  44 1.85  35 1.92  38 2.14  46 2.16  43 2.27  27 2.73  15 2.86  16 2.89
                            19 2.98   9 3.01   8 3.05   6 3.07  21 3.08
  19  0.632  0.011  0.005-  45 1.93  48 1.94  38 2.25  54 2.52  20 2.76  11 2.79  10 2.88  22 2.90
                            18 2.98
  20  0.834  0.094  0.305-  48 1.96  46 2.07  30 2.17  54 2.24  31 2.28  28 2.46  19 2.76  11 2.81
                            21 2.81   4 2.82  23 2.83  17 3.04
  21  0.743  0.207  0.613-  49 1.86  38 2.04  47 2.06  46 2.20  50 2.20  31 2.36  11 2.77  23 2.77
                            20 2.81  12 2.85  24 2.88  18 3.08
  22  0.647  0.334  0.009-  51 1.71  39 1.85  41 2.03  48 2.10  50 2.27  38 2.51  25 2.70  23 2.76
                            11 2.77  19 2.90  14 2.93  13 2.93   7 2.95  10 3.00  24 3.01
  23  0.846  0.409  0.310-  48 1.96  34 2.14  49 2.19  51 2.24  33 2.27  31 2.29  11 2.66  22 2.76
                            21 2.77  20 2.83   4 2.85   7 3.01   6 3.05  26 3.05
  24  0.726  0.511  0.653-  50 1.83  41 1.87  53 2.00  49 2.12  52 2.23  12 2.76  21 2.88  15 2.89
                            27 2.92  22 3.01  14 3.01  26 3.06
  25  0.614  0.612  0.005-  51 1.89  42 2.02  41 2.17  54 2.24  44 2.38  53 2.52  13 2.66  22 2.70
                            14 2.76  16 2.90  26 2.94  17 2.94  15 3.07
  26  0.834  0.736  0.321-  54 1.98  52 2.16  51 2.24  28 2.37  36 2.37  34 2.49  17 2.86  14 2.88
                            25 2.94  27 3.01  23 3.05  24 3.06   9 3.08
  27  0.714  0.824  0.657-  44 1.74  53 1.98  52 2.07  46 2.35  47 2.44  15 2.63  18 2.73  24 2.92
                            17 2.93  26 3.01
  28  0.003  0.997  0.468-   2 1.93   3 2.27   9 2.34  26 2.37  20 2.46
  29  0.218  0.119  0.779-  12 1.99   3 2.05  13 2.34   1 2.38  10 2.38
  30  0.076  0.200  0.170-   5 1.96   4 1.99   2 2.11  20 2.17   1 2.26  13 2.30
  31  0.007  0.328  0.470-   6 1.93   5 1.94   3 2.01  20 2.28  23 2.29  21 2.36
  32  0.189  0.408  0.817-   3 1.93   4 2.19   6 2.23  13 2.23  15 2.27  16 2.28
  33  0.099  0.520  0.169-   4 1.92   5 2.15   8 2.15  16 2.19   7 2.22  23 2.27
  34  1.000  0.624  0.474-   6 1.89   8 2.00   9 2.02  23 2.14  26 2.49
  35  0.214  0.759  0.779-  18 1.92   9 1.95   6 2.20  16 2.32   7 2.36
  36  0.088  0.846  0.154-   7 2.13  10 2.16   1 2.28   8 2.30  26 2.37   2 2.39
  37  0.283  0.992  0.483-   9 1.85   2 1.94  12 2.09   8 2.33  11 2.46
  38  0.539  0.104  0.779-  12 1.94  21 2.04  18 2.14  19 2.25  10 2.46  22 2.51
  39  0.444  0.232  0.133-  22 1.85  13 1.96  10 2.00  11 2.09  14 2.09   2 2.37
  40  0.323  0.338  0.462-   5 1.77  14 1.86   3 2.08  15 2.12   2 2.14  12 2.34
  41  0.545  0.410  0.814-  24 1.87  22 2.03  12 2.08  25 2.17  13 2.29  15 2.34
  42  0.415  0.537  0.171-  17 1.98  14 1.99  25 2.02   5 2.03  13 2.10  16 2.14
  43  0.328  0.637  0.476-  17 1.95  15 2.00   8 2.02   6 2.12   5 2.22  18 2.27
  44  0.531  0.745  0.786-  27 1.74  18 1.85  15 1.93  16 2.28  25 2.38
  45  0.444  0.850  0.147-  19 1.93  17 1.98  16 2.03   8 2.30  10 2.50
  46  0.623  0.967  0.466-  20 2.07  17 2.09  18 2.16  21 2.20  11 2.26  27 2.35
  47  0.868  0.115  0.763-  21 2.06   3 2.20  27 2.44
  48  0.726  0.200  0.171-  11 1.77  19 1.94  20 1.96  23 1.96  22 2.10   4 2.38
  49  0.626  0.293  0.488-  21 1.86  11 1.87  12 1.93  24 2.12  23 2.19  14 2.33
  50  0.841  0.432  0.785-  24 1.83  21 2.20   7 2.21  22 2.27   6 2.40
  51  0.720  0.513  0.136-  22 1.71  25 1.89  14 2.13  23 2.24  26 2.24   7 2.42
  52  0.608  0.623  0.481-  15 1.91  14 1.97  17 2.02  27 2.07  26 2.16  24 2.23
  53  0.848  0.735  0.775-  27 1.98  24 2.00   9 2.33   1 2.47   7 2.51  25 2.52
  54  0.757  0.854  0.157-  26 1.98  17 2.21  20 2.24  25 2.24   1 2.25  19 2.52
 
  LATTYP: Found a hexagonal cell.
 ALAT       =     9.1585410021
 C/A-ratio  =     0.8152863538
  
  Lattice vectors:
  
 A1 = (   9.1585410000,   0.0000000000,   0.0000000000)
 A2 = (  -4.5792705000,   7.9315291700,   0.0000000000)
 A3 = (   0.0000000000,   0.0000000000,   7.4668335000)


Analysis of symmetry for initial positions (statically):
=====================================================================
 Subroutine PRICEL returns:
 Original cell was already a primitive cell.
 

 Routine SETGRP: Setting up the symmetry group for a 
 hexagonal supercell.


 Subroutine GETGRP returns: Found  1 space group operations
 (whereof  1 operations were pure point group operations)
 out of a pool of 24 trial point group operations.


The static configuration has the point symmetry C_1 .


Analysis of symmetry for dynamics (positions and initial velocities):
=====================================================================
 Subroutine PRICEL returns:
 Original cell was already a primitive cell.
 

 Routine SETGRP: Setting up the symmetry group for a 
 hexagonal supercell.


 Subroutine GETGRP returns: Found  1 space group operations
 (whereof  1 operations were pure point group operations)
 out of a pool of 24 trial point group operations.


The dynamic configuration has the point symmetry C_1 .


Analysis of structural, dynamic, and magnetic symmetry:
=====================================================================
 Subroutine PRICEL returns:
 Original cell was already a primitive cell.
 

 Routine SETGRP: Setting up the symmetry group for a 
 hexagonal supercell.


 Subroutine GETGRP returns: Found  1 space group operations
 (whereof  1 operations were pure point group operations)
 out of a pool of 24 trial point group operations.


The magnetic configuration has the point symmetry C_1 .


 Subroutine INISYM returns: Found  1 space group operations
 (whereof  1 operations are pure point group operations),
 and found     1 'primitive' translations

 
 
 KPOINTS: Automatic mesh                          

Automatic generation of k-mesh.
Space group operators:
 irot       det(A)        alpha          n_x          n_y          n_z        tau_x        tau_y        tau_z
    1     1.000000     0.000000     1.000000     0.000000     0.000000     0.000000     0.000000     0.000000
 
 Subroutine IBZKPT returns following result:
 ===========================================
 
 Found     36 irreducible k-points:
 
 Following reciprocal coordinates:
            Coordinates               Weight
  0.000000  0.000000  0.000000      1.000000
  0.250000 -0.000000  0.000000      2.000000
  0.500000 -0.000000  0.000000      1.000000
  0.000000  0.250000  0.000000      2.000000
  0.250000  0.250000  0.000000      2.000000
  0.500000  0.250000  0.000000      2.000000
 -0.250000  0.250000  0.000000      2.000000
  0.000000  0.500000  0.000000      1.000000
  0.250000  0.500000  0.000000      2.000000
  0.500000  0.500000  0.000000      1.000000
  0.000000  0.000000  0.250000      2.000000
  0.250000 -0.000000  0.250000      2.000000
  0.500000 -0.000000  0.250000      2.000000
 -0.250000  0.000000  0.250000      2.000000
  0.000000  0.250000  0.250000      2.000000
  0.250000  0.250000  0.250000      2.000000
  0.500000  0.250000  0.250000      2.000000
 -0.250000  0.250000  0.250000      2.000000
  0.000000  0.500000  0.250000      2.000000
  0.250000  0.500000  0.250000      2.000000
  0.500000  0.500000  0.250000      2.000000
 -0.250000  0.500000  0.250000      2.000000
  0.000000 -0.250000  0.250000      2.000000
  0.250000 -0.250000  0.250000      2.000000
  0.500000 -0.250000  0.250000      2.000000
 -0.250000 -0.250000  0.250000      2.000000
  0.000000  0.000000  0.500000      1.000000
  0.250000 -0.000000  0.500000      2.000000
  0.500000 -0.000000  0.500000      1.000000
  0.000000  0.250000  0.500000      2.000000
  0.250000  0.250000  0.500000      2.000000
  0.500000  0.250000  0.500000      2.000000
 -0.250000  0.250000  0.500000      2.000000
  0.000000  0.500000  0.500000      1.000000
  0.250000  0.500000  0.500000      2.000000
  0.500000  0.500000  0.500000      1.000000
 
 Following cartesian coordinates:
            Coordinates               Weight
  0.000000  0.000000  0.000000      1.000000
  0.027297  0.015760  0.000000      2.000000
  0.054594  0.031520  0.000000      1.000000
  0.000000  0.031520  0.000000      2.000000
  0.027297  0.047280  0.000000      2.000000
  0.054594  0.063040  0.000000      2.000000
 -0.027297  0.015760  0.000000      2.000000
  0.000000  0.063040  0.000000      1.000000
  0.027297  0.078799  0.000000      2.000000
  0.054594  0.094559  0.000000      1.000000
  0.000000  0.000000  0.033481      2.000000
  0.027297  0.015760  0.033481      2.000000
  0.054594  0.031520  0.033481      2.000000
 -0.027297 -0.015760  0.033481      2.000000
  0.000000  0.031520  0.033481      2.000000
  0.027297  0.047280  0.033481      2.000000
  0.054594  0.063040  0.033481      2.000000
 -0.027297  0.015760  0.033481      2.000000
  0.000000  0.063040  0.033481      2.000000
  0.027297  0.078799  0.033481      2.000000
  0.054594  0.094559  0.033481      2.000000
 -0.027297  0.047280  0.033481      2.000000
  0.000000 -0.031520  0.033481      2.000000
  0.027297 -0.015760  0.033481      2.000000
  0.054594  0.000000  0.033481      2.000000
 -0.027297 -0.047280  0.033481      2.000000
  0.000000  0.000000  0.066963      1.000000
  0.027297  0.015760  0.066963      2.000000
  0.054594  0.031520  0.066963      1.000000
  0.000000  0.031520  0.066963      2.000000
  0.027297  0.047280  0.066963      2.000000
  0.054594  0.063040  0.066963      2.000000
 -0.027297  0.015760  0.066963      2.000000
  0.000000  0.063040  0.066963      1.000000
  0.027297  0.078799  0.066963      2.000000
  0.054594  0.094559  0.066963      1.000000
 


--------------------------------------------------------------------------------------------------------




 Dimension of arrays:
   k-points           NKPTS =     36   k-points in BZ     NKDIM =     36   number of bands    NBANDS=    304
   number of dos      NEDOS =    301   number of ions     NIONS =     54
   non local maximal  LDIM  =      6   non local SUM 2l+1 LMDIM =     18
   total plane-waves  NPLWV = 264600
   max r-space proj   IRMAX =   6599   max aug-charges    IRDMAX=  16011
   dimension x,y,z NGX =    70 NGY =   70 NGZ =   54
   dimension x,y,z NGXF=   140 NGYF=  140 NGZF=  108
   support grid    NGXF=   140 NGYF=  140 NGZF=  108
   ions per type =              27  27
   NGX,Y,Z   is equivalent  to a cutoff of  12.71, 12.71, 12.02 a.u.
   NGXF,Y,Z  is equivalent  to a cutoff of  25.41, 25.41, 24.05 a.u.

 SYSTEM =  unknown system                          
 POSCAR =  NiO_C2_m_scale_1_050_disp_0_10_round_1  

 Startparameter for this run:
   NWRITE =      1    write-flag & timer
   PREC   = accura    normal or accurate (medium, high low for compatibility)
   ISTART =      0    job   : 0-new  1-cont  2-samecut
   ICHARG =      2    charge: 1-file 2-atom 10-const
   ISPIN  =      2    spin polarized calculation?
   LNONCOLLINEAR =      F non collinear calculations
   LSORBIT =      F    spin-orbit coupling
   INIWAV =      1    electr: 0-lowe 1-rand  2-diag
   LASPH  =      F    aspherical Exc in radial PAW
   METAGGA=      F    non-selfconsistent MetaGGA calc.

 Electronic Relaxation 1
   ENCUT  =  500.0 eV  36.75 Ry    6.06 a.u.  16.70 16.70 13.61*2*pi/ulx,y,z
   ENINI  =  500.0     initial cutoff
   ENAUG  =  605.4 eV  augmentation charge cutoff
   NELM   =     80;   NELMIN=  2; NELMDL= -5     # of ELM steps 
   EDIFF  = 0.1E-04   stopping-criterion for ELM
   LREAL  =      T    real-space projection
   NLSPLINE    = F    spline interpolate recip. space projectors
   LCOMPAT=      F    compatible to vasp.4.4
   GGA_COMPAT  = T    GGA compatible to vasp.4.4-vasp.4.6
   LMAXPAW     = -100 max onsite density
   LMAXMIX     =    2 max onsite mixed and CHGCAR
   VOSKOWN=      1    Vosko Wilk Nusair interpolation
   ROPT   =   -0.00025  -0.00025
 Ionic relaxation
   EDIFFG = 0.1E-03   stopping-criterion for IOM
   NSW    =      0    number of steps for IOM
   NBLOCK =      1;   KBLOCK =      1    inner block; outer block 
   IBRION =     -1    ionic relax: 0-MD 1-quasi-New 2-CG
   NFREE  =      0    steps in history (QN), initial steepest desc. (CG)
   ISIF   =      2    stress and relaxation
   IWAVPR =     10    prediction:  0-non 1-charg 2-wave 3-comb
   ISYM   =      2    0-nonsym 1-usesym 2-fastsym
   LCORR  =      T    Harris-Foulkes like correction to forces

   POTIM  = 0.5000    time-step for ionic-motion
   TEIN   =    0.0    initial temperature
   TEBEG  =    0.0;   TEEND  =   0.0 temperature during run
   SMASS  =  -3.00    Nose mass-parameter (am)
   estimated Nose-frequenzy (Omega)   =  0.10E-29 period in steps =****** mass=  -0.192E-26a.u.
   SCALEE = 1.0000    scale energy and forces
   NPACO  =    256;   APACO  = 16.0  distance and # of slots for P.C.
   PSTRESS=    0.0 pullay stress

  Mass of Ions in am
   POMASS =  58.69 16.00
  Ionic Valenz
   ZVAL   =  10.00  6.00
  Atomic Wigner-Seitz radii
   RWIGS  =   1.15  0.73
  virtual crystal weights 
   VCA    =   1.00  1.00
   NELECT =     432.0000    total number of electrons
   NUPDOWN=      -1.0000    fix difference up-down

 DOS related values:
   EMIN   =  10.00;   EMAX   =-10.00  energy-range for DOS
   EFERMI =   0.00
   ISMEAR =     0;   SIGMA  =   0.05  broadening in eV -4-tet -1-fermi 0-gaus

 Electronic relaxation 2 (details)
   IALGO  =     38    algorithm
   LDIAG  =      T    sub-space diagonalisation (order eigenvalues)
   LSUBROT=      F    optimize rotation matrix (better conditioning)
   TURBO    =      0    0=normal 1=particle mesh
   IRESTART =      0    0=no restart 2=restart with 2 vectors
   NREBOOT  =      0    no. of reboots
   NMIN     =      0    reboot dimension
   EREF     =   0.00    reference energy to select bands
   IMIX   =      4    mixing-type and parameters
     AMIX     =   0.40;   BMIX     =  1.00
     AMIX_MAG =   1.60;   BMIX_MAG =  1.00
     AMIN     =   0.10
     WC   =   100.;   INIMIX=   1;  MIXPRE=   1;  MAXMIX= -45

 Intra band minimization:
   WEIMIN = 0.0000     energy-eigenvalue tresh-hold
   EBREAK =  0.82E-08  absolut break condition
   DEPER  =   0.30     relativ break condition  

   TIME   =   0.40     timestep for ELM

  volume/ion in A,a.u.               =      10.04        67.78
  Fermi-wavevector in a.u.,A,eV,Ry     =   1.517503  2.867665 31.331699  2.302815
  Thomas-Fermi vector in A             =   2.626749
 
 Write flags
   LWAVE        =      F    write WAVECAR
   LDOWNSAMPLE  =      F    k-point downsampling of WAVECAR
   LCHARG       =      T    write CHGCAR
   LVTOT        =      F    write LOCPOT, total local potential
   LVHAR        =      F    write LOCPOT, Hartree potential only
   LELF         =      F    write electronic localiz. function (ELF)
   LORBIT       =      0    0 simple, 1 ext, 2 COOP (PROOUT), +10 PAW based schemes


 Dipole corrections
   LMONO  =      F    monopole corrections only (constant potential shift)
   LDIPOL =      F    correct potential (dipole corrections)
   IDIPOL =      0    1-x, 2-y, 3-z, 4-all directions 
   EPSILON=  1.0000000 bulk dielectric constant

 Exchange correlation treatment:
   GGA     =    PS    GGA type
   LEXCH   =    14    internal setting for exchange type
   VOSKOWN=      1    Vosko Wilk Nusair interpolation
   LHFCALC =     F    Hartree Fock is set to
   LHFONE  =     F    Hartree Fock one center treatment
   AEXX    =    0.0000 exact exchange contribution

 Linear response parameters
   LEPSILON=     F    determine dielectric tensor
   LRPA    =     F    only Hartree local field effects (RPA)
   LNABLA  =     F    use nabla operator in PAW spheres
   LVEL    =     F    velocity operator in full k-point grid
   LINTERFAST=   F  fast interpolation
   KINTER  =     0    interpolate to denser k-point grid
   CSHIFT  =0.1000    complex shift for real part using Kramers Kronig
   OMEGAMAX=  -1.0    maximum frequency
   DEG_THRESHOLD= 0.2000000E-02 threshold for treating states as degnerate
   RTIME   =   -0.100 relaxation time in fs
  (WPLASMAI=    0.000 imaginary part of plasma frequency in eV, 0.658/RTIME)
   DFIELD  = 0.0000000 0.0000000 0.0000000 field for delta impulse in time
 
 Orbital magnetization related:
   ORBITALMAG=     F  switch on orbital magnetization
   LCHIMAG   =     F  perturbation theory with respect to B field
   DQ        =  0.001000  dq finite difference perturbation B field
   LLRAUG    =     F  two centre corrections for induced B field



--------------------------------------------------------------------------------------------------------


 Static calculation
 charge density and potential will be updated during run
 spin polarized calculation
 Variant of blocked Davidson
 Davidson routine will perform the subspace rotation
 perform sub-space diagonalisation
    after iterative eigenvector-optimisation
 modified Broyden-mixing scheme, WC =      100.0
 initial mixing is a Kerker type mixing with AMIX =  0.4000 and BMIX =      1.0000
 Hartree-type preconditioning will be used
 using additional bands           88
 real space projection scheme for non local part
 use partial core corrections
 calculate Harris-corrections to forces 
   (improved forces if not selfconsistent)
 use gradient corrections 
 use of overlap-Matrix (Vanderbilt PP)
 Gauss-broadening in eV      SIGMA  =   0.05


--------------------------------------------------------------------------------------------------------


  energy-cutoff  :      500.00
  volume of cell :      542.40
      direct lattice vectors                 reciprocal lattice vectors
     9.158541000  0.000000000  0.000000000     0.109187697  0.063039546  0.000000000
    -4.579270500  7.931529170  0.000000000     0.000000000  0.126079093  0.000000000
     0.000000000  0.000000000  7.466833500     0.000000000  0.000000000  0.133925579

  length of vectors
     9.158541000  9.158541002  7.466833500     0.126079093  0.126079093  0.133925579


 
 k-points in units of 2pi/SCALE and weight: Automatic mesh                          
   0.00000000  0.00000000  0.00000000       0.016
   0.02729692  0.01575989  0.00000000       0.031
   0.05459385  0.03151977  0.00000000       0.016
   0.00000000  0.03151977  0.00000000       0.031
   0.02729692  0.04727966  0.00000000       0.031
   0.05459385  0.06303955  0.00000000       0.031
  -0.02729692  0.01575989  0.00000000       0.031
   0.00000000  0.06303955  0.00000000       0.016
   0.02729692  0.07879943  0.00000000       0.031
   0.05459385  0.09455932  0.00000000       0.016
   0.00000000  0.00000000  0.03348139       0.031
   0.02729692  0.01575989  0.03348139       0.031
   0.05459385  0.03151977  0.03348139       0.031
  -0.02729692 -0.01575989  0.03348139       0.031
   0.00000000  0.03151977  0.03348139       0.031
   0.02729692  0.04727966  0.03348139       0.031
   0.05459385  0.06303955  0.03348139       0.031
  -0.02729692  0.01575989  0.03348139       0.031
   0.00000000  0.06303955  0.03348139       0.031
   0.02729692  0.07879943  0.03348139       0.031
   0.05459385  0.09455932  0.03348139       0.031
  -0.02729692  0.04727966  0.03348139       0.031
   0.00000000 -0.03151977  0.03348139       0.031
   0.02729692 -0.01575989  0.03348139       0.031
   0.05459385  0.00000000  0.03348139       0.031
  -0.02729692 -0.04727966  0.03348139       0.031
   0.00000000  0.00000000  0.06696279       0.016
   0.02729692  0.01575989  0.06696279       0.031
   0.05459385  0.03151977  0.06696279       0.016
   0.00000000  0.03151977  0.06696279       0.031
   0.02729692  0.04727966  0.06696279       0.031
   0.05459385  0.06303955  0.06696279       0.031
  -0.02729692  0.01575989  0.06696279       0.031
   0.00000000  0.06303955  0.06696279       0.016
   0.02729692  0.07879943  0.06696279       0.031
   0.05459385  0.09455932  0.06696279       0.016
 
 k-points in reciprocal lattice and weights: Automatic mesh                          
   0.00000000  0.00000000  0.00000000       0.016
   0.25000000 -0.00000000  0.00000000       0.031
   0.50000000 -0.00000000  0.00000000       0.016
   0.00000000  0.25000000  0.00000000       0.031
   0.25000000  0.25000000  0.00000000       0.031
   0.50000000  0.25000000  0.00000000       0.031
  -0.25000000  0.25000000  0.00000000       0.031
   0.00000000  0.50000000  0.00000000       0.016
   0.25000000  0.50000000  0.00000000       0.031
   0.50000000  0.50000000  0.00000000       0.016
   0.00000000  0.00000000  0.25000000       0.031
   0.25000000 -0.00000000  0.25000000       0.031
   0.50000000 -0.00000000  0.25000000       0.031
  -0.25000000  0.00000000  0.25000000       0.031
   0.00000000  0.25000000  0.25000000       0.031
   0.25000000  0.25000000  0.25000000       0.031
   0.50000000  0.25000000  0.25000000       0.031
  -0.25000000  0.25000000  0.25000000       0.031
   0.00000000  0.50000000  0.25000000       0.031
   0.25000000  0.50000000  0.25000000       0.031
   0.50000000  0.50000000  0.25000000       0.031
  -0.25000000  0.50000000  0.25000000       0.031
   0.00000000 -0.25000000  0.25000000       0.031
   0.25000000 -0.25000000  0.25000000       0.031
   0.50000000 -0.25000000  0.25000000       0.031
  -0.25000000 -0.25000000  0.25000000       0.031
   0.00000000  0.00000000  0.50000000       0.016
   0.25000000 -0.00000000  0.50000000       0.031
   0.50000000 -0.00000000  0.50000000       0.016
   0.00000000  0.25000000  0.50000000       0.031
   0.25000000  0.25000000  0.50000000       0.031
   0.50000000  0.25000000  0.50000000       0.031
  -0.25000000  0.25000000  0.50000000       0.031
   0.00000000  0.50000000  0.50000000       0.016
   0.25000000  0.50000000  0.50000000       0.031
   0.50000000  0.50000000  0.50000000       0.016
 
 position of ions in fractional coordinates (direct lattice) 
   0.98641340  0.97978977  0.97943951
   0.20404377  0.10308656  0.32087056
   0.11686312  0.23698986  0.63362762
   0.99124413  0.32178749  0.02070530
   0.20627596  0.39748226  0.32193651
   0.09741250  0.52629954  0.61844595
   0.98889817  0.62969613  0.98465693
   0.21519088  0.74075035  0.33645567
   0.10037216  0.83891811  0.61904290
   0.31684626  0.00932452  0.00818623
   0.54577715  0.12842407  0.30830015
   0.43090533  0.20387714  0.64078228
   0.32116344  0.32350891  0.00508394
   0.51441488  0.42692013  0.31873646
   0.42547880  0.53990448  0.64742540
   0.31582282  0.64519756  0.98794616
   0.52531082  0.74364593  0.32007184
   0.43344068  0.85518949  0.67270796
   0.63200494  0.01095876  0.00497374
   0.83388571  0.09418854  0.30535842
   0.74304109  0.20736527  0.61275043
   0.64681798  0.33436321  0.00909344
   0.84599696  0.40916917  0.31013562
   0.72558819  0.51061059  0.65265356
   0.61432168  0.61159387  0.00531875
   0.83400860  0.73629949  0.32113376
   0.71441828  0.82418066  0.65747507
   0.00318862  0.99715740  0.46764679
   0.21804296  0.11898444  0.77911830
   0.07573662  0.19964521  0.16988897
   0.00742550  0.32781292  0.46957749
   0.18858815  0.40794089  0.81687432
   0.09893917  0.51986079  0.16910135
   0.99969307  0.62436286  0.47422229
   0.21356588  0.75949926  0.77898664
   0.08760139  0.84626131  0.15386196
   0.28266200  0.99175997  0.48325889
   0.53858673  0.10441464  0.77863835
   0.44437864  0.23219903  0.13328627
   0.32288584  0.33750913  0.46194347
   0.54521308  0.40952734  0.81352916
   0.41519346  0.53672539  0.17134670
   0.32841438  0.63682410  0.47642815
   0.53125416  0.74489130  0.78578115
   0.44434454  0.85044859  0.14675659
   0.62348258  0.96729585  0.46623525
   0.86787517  0.11527366  0.76325874
   0.72641461  0.19959121  0.17110740
   0.62649177  0.29307119  0.48831961
   0.84074444  0.43219308  0.78466350
   0.72015104  0.51348096  0.13597474
   0.60763340  0.62258146  0.48136524
   0.84750797  0.73507407  0.77548975
   0.75740440  0.85385373  0.15734412
 
 position of ions in cartesian coordinates  (Angst):
   4.54738518  7.77123114  7.31331174
   1.39668199  0.81763406  2.39588705
  -0.01494500  1.87969199  4.73119194
   7.60479805  2.55226686  0.15460303
   0.06900805  3.15264214  2.40384632
  -1.51791158  4.17436015  4.61783294
   6.17331552  4.99445322  7.35226935
  -1.42126173  5.87528301  2.51225847
  -2.92237041  6.65390346  4.62229026
   2.85914996  0.07395770  0.06112522
   4.41043385  1.01859926  2.30202589
   3.01285556  1.61705748  4.78461459
   1.45995372  2.56592036  0.03796093
   2.75630701  3.38612946  2.37995208
   1.42439638  4.28226813  4.83421767
  -0.06205791  5.11740327  7.37682948
   1.40572481  5.89824939  2.38992314
   0.05354024  6.78296039  5.02299833
   5.73806003  0.08691972  0.03713809
   7.20586166  0.74705915  2.28006048
   5.85559062  1.64472369  4.57530544
   4.39276941  2.65201155  0.06789920
   5.87440153  3.24533721  2.31573104
   4.30710518  4.04992279  4.87325547
   2.82563653  4.85087462  0.03971422
   4.26658742  5.83998088  2.39785232
   2.76888293  6.53701295  4.90925688
  -4.53705036  7.90898301  3.49184072
   1.45209345  0.94372856  5.81754662
  -0.22059248  1.58349181  1.26853265
  -1.43313729  2.60005774  3.50625693
  -0.14087938  3.23559507  6.09946454
  -1.47444473  4.12329102  1.26265163
   6.29660354  4.95215224  3.54093888
  -1.52200069  6.02399054  5.81656354
  -3.07295853  6.71214627  1.14886164
  -1.95276566  7.86617313  3.60841367
   4.45452577  0.82816776  5.81396292
   3.00655783  1.84169338  0.99522639
   1.41161760  2.67696351  3.44925498
   3.11801988  3.24817804  6.07448679
   1.34475558  4.25705309  1.27941728
   0.09160675  5.05098893  3.55740967
   1.45445425  5.90812707  5.86729701
   0.17511355  6.74535780  1.09580702
   1.28068142  7.67213525  3.48130098
   7.42060106  0.91429640  5.69912593
   5.73891585  1.58306350  1.27763047
   4.39569831  2.32450269  3.64620122
   5.72086340  3.42795202  5.85895171
   4.24416461  4.07268921  1.01530074
   2.71406649  4.93802301  3.59427410
   4.39583349  5.83026143  5.79045284
   3.02669205  6.77236577  1.17486235
 


--------------------------------------------------------------------------------------------------------


 k-point  1 :   0.0000 0.0000 0.0000  plane waves:   13671
 k-point  2 :   0.2500-0.0000 0.0000  plane waves:   13799
 k-point  3 :   0.5000-0.0000 0.0000  plane waves:   13796
 k-point  4 :   0.0000 0.2500 0.0000  plane waves:   13799
 k-point  5 :   0.2500 0.2500 0.0000  plane waves:   13761
 k-point  6 :   0.5000 0.2500 0.0000  plane waves:   13761
 k-point  7 :  -0.2500 0.2500 0.0000  plane waves:   13799
 k-point  8 :   0.0000 0.5000 0.0000  plane waves:   13796
 k-point  9 :   0.2500 0.5000 0.0000  plane waves:   13761
 k-point 10 :   0.5000 0.5000 0.0000  plane waves:   13796
 k-point 11 :   0.0000 0.0000 0.2500  plane waves:   13779
 k-point 12 :   0.2500-0.0000 0.2500  plane waves:   13775
 k-point 13 :   0.5000-0.0000 0.2500  plane waves:   13774
 k-point 14 :  -0.2500 0.0000 0.2500  plane waves:   13775
 k-point 15 :   0.0000 0.2500 0.2500  plane waves:   13775
 k-point 16 :   0.2500 0.2500 0.2500  plane waves:   13757
 k-point 17 :   0.5000 0.2500 0.2500  plane waves:   13757
 k-point 18 :  -0.2500 0.2500 0.2500  plane waves:   13775
 k-point 19 :   0.0000 0.5000 0.2500  plane waves:   13774
 k-point 20 :   0.2500 0.5000 0.2500  plane waves:   13757
 k-point 21 :   0.5000 0.5000 0.2500  plane waves:   13774
 k-point 22 :  -0.2500 0.5000 0.2500  plane waves:   13757
 k-point 23 :   0.0000-0.2500 0.2500  plane waves:   13775
 k-point 24 :   0.2500-0.2500 0.2500  plane waves:   13775
 k-point 25 :   0.5000-0.2500 0.2500  plane waves:   13757
 k-point 26 :  -0.2500-0.2500 0.2500  plane waves:   13757
 k-point 27 :   0.0000 0.0000 0.5000  plane waves:   13720
 k-point 28 :   0.2500-0.0000 0.5000  plane waves:   13756
 k-point 29 :   0.5000-0.0000 0.5000  plane waves:   13768
 k-point 30 :   0.0000 0.2500 0.5000  plane waves:   13756
 k-point 31 :   0.2500 0.2500 0.5000  plane waves:   13768
 k-point 32 :   0.5000 0.2500 0.5000  plane waves:   13768
 k-point 33 :  -0.2500 0.2500 0.5000  plane waves:   13756
 k-point 34 :   0.0000 0.5000 0.5000  plane waves:   13768
 k-point 35 :   0.2500 0.5000 0.5000  plane waves:   13768
 k-point 36 :   0.5000 0.5000 0.5000  plane waves:   13768

 maximum and minimum number of plane-waves per node :     13799    13671

 maximum number of plane-waves:     13799
 maximum index in each direction: 
   IXMAX=   16   IYMAX=   16   IZMAX=   13
   IXMIN=  -17   IYMIN=  -17   IZMIN=  -14

 The following grids will avoid any aliasing or wrap around errors in the Hartre
 e energy
  - symmetry arguments have not been applied
  - exchange correlation energies might require even more grid points
  - we recommend to set PREC=Normal or Accurate and rely on VASP defaults
 NGX is ok and might be reduce to    70
 NGY is ok and might be reduce to    70
 WARNING: aliasing errors must be expected set NGZ to    56 to avoid them

 serial   3D FFT for wavefunctions
 parallel 3D FFT for charge:
    minimum data exchange during FFTs selected (reduces bandwidth)


 total amount of memory used by VASP MPI-rank0   425613. kBytes
=======================================================================

   base      :      30000. kBytes
   nonlr-proj:      38199. kBytes
   fftplans  :       5725. kBytes
   grid      :      32372. kBytes
   one-center:       1679. kBytes
   wavefun   :     317638. kBytes
 
     INWAV:  cpu time    0.0000: real time    0.0000
 Broyden mixing: mesh for mixing (old mesh)
   NGX = 33   NGY = 33   NGZ = 27
  (NGX  =140   NGY  =140   NGZ  =108)
  gives a total of  29403 points

 initial charge density was supplied:
 charge density of overlapping atoms calculated
 number of electron     432.0000000 magnetization      67.5000000
 keeping initial charge density in first step


--------------------------------------------------------------------------------------------------------


 Maximum index for non-local projection operator         6374
 Maximum index for augmentation-charges         1095 (set IRDMAX)


--------------------------------------------------------------------------------------------------------


 First call to EWALD:  gamma=   0.217
 Maximum number of real-space cells 3x 3x 3
 Maximum number of reciprocal cells 3x 3x 3

    FEWALD:  cpu time    0.0024: real time    0.0024


--------------------------------------- Iteration      1(   1)  ---------------------------------------


    POTLOK:  cpu time    0.1737: real time    0.1755
    SETDIJ:  cpu time    0.0229: real time    0.0230
     EDDAV:  cpu time  128.1374: real time  128.4407
    --------------------------------------------
      LOOP:  cpu time  128.3381: real time  128.6432

 eigenvalue-minimisations  : 43776
 total energy-change (2. order) : 0.5055301E+04  (-0.1766677E+05)
 number of electron     432.0000000 magnetization      67.5000000
 augmentation part      432.0000000 magnetization      67.5000000

 Free energy of the ion-electron system (eV)
  ---------------------------------------------------
  alpha Z        PSCENC =      1594.73536772
  Ewald energy   TEWEN  =    -32748.35877620
  -Hartree energ DENC   =    -10522.85710832
  -exchange      EXHF   =         0.00000000
  -V(xc)+E(xc)   XCENC  =      1637.78540849
  PAW double counting   =     35307.98069315   -37155.18892105
  entropy T*S    EENTRO =        -0.01099226
  eigenvalues    EBANDS =      6232.74025581
  atomic energy  EATOM  =     40708.47505058
  Solvation  Ediel_sol  =         0.00000000
  ---------------------------------------------------
  free energy    TOTEN  =      5055.30097794 eV

  energy without entropy =     5055.31197019  energy(sigma->0) =     5055.30647406


--------------------------------------------------------------------------------------------------------




--------------------------------------- Iteration      1(   2)  ---------------------------------------


     EDDAV:  cpu time  128.4239: real time  128.7278
    --------------------------------------------
      LOOP:  cpu time  128.4242: real time  128.7281

 eigenvalue-minimisations  : 43776
 total energy-change (2. order) :-0.4346962E+04  (-0.3940809E+04)
 number of electron     432.0000000 magnetization      67.5000000
 augmentation part      432.0000000 magnetization      67.5000000

 Free energy of the ion-electron system (eV)
  ---------------------------------------------------
  alpha Z        PSCENC =      1594.73536772
  Ewald energy   TEWEN  =    -32748.35877620
  -Hartree energ DENC   =    -10522.85710832
  -exchange      EXHF   =         0.00000000
  -V(xc)+E(xc)   XCENC  =      1637.78540849
  PAW double counting   =     35307.98069315   -37155.18892105
  entropy T*S    EENTRO =        -0.03094935
  eigenvalues    EBANDS =      1885.79818602
  atomic energy  EATOM  =     40708.47505058
  Solvation  Ediel_sol  =         0.00000000
  ---------------------------------------------------
  free energy    TOTEN  =       708.33895104 eV

  energy without entropy =      708.36990040  energy(sigma->0) =      708.35442572


--------------------------------------------------------------------------------------------------------




--------------------------------------- Iteration      1(   3)  ---------------------------------------


     EDDAV:  cpu time  131.2901: real time  131.6008
    --------------------------------------------
      LOOP:  cpu time  131.2900: real time  131.6007

 eigenvalue-minimisations  : 44848
 total energy-change (2. order) :-0.9898630E+03  (-0.8769450E+03)
 number of electron     432.0000000 magnetization      67.5000000
 augmentation part      432.0000000 magnetization      67.5000000

 Free energy of the ion-electron system (eV)
  ---------------------------------------------------
  alpha Z        PSCENC =      1594.73536772
  Ewald energy   TEWEN  =    -32748.35877620
  -Hartree energ DENC   =    -10522.85710832
  -exchange      EXHF   =         0.00000000
  -V(xc)+E(xc)   XCENC  =      1637.78540849
  PAW double counting   =     35307.98069315   -37155.18892105
  entropy T*S    EENTRO =        -0.10729151
  eigenvalues    EBANDS =       896.01152442
  atomic energy  EATOM  =     40708.47505058
  Solvation  Ediel_sol  =         0.00000000
  ---------------------------------------------------
  free energy    TOTEN  =      -281.52405271 eV

  energy without entropy =     -281.41676120  energy(sigma->0) =     -281.47040696


--------------------------------------------------------------------------------------------------------




--------------------------------------- Iteration      1(   4)  ---------------------------------------


     EDDAV:  cpu time  143.6461: real time  143.9858
    --------------------------------------------
      LOOP:  cpu time  143.6461: real time  143.9859

 eigenvalue-minimisations  : 50608
 total energy-change (2. order) :-0.1122032E+03  (-0.1062406E+03)
 number of electron     432.0000000 magnetization      67.5000000
 augmentation part      432.0000000 magnetization      67.5000000

 Free energy of the ion-electron system (eV)
  ---------------------------------------------------
  alpha Z        PSCENC =      1594.73536772
  Ewald energy   TEWEN  =    -32748.35877620
  -Hartree energ DENC   =    -10522.85710832
  -exchange      EXHF   =         0.00000000
  -V(xc)+E(xc)   XCENC  =      1637.78540849
  PAW double counting   =     35307.98069315   -37155.18892105
  entropy T*S    EENTRO =        -0.11986944
  eigenvalues    EBANDS =       783.82089551
  atomic energy  EATOM  =     40708.47505058
  Solvation  Ediel_sol  =         0.00000000
  ---------------------------------------------------
  free energy    TOTEN  =      -393.72725954 eV

  energy without entropy =     -393.60739010  energy(sigma->0) =     -393.66732482


--------------------------------------------------------------------------------------------------------




--------------------------------------- Iteration      1(   5)  ---------------------------------------


     EDDAV:  cpu time  140.6835: real time  141.0164
    CHARGE:  cpu time    4.7905: real time    4.8018
    MIXING:  cpu time    0.0035: real time    0.0036
    --------------------------------------------
      LOOP:  cpu time  145.4734: real time  145.8176

 eigenvalue-minimisations  : 49392
 total energy-change (2. order) :-0.2946091E+01  (-0.2920594E+01)
 number of electron     431.9999958 magnetization      61.2549819
 augmentation part      170.5729367 magnetization      48.1212559

 Broyden mixing:
  rms(total) = 0.82127E+01    rms(broyden)= 0.82112E+01
  rms(prec ) = 0.11126E+02
  weight for this iteration     100.00

 Free energy of the ion-electron system (eV)
  ---------------------------------------------------
  alpha Z        PSCENC =      1594.73536772
  Ewald energy   TEWEN  =    -32748.35877620
  -Hartree energ DENC   =    -10522.85710832
  -exchange      EXHF   =         0.00000000
  -V(xc)+E(xc)   XCENC  =      1637.78540849
  PAW double counting   =     35307.98069315   -37155.18892105
  entropy T*S    EENTRO =        -0.12039803
  eigenvalues    EBANDS =       780.87533342
  atomic energy  EATOM  =     40708.47505058
  Solvation  Ediel_sol  =         0.00000000
  ---------------------------------------------------
  free energy    TOTEN  =      -396.67335023 eV

  energy without entropy =     -396.55295220  energy(sigma->0) =     -396.61315122


--------------------------------------------------------------------------------------------------------




--------------------------------------- Iteration      1(   6)  ---------------------------------------


    POTLOK:  cpu time    0.1493: real time    0.1497
    SETDIJ:  cpu time    0.0232: real time    0.0232
     EDDAV:  cpu time  170.5709: real time  170.9744
    CHARGE:  cpu time    4.5954: real time    4.6345
    MIXING:  cpu time    0.0038: real time    0.0038
    --------------------------------------------
      LOOP:  cpu time  175.3425: real time  175.7855

 eigenvalue-minimisations  : 62672
 total energy-change (2. order) :-0.1326435E+02  (-0.5131134E+02)
 number of electron     431.9999958 magnetization      51.2570983
 augmentation part      202.5161967 magnetization      46.6896237

 Broyden mixing:
  rms(total) = 0.14153E+02    rms(broyden)= 0.14152E+02
  rms(prec ) = 0.17157E+02
  weight for this iteration     100.00

 eigenvalues of (default mixing * dielectric matrix)
  average eigenvalue GAMMA=   0.2214
  0.2214

 Free energy of the ion-electron system (eV)
  ---------------------------------------------------
  alpha Z        PSCENC =      1594.73536772
  Ewald energy   TEWEN  =    -32748.35877620
  -Hartree energ DENC   =    -10094.70927191
  -exchange      EXHF   =         0.00000000
  -V(xc)+E(xc)   XCENC  =      1631.02731265
  PAW double counting   =     37242.20552370   -38913.04407007
  entropy T*S    EENTRO =        -0.04613133
  eigenvalues    EBANDS =       169.77729546
  atomic energy  EATOM  =     40708.47505058
  Solvation  Ediel_sol  =         0.00000000
  ---------------------------------------------------
  free energy    TOTEN  =      -409.93769939 eV

  energy without entropy =     -409.89156807  energy(sigma->0) =     -409.91463373


--------------------------------------------------------------------------------------------------------




--------------------------------------- Iteration      1(   7)  ---------------------------------------


    POTLOK:  cpu time    0.1509: real time    0.1513
    SETDIJ:  cpu time    0.0247: real time    0.0247
     EDDAV:  cpu time  147.9485: real time  148.2984
    CHARGE:  cpu time    4.5309: real time    4.5416
    MIXING:  cpu time    0.0034: real time    0.0034
    --------------------------------------------
      LOOP:  cpu time  152.6584: real time  153.0194

 eigenvalue-minimisations  : 52912
 total energy-change (2. order) : 0.8099948E+02  (-0.1927381E+02)
 number of electron     431.9999959 magnetization      47.2777225
 augmentation part      186.8059302 magnetization      37.3421280

 Broyden mixing:
  rms(total) = 0.64229E+01    rms(broyden)= 0.64219E+01
  rms(prec ) = 0.88350E+01
  weight for this iteration     100.00

 eigenvalues of (default mixing * dielectric matrix)
  average eigenvalue GAMMA=   0.4058
  0.4058  0.4058

 Free energy of the ion-electron system (eV)
  ---------------------------------------------------
  alpha Z        PSCENC =      1594.73536772
  Ewald energy   TEWEN  =    -32748.35877620
  -Hartree energ DENC   =    -10256.18239270
  -exchange      EXHF   =         0.00000000
  -V(xc)+E(xc)   XCENC  =      1623.18633221
  PAW double counting   =     38412.41550933   -40210.83250187
  entropy T*S    EENTRO =        -0.08317186
  eigenvalues    EBANDS =       547.70635906
  atomic energy  EATOM  =     40708.47505058
  Solvation  Ediel_sol  =         0.00000000
  ---------------------------------------------------
  free energy    TOTEN  =      -328.93822373 eV

  energy without entropy =     -328.85505188  energy(sigma->0) =     -328.89663780


--------------------------------------------------------------------------------------------------------




--------------------------------------- Iteration      1(   8)  ---------------------------------------


    POTLOK:  cpu time    0.1518: real time    0.1521
    SETDIJ:  cpu time    0.0242: real time    0.0243
     EDDAV:  cpu time  156.9113: real time  157.2825
    CHARGE:  cpu time    4.6291: real time    4.6400
    MIXING:  cpu time    0.0038: real time    0.0038
    --------------------------------------------
      LOOP:  cpu time  161.7202: real time  162.1027

 eigenvalue-minimisations  : 56544
 total energy-change (2. order) :-0.2888827E+02  (-0.1465810E+02)
 number of electron     431.9999954 magnetization      41.4043702
 augmentation part      184.1655929 magnetization      33.5317472

 Broyden mixing:
  rms(total) = 0.10076E+02    rms(broyden)= 0.10076E+02
  rms(prec ) = 0.15582E+02
  weight for this iteration     100.00

 eigenvalues of (default mixing * dielectric matrix)
  average eigenvalue GAMMA=   0.4612
  0.8087  0.4484  0.1265

 Free energy of the ion-electron system (eV)
  ---------------------------------------------------
  alpha Z        PSCENC =      1594.73536772
  Ewald energy   TEWEN  =    -32748.35877620
  -Hartree energ DENC   =    -10274.65053947
  -exchange      EXHF   =         0.00000000
  -V(xc)+E(xc)   XCENC  =      1621.52221734
  PAW double counting   =     39062.46731346   -40893.37102516
  entropy T*S    EENTRO =        -0.05460266
  eigenvalues    EBANDS =       571.40850237
  atomic energy  EATOM  =     40708.47505058
  Solvation  Ediel_sol  =         0.00000000
  ---------------------------------------------------
  free energy    TOTEN  =      -357.82649201 eV

  energy without entropy =     -357.77188935  energy(sigma->0) =     -357.79919068


--------------------------------------------------------------------------------------------------------




--------------------------------------- Iteration      1(   9)  ---------------------------------------


    POTLOK:  cpu time    0.1533: real time    0.1536
    SETDIJ:  cpu time    0.0244: real time    0.0245
     EDDAV:  cpu time  159.1298: real time  159.5062
    CHARGE:  cpu time    4.6411: real time    4.6521
    MIXING:  cpu time    0.0040: real time    0.0040
    --------------------------------------------
      LOOP:  cpu time  163.9525: real time  164.3404

 eigenvalue-minimisations  : 57056
 total energy-change (2. order) : 0.4058025E+00  (-0.1511396E+02)
 number of electron     431.9999963 magnetization      38.7619745
 augmentation part      184.1486480 magnetization      30.4600725

 Broyden mixing:
  rms(total) = 0.91096E+01    rms(broyden)= 0.91088E+01
  rms(prec ) = 0.13496E+02
  weight for this iteration     100.00

 eigenvalues of (default mixing * dielectric matrix)
  average eigenvalue GAMMA=   0.4000
  0.9232  0.4353  0.1454  0.0960

 Free energy of the ion-electron system (eV)
  ---------------------------------------------------
  alpha Z        PSCENC =      1594.73536772
  Ewald energy   TEWEN  =    -32748.35877620
  -Hartree energ DENC   =    -10248.74297857
  -exchange      EXHF   =         0.00000000
  -V(xc)+E(xc)   XCENC  =      1619.45210959
  PAW double counting   =     39928.87684746   -41785.76720345
  entropy T*S    EENTRO =        -0.07483870
  eigenvalues    EBANDS =       573.98373204
  atomic energy  EATOM  =     40708.47505058
  Solvation  Ediel_sol  =         0.00000000
  ---------------------------------------------------
  free energy    TOTEN  =      -357.42068953 eV

  energy without entropy =     -357.34585083  energy(sigma->0) =     -357.38327018


--------------------------------------------------------------------------------------------------------




--------------------------------------- Iteration      1(  10)  ---------------------------------------


    POTLOK:  cpu time    0.1521: real time    0.1524
    SETDIJ:  cpu time    0.0232: real time    0.0233
     EDDAV:  cpu time  154.0265: real time  154.3907
    CHARGE:  cpu time    4.6611: real time    4.6721
    MIXING:  cpu time    0.0041: real time    0.0041
    --------------------------------------------
      LOOP:  cpu time  158.8670: real time  159.2427

 eigenvalue-minimisations  : 54864
 total energy-change (2. order) : 0.2123012E+02  (-0.6570329E+01)
 number of electron     431.9999960 magnetization      36.2318176
 augmentation part      185.0712602 magnetization      28.7378278

 Broyden mixing:
  rms(total) = 0.63424E+01    rms(broyden)= 0.63418E+01
  rms(prec ) = 0.96410E+01
  weight for this iteration     100.00

 eigenvalues of (default mixing * dielectric matrix)
  average eigenvalue GAMMA=   0.3921
  1.0318  0.4830  0.1980  0.1239  0.1239

 Free energy of the ion-electron system (eV)
  ---------------------------------------------------
  alpha Z        PSCENC =      1594.73536772
  Ewald energy   TEWEN  =    -32748.35877620
  -Hartree energ DENC   =    -10243.10018322
  -exchange      EXHF   =         0.00000000
  -V(xc)+E(xc)   XCENC  =      1618.81984411
  PAW double counting   =     40329.36223344   -42198.45381347
  entropy T*S    EENTRO =        -0.08395093
  eigenvalues    EBANDS =       602.41366097
  atomic energy  EATOM  =     40708.47505058
  Solvation  Ediel_sol  =         0.00000000
  ---------------------------------------------------
  free energy    TOTEN  =      -336.19056700 eV

  energy without entropy =     -336.10661607  energy(sigma->0) =     -336.14859153


--------------------------------------------------------------------------------------------------------




--------------------------------------- Iteration      1(  11)  ---------------------------------------


    POTLOK:  cpu time    0.1528: real time    0.1532
    SETDIJ:  cpu time    0.0243: real time    0.0243
     EDDAV:  cpu time  154.8571: real time  155.2234
    CHARGE:  cpu time    4.6418: real time    4.6528
    MIXING:  cpu time    0.0045: real time    0.0045
    --------------------------------------------
      LOOP:  cpu time  159.6804: real time  160.0581

 eigenvalue-minimisations  : 55232
 total energy-change (2. order) : 0.4183102E+01  (-0.6354582E+01)
 number of electron     431.9999957 magnetization      31.3296769
 augmentation part      185.6430414 magnetization      23.6242483

 Broyden mixing:
  rms(total) = 0.62120E+01    rms(broyden)= 0.62111E+01
  rms(prec ) = 0.95419E+01
  weight for this iteration     100.00

 eigenvalues of (default mixing * dielectric matrix)
  average eigenvalue GAMMA=   0.4477
  1.3945  0.6110  0.3402  0.1274  0.1274  0.0855

 Free energy of the ion-electron system (eV)
  ---------------------------------------------------
  alpha Z        PSCENC =      1594.73536772
  Ewald energy   TEWEN  =    -32748.35877620
  -Hartree energ DENC   =    -10227.55613694
  -exchange      EXHF   =         0.00000000
  -V(xc)+E(xc)   XCENC  =      1618.15111472
  PAW double counting   =     40662.36186061   -42538.82382146
  entropy T*S    EENTRO =        -0.07560395
  eigenvalues    EBANDS =       599.08347993
  atomic energy  EATOM  =     40708.47505058
  Solvation  Ediel_sol  =         0.00000000
  ---------------------------------------------------
  free energy    TOTEN  =      -332.00746499 eV

  energy without entropy =     -331.93186104  energy(sigma->0) =     -331.96966302


--------------------------------------------------------------------------------------------------------




--------------------------------------- Iteration      1(  12)  ---------------------------------------


    POTLOK:  cpu time    0.1521: real time    0.1525
    SETDIJ:  cpu time    0.0242: real time    0.0242
     EDDAV:  cpu time  151.1337: real time  151.4912
    CHARGE:  cpu time    4.6403: real time    4.6513
    MIXING:  cpu time    0.0041: real time    0.0041
    --------------------------------------------
      LOOP:  cpu time  155.9544: real time  156.3234

 eigenvalue-minimisations  : 53552
 total energy-change (2. order) :-0.5846419E+01  (-0.6490577E+01)
 number of electron     431.9999960 magnetization      28.9444929
 augmentation part      184.8042221 magnetization      22.6476933

 Broyden mixing:
  rms(total) = 0.82320E+01    rms(broyden)= 0.82315E+01
  rms(prec ) = 0.13961E+02
  weight for this iteration     100.00

 eigenvalues of (default mixing * dielectric matrix)
  average eigenvalue GAMMA=   0.4316
  1.5942  0.6248  0.3548  0.1313  0.1313  0.0925  0.0925

 Free energy of the ion-electron system (eV)
  ---------------------------------------------------
  alpha Z        PSCENC =      1594.73536772
  Ewald energy   TEWEN  =    -32748.35877620
  -Hartree energ DENC   =    -10218.14978361
  -exchange      EXHF   =         0.00000000
  -V(xc)+E(xc)   XCENC  =      1617.13541120
  PAW double counting   =     41301.31220233   -43192.86714733
  entropy T*S    EENTRO =        -0.07186724
  eigenvalues    EBANDS =       599.93565821
  atomic energy  EATOM  =     40708.47505058
  Solvation  Ediel_sol  =         0.00000000
  ---------------------------------------------------
  free energy    TOTEN  =      -337.85388434 eV

  energy without entropy =     -337.78201710  energy(sigma->0) =     -337.81795072


--------------------------------------------------------------------------------------------------------




--------------------------------------- Iteration      1(  13)  ---------------------------------------


    POTLOK:  cpu time    0.1537: real time    0.1541
    SETDIJ:  cpu time    0.0245: real time    0.0246
     EDDAV:  cpu time  155.4762: real time  155.8440
    CHARGE:  cpu time    4.6309: real time    4.6419
    MIXING:  cpu time    0.0048: real time    0.0048
    --------------------------------------------
      LOOP:  cpu time  160.2902: real time  160.6694

 eigenvalue-minimisations  : 55504
 total energy-change (2. order) : 0.8117825E+01  (-0.6263717E+01)
 number of electron     431.9999957 magnetization      27.7775676
 augmentation part      185.4927553 magnetization      20.9141399

 Broyden mixing:
  rms(total) = 0.43004E+01    rms(broyden)= 0.43000E+01
  rms(prec ) = 0.69053E+01
  weight for this iteration     100.00

 eigenvalues of (default mixing * dielectric matrix)
  average eigenvalue GAMMA=   0.4071
  1.6431  0.6397  0.3531  0.2267  0.1174  0.1174  0.0799  0.0799

 Free energy of the ion-electron system (eV)
  ---------------------------------------------------
  alpha Z        PSCENC =      1594.73536772
  Ewald energy   TEWEN  =    -32748.35877620
  -Hartree energ DENC   =    -10220.60346426
  -exchange      EXHF   =         0.00000000
  -V(xc)+E(xc)   XCENC  =      1616.54476488
  PAW double counting   =     41569.49332328   -43468.20664141
  entropy T*S    EENTRO =        -0.09103786
  eigenvalues    EBANDS =       618.27535366
  atomic energy  EATOM  =     40708.47505058
  Solvation  Ediel_sol  =         0.00000000
  ---------------------------------------------------
  free energy    TOTEN  =      -329.73605960 eV

  energy without entropy =     -329.64502174  energy(sigma->0) =     -329.69054067


--------------------------------------------------------------------------------------------------------




--------------------------------------- Iteration      1(  14)  ---------------------------------------


    POTLOK:  cpu time    0.1532: real time    0.1536
    SETDIJ:  cpu time    0.0243: real time    0.0243
     EDDAV:  cpu time  149.6746: real time  150.0286
    CHARGE:  cpu time    4.6179: real time    4.6288
    MIXING:  cpu time    0.0049: real time    0.0049
    --------------------------------------------
      LOOP:  cpu time  154.4749: real time  154.8403

 eigenvalue-minimisations  : 52928
 total energy-change (2. order) : 0.6174314E+01  (-0.1583110E+01)
 number of electron     431.9999958 magnetization      26.4961088
 augmentation part      185.8264708 magnetization      20.5305533

 Broyden mixing:
  rms(total) = 0.27062E+01    rms(broyden)= 0.27054E+01
  rms(prec ) = 0.42456E+01
  weight for this iteration     100.00

 eigenvalues of (default mixing * dielectric matrix)
  average eigenvalue GAMMA=   0.4205
  1.7013  0.7521  0.3924  0.3924  0.1480  0.1098  0.1098  0.1025  0.0759

 Free energy of the ion-electron system (eV)
  ---------------------------------------------------
  alpha Z        PSCENC =      1594.73536772
  Ewald energy   TEWEN  =    -32748.35877620
  -Hartree energ DENC   =    -10224.56352248
  -exchange      EXHF   =         0.00000000
  -V(xc)+E(xc)   XCENC  =      1616.39368752
  PAW double counting   =     41689.39874331   -43592.36273411
  entropy T*S    EENTRO =        -0.07474563
  eigenvalues    EBANDS =       632.79518387
  atomic energy  EATOM  =     40708.47505058
  Solvation  Ediel_sol  =         0.00000000
  ---------------------------------------------------
  free energy    TOTEN  =      -323.56174541 eV

  energy without entropy =     -323.48699978  energy(sigma->0) =     -323.52437260


--------------------------------------------------------------------------------------------------------




--------------------------------------- Iteration      1(  15)  ---------------------------------------


    POTLOK:  cpu time    0.1531: real time    0.1534
    SETDIJ:  cpu time    0.0246: real time    0.0246
     EDDAV:  cpu time  159.6938: real time  160.0715
    CHARGE:  cpu time    4.6497: real time    4.6608
    MIXING:  cpu time    0.0047: real time    0.0047
    --------------------------------------------
      LOOP:  cpu time  164.5258: real time  164.9150

 eigenvalue-minimisations  : 57360
 total energy-change (2. order) :-0.4436470E+00  (-0.1116962E+01)
 number of electron     431.9999955 magnetization      25.5966392
 augmentation part      185.1962466 magnetization      18.9367512

 Broyden mixing:
  rms(total) = 0.34920E+01    rms(broyden)= 0.34915E+01
  rms(prec ) = 0.55681E+01
  weight for this iteration     100.00

 eigenvalues of (default mixing * dielectric matrix)
  average eigenvalue GAMMA=   0.4101
  1.7534  0.7929  0.4331  0.4331  0.2111  0.1105  0.1105  0.0911  0.0911  0.0747

 Free energy of the ion-electron system (eV)
  ---------------------------------------------------
  alpha Z        PSCENC =      1594.73536772
  Ewald energy   TEWEN  =    -32748.35877620
  -Hartree energ DENC   =    -10224.67627796
  -exchange      EXHF   =         0.00000000
  -V(xc)+E(xc)   XCENC  =      1616.07018307
  PAW double counting   =     41743.07072140   -43646.92179568
  entropy T*S    EENTRO =        -0.08716289
  eigenvalues    EBANDS =       633.68729753
  atomic energy  EATOM  =     40708.47505058
  Solvation  Ediel_sol  =         0.00000000
  ---------------------------------------------------
  free energy    TOTEN  =      -324.00539242 eV

  energy without entropy =     -323.91822953  energy(sigma->0) =     -323.96181098


--------------------------------------------------------------------------------------------------------




--------------------------------------- Iteration      1(  16)  ---------------------------------------


    POTLOK:  cpu time    0.1517: real time    0.1521
    SETDIJ:  cpu time    0.0233: real time    0.0233
     EDDAV:  cpu time  157.3715: real time  157.7436
    CHARGE:  cpu time    4.6642: real time    4.6753
    MIXING:  cpu time    0.0054: real time    0.0054
    --------------------------------------------
      LOOP:  cpu time  162.2161: real time  162.5998

 eigenvalue-minimisations  : 56400
 total energy-change (2. order) : 0.1941274E+01  (-0.1728732E+01)
 number of electron     431.9999958 magnetization      25.1543433
 augmentation part      185.1851789 magnetization      18.9767931

 Broyden mixing:
  rms(total) = 0.22387E+01    rms(broyden)= 0.22381E+01
  rms(prec ) = 0.34987E+01
  weight for this iteration     100.00

 eigenvalues of (default mixing * dielectric matrix)
  average eigenvalue GAMMA=   0.3999
  1.7356  0.8178  0.4601  0.4601  0.3375  0.1171  0.1171  0.0957  0.0957  0.0909
  0.0718

 Free energy of the ion-electron system (eV)
  ---------------------------------------------------
  alpha Z        PSCENC =      1594.73536772
  Ewald energy   TEWEN  =    -32748.35877620
  -Hartree energ DENC   =    -10227.11362913
  -exchange      EXHF   =         0.00000000
  -V(xc)+E(xc)   XCENC  =      1615.95134220
  PAW double counting   =     41794.88610980   -43699.46549648
  entropy T*S    EENTRO =        -0.07462407
  eigenvalues    EBANDS =       638.90053733
  atomic energy  EATOM  =     40708.47505058
  Solvation  Ediel_sol  =         0.00000000
  ---------------------------------------------------
  free energy    TOTEN  =      -322.06411826 eV

  energy without entropy =     -321.98949418  energy(sigma->0) =     -322.02680622


--------------------------------------------------------------------------------------------------------




--------------------------------------- Iteration      1(  17)  ---------------------------------------


    POTLOK:  cpu time    0.1532: real time    0.1535
    SETDIJ:  cpu time    0.0244: real time    0.0244
     EDDAV:  cpu time  158.3040: real time  158.6784
    CHARGE:  cpu time    4.6479: real time    4.6589
    MIXING:  cpu time    0.0054: real time    0.0054
    --------------------------------------------
      LOOP:  cpu time  163.1349: real time  163.5207

 eigenvalue-minimisations  : 56784
 total energy-change (2. order) : 0.4294414E+00  (-0.4893084E+00)
 number of electron     431.9999954 magnetization      24.8217687
 augmentation part      184.9618515 magnetization      18.3633615

 Broyden mixing:
  rms(total) = 0.24606E+01    rms(broyden)= 0.24604E+01
  rms(prec ) = 0.36733E+01
  weight for this iteration     100.00

 eigenvalues of (default mixing * dielectric matrix)
  average eigenvalue GAMMA=   0.3777
  1.7443  0.7761  0.4871  0.4871  0.3794  0.1188  0.1188  0.0986  0.0986  0.0933
  0.0715  0.0590

 Free energy of the ion-electron system (eV)
  ---------------------------------------------------
  alpha Z        PSCENC =      1594.73536772
  Ewald energy   TEWEN  =    -32748.35877620
  -Hartree energ DENC   =    -10228.09178431
  -exchange      EXHF   =         0.00000000
  -V(xc)+E(xc)   XCENC  =      1615.95987989
  PAW double counting   =     41819.84639214   -43723.99403803
  entropy T*S    EENTRO =        -0.08721477
  eigenvalues    EBANDS =       639.88044612
  atomic energy  EATOM  =     40708.47505058
  Solvation  Ediel_sol  =         0.00000000
  ---------------------------------------------------
  free energy    TOTEN  =      -321.63467686 eV

  energy without entropy =     -321.54746209  energy(sigma->0) =     -321.59106948


--------------------------------------------------------------------------------------------------------




--------------------------------------- Iteration      1(  18)  ---------------------------------------


    POTLOK:  cpu time    0.1524: real time    0.1528
    SETDIJ:  cpu time    0.0244: real time    0.0244
     EDDAV:  cpu time  156.7722: real time  157.1430
    CHARGE:  cpu time    4.6371: real time    4.6481
    MIXING:  cpu time    0.0056: real time    0.0056
    --------------------------------------------
      LOOP:  cpu time  161.5917: real time  161.9739

 eigenvalue-minimisations  : 56112
 total energy-change (2. order) : 0.7397802E+00  (-0.5834477E+00)
 number of electron     431.9999957 magnetization      24.6334418
 augmentation part      185.0056071 magnetization      18.6429233

 Broyden mixing:
  rms(total) = 0.12215E+01    rms(broyden)= 0.12212E+01
  rms(prec ) = 0.19156E+01
  weight for this iteration     100.00

 eigenvalues of (default mixing * dielectric matrix)
  average eigenvalue GAMMA=   0.3757
  1.6924  0.7381  0.5697  0.5697  0.3137  0.3137  0.1304  0.1102  0.1102  0.0957
  0.0957  0.0744  0.0703

 Free energy of the ion-electron system (eV)
  ---------------------------------------------------
  alpha Z        PSCENC =      1594.73536772
  Ewald energy   TEWEN  =    -32748.35877620
  -Hartree energ DENC   =    -10230.89599741
  -exchange      EXHF   =         0.00000000
  -V(xc)+E(xc)   XCENC  =      1616.03415793
  PAW double counting   =     41855.93684658   -43759.88687617
  entropy T*S    EENTRO =        -0.06702070
  eigenvalues    EBANDS =       643.13235099
  atomic energy  EATOM  =     40708.47505058
  Solvation  Ediel_sol  =         0.00000000
  ---------------------------------------------------
  free energy    TOTEN  =      -320.89489668 eV

  energy without entropy =     -320.82787598  energy(sigma->0) =     -320.86138633


--------------------------------------------------------------------------------------------------------




--------------------------------------- Iteration      1(  19)  ---------------------------------------


    POTLOK:  cpu time    0.1530: real time    0.1534
    SETDIJ:  cpu time    0.0243: real time    0.0243
     EDDAV:  cpu time  156.8894: real time  157.2604
    CHARGE:  cpu time    4.6228: real time    4.6337
    MIXING:  cpu time    0.0057: real time    0.0057
    --------------------------------------------
      LOOP:  cpu time  161.6951: real time  162.0776

 eigenvalue-minimisations  : 56128
 total energy-change (2. order) : 0.1901567E+00  (-0.1013572E+00)
 number of electron     431.9999956 magnetization      24.0869109
 augmentation part      184.9811209 magnetization      17.8594241

 Broyden mixing:
  rms(total) = 0.93605E+00    rms(broyden)= 0.93573E+00
  rms(prec ) = 0.13780E+01
  weight for this iteration     100.00

 eigenvalues of (default mixing * dielectric matrix)
  average eigenvalue GAMMA=   0.3981
  1.6418  0.8722  0.8722  0.5931  0.4121  0.4121  0.1335  0.1110  0.1110  0.0958
  0.0958  0.0851  0.0705  0.0666

 Free energy of the ion-electron system (eV)
  ---------------------------------------------------
  alpha Z        PSCENC =      1594.73536772
  Ewald energy   TEWEN  =    -32748.35877620
  -Hartree energ DENC   =    -10229.51241024
  -exchange      EXHF   =         0.00000000
  -V(xc)+E(xc)   XCENC  =      1616.04757288
  PAW double counting   =     41864.49129335   -43767.37594187
  entropy T*S    EENTRO =        -0.07467366
  eigenvalues    EBANDS =       640.86777743
  atomic energy  EATOM  =     40708.47505058
  Solvation  Ediel_sol  =         0.00000000
  ---------------------------------------------------
  free energy    TOTEN  =      -320.70474000 eV

  energy without entropy =     -320.63006634  energy(sigma->0) =     -320.66740317


--------------------------------------------------------------------------------------------------------




--------------------------------------- Iteration      1(  20)  ---------------------------------------


    POTLOK:  cpu time    0.1527: real time    0.1530
    SETDIJ:  cpu time    0.0244: real time    0.0245
     EDDAV:  cpu time  163.8114: real time  164.1988
    CHARGE:  cpu time    4.6542: real time    4.6652
    MIXING:  cpu time    0.0058: real time    0.0059
    --------------------------------------------
      LOOP:  cpu time  168.6486: real time  169.0475

 eigenvalue-minimisations  : 59184
 total energy-change (2. order) :-0.1816037E+00  (-0.1060202E+00)
 number of electron     431.9999956 magnetization      23.7875021
 augmentation part      184.9343196 magnetization      17.6693355

 Broyden mixing:
  rms(total) = 0.10218E+01    rms(broyden)= 0.10216E+01
  rms(prec ) = 0.15744E+01
  weight for this iteration     100.00

 eigenvalues of (default mixing * dielectric matrix)
  average eigenvalue GAMMA=   0.3958
  1.6863  0.9498  0.9498  0.5834  0.4175  0.4175  0.1811  0.1149  0.1149  0.0982
  0.0982  0.1006  0.0836  0.0732  0.0687

 Free energy of the ion-electron system (eV)
  ---------------------------------------------------
  alpha Z        PSCENC =      1594.73536772
  Ewald energy   TEWEN  =    -32748.35877620
  -Hartree energ DENC   =    -10231.82417740
  -exchange      EXHF   =         0.00000000
  -V(xc)+E(xc)   XCENC  =      1616.19932859
  PAW double counting   =     41905.27345495   -43805.06479546
  entropy T*S    EENTRO =        -0.07198901
  eigenvalues    EBANDS =       639.75019251
  atomic energy  EATOM  =     40708.47505058
  Solvation  Ediel_sol  =         0.00000000
  ---------------------------------------------------
  free energy    TOTEN  =      -320.88634372 eV

  energy without entropy =     -320.81435470  energy(sigma->0) =     -320.85034921


--------------------------------------------------------------------------------------------------------




--------------------------------------- Iteration      1(  21)  ---------------------------------------


    POTLOK:  cpu time    0.1523: real time    0.1527
    SETDIJ:  cpu time    0.0244: real time    0.0244
     EDDAV:  cpu time  160.6206: real time  161.0005
    CHARGE:  cpu time    4.7076: real time    4.7188
    MIXING:  cpu time    0.0059: real time    0.0059
    --------------------------------------------
      LOOP:  cpu time  165.5108: real time  165.9023

 eigenvalue-minimisations  : 57520
 total energy-change (2. order) : 0.8310220E-01  (-0.9932600E-01)
 number of electron     431.9999956 magnetization      22.9815622
 augmentation part      184.8996370 magnetization      16.9220399

 Broyden mixing:
  rms(total) = 0.74873E+00    rms(broyden)= 0.74840E+00
  rms(prec ) = 0.10561E+01
  weight for this iteration     100.00

 eigenvalues of (default mixing * dielectric matrix)
  average eigenvalue GAMMA=   0.4454
  1.8759  1.2294  1.2294  0.6912  0.4362  0.4362  0.3776  0.1113  0.1113  0.1181
  0.1014  0.1014  0.0920  0.0760  0.0721  0.0661

 Free energy of the ion-electron system (eV)
  ---------------------------------------------------
  alpha Z        PSCENC =      1594.73536772
  Ewald energy   TEWEN  =    -32748.35877620
  -Hartree energ DENC   =    -10232.89559542
  -exchange      EXHF   =         0.00000000
  -V(xc)+E(xc)   XCENC  =      1616.28470034
  PAW double counting   =     41933.19521433   -43832.03198851
  entropy T*S    EENTRO =        -0.07045322
  eigenvalues    EBANDS =       639.86323886
  atomic energy  EATOM  =     40708.47505058
  Solvation  Ediel_sol  =         0.00000000
  ---------------------------------------------------
  free energy    TOTEN  =      -320.80324151 eV

  energy without entropy =     -320.73278830  energy(sigma->0) =     -320.76801491


--------------------------------------------------------------------------------------------------------




--------------------------------------- Iteration      1(  22)  ---------------------------------------


    POTLOK:  cpu time    0.1546: real time    0.1550
    SETDIJ:  cpu time    0.0242: real time    0.0243
     EDDAV:  cpu time  160.2697: real time  160.6488
    CHARGE:  cpu time    4.5478: real time    4.5586
    MIXING:  cpu time    0.0064: real time    0.0064
    --------------------------------------------
      LOOP:  cpu time  165.0028: real time  165.3931

 eigenvalue-minimisations  : 57248
 total energy-change (2. order) :-0.3850680E+00  (-0.1013620E+00)
 number of electron     431.9999957 magnetization      22.4524205
 augmentation part      184.8815569 magnetization      16.4811475

 Broyden mixing:
  rms(total) = 0.11428E+01    rms(broyden)= 0.11426E+01
  rms(prec ) = 0.17458E+01
  weight for this iteration     100.00

 eigenvalues of (default mixing * dielectric matrix)
  average eigenvalue GAMMA=   0.4372
  1.9417  1.2904  1.2904  0.7053  0.4377  0.4377  0.3795  0.1099  0.1099  0.1217
  0.1217  0.0981  0.0981  0.0766  0.0757  0.0692  0.0692

 Free energy of the ion-electron system (eV)
  ---------------------------------------------------
  alpha Z        PSCENC =      1594.73536772
  Ewald energy   TEWEN  =    -32748.35877620
  -Hartree energ DENC   =    -10233.63787912
  -exchange      EXHF   =         0.00000000
  -V(xc)+E(xc)   XCENC  =      1616.54629842
  PAW double counting   =     42023.50149819   -43920.61407337
  entropy T*S    EENTRO =        -0.07219931
  eigenvalues    EBANDS =       638.23640358
  atomic energy  EATOM  =     40708.47505058
  Solvation  Ediel_sol  =         0.00000000
  ---------------------------------------------------
  free energy    TOTEN  =      -321.18830950 eV

  energy without entropy =     -321.11611020  energy(sigma->0) =     -321.15220985


--------------------------------------------------------------------------------------------------------




--------------------------------------- Iteration      1(  23)  ---------------------------------------


    POTLOK:  cpu time    0.1458: real time    0.1461
    SETDIJ:  cpu time    0.0231: real time    0.0231
     EDDAV:  cpu time  155.3725: real time  155.7400
    CHARGE:  cpu time    4.5371: real time    4.5479
    MIXING:  cpu time    0.0069: real time    0.0069
    --------------------------------------------
      LOOP:  cpu time  160.0854: real time  160.4641

 eigenvalue-minimisations  : 56192
 total energy-change (2. order) : 0.1697429E+00  (-0.8051556E-01)
 number of electron     431.9999956 magnetization      22.3340924
 augmentation part      184.9154978 magnetization      16.5017035

 Broyden mixing:
  rms(total) = 0.63211E+00    rms(broyden)= 0.63185E+00
  rms(prec ) = 0.86247E+00
  weight for this iteration     100.00

 eigenvalues of (default mixing * dielectric matrix)
  average eigenvalue GAMMA=   0.4350
  1.9603  1.3330  1.3330  0.7094  0.4079  0.4079  0.3632  0.3632  0.1310  0.1117
  0.1117  0.0994  0.0994  0.0954  0.0918  0.0731  0.0731  0.0656

 Free energy of the ion-electron system (eV)
  ---------------------------------------------------
[...]
  in kB      -91.4866023   -120.7541167   -109.1049920     -0.3043357    -10.3768458     -9.8525947
  external PRESSURE =    -107.1152370 kB  Pullay stress =       0.0000000 kB


 VOLUME and BASIS-vectors are now :
 -----------------------------------------------------------------------------
  energy-cutoff  :      500.00
  volume of cell :      542.40
      direct lattice vectors                 reciprocal lattice vectors
     9.158541000  0.000000000  0.000000000     0.109187697  0.063039546  0.000000000
    -4.579270500  7.931529170  0.000000000     0.000000000  0.126079093  0.000000000
     0.000000000  0.000000000  7.466833500     0.000000000  0.000000000  0.133925579

  length of vectors
     9.158541000  9.158541002  7.466833500     0.126079093  0.126079093  0.133925579


 FORCES acting on ions
    electron-ion (+dipol)            ewald-force                    non-local-force                 convergence-correction
 -----------------------------------------------------------------------------------------------
   0.400E+02 0.727E+02 0.128E+03   -.399E+02 -.739E+02 -.126E+03   -.359E+00 0.778E+00 -.157E+01   0.699E-01 0.682E-01 0.740E-01
   0.317E+02 0.227E+03 0.116E+03   -.342E+02 -.233E+03 -.112E+03   0.224E+01 0.426E+01 -.432E+01   -.199E+00 0.103E+00 -.115E+00
   0.976E+02 0.274E+03 -.160E+03   -.998E+02 -.278E+03 0.164E+03   0.133E+01 0.109E+01 -.328E+01   0.103E+00 0.457E-01 0.939E-01
   0.969E+02 0.120E+03 0.237E+03   -.932E+02 -.119E+03 -.238E+03   -.336E+01 -.148E+01 -.703E+00   0.796E-03 0.737E-01 -.535E-01
   0.162E+03 0.697E+01 0.978E+02   -.166E+03 -.661E+01 -.983E+02   0.565E+00 0.180E+01 -.114E+01   0.155E+00 0.243E-01 -.618E-01
   0.979E+02 -.177E+01 -.237E+03   -.100E+03 0.162E+01 0.237E+03   0.182E+01 0.226E+00 0.225E+01   0.268E-01 -.363E-01 0.856E-01
   0.153E+02 -.143E+03 0.541E+02   -.145E+02 0.144E+03 -.536E+02   -.734E+00 -.121E+01 -.520E+00   -.111E+00 -.122E+00 0.568E-01
   0.103E+03 -.181E+03 0.135E+03   -.105E+03 0.180E+03 -.135E+03   0.141E+01 0.193E+01 -.580E+00   -.610E-01 -.222E+00 -.556E-01
   0.214E+03 -.497E+02 -.160E+03   -.213E+03 0.506E+02 0.160E+03   -.236E+01 -.546E+00 0.777E+00   -.495E-01 -.260E-02 0.883E-01
   0.666E+02 0.216E+03 0.102E+03   -.688E+02 -.216E+03 -.998E+02   0.210E+01 -.236E+00 -.159E+01   -.202E+00 0.155E+00 -.235E+00
   0.110E+03 0.288E+03 -.216E+02   -.110E+03 -.290E+03 0.234E+02   -.162E+01 -.104E+01 -.740E+00   -.191E-02 0.303E+00 -.191E+00
   0.916E+02 0.140E+03 -.813E+02   -.919E+02 -.145E+03 0.851E+02   -.816E+00 0.310E+01 -.344E+01   -.168E+00 0.253E+00 0.363E+00
   0.151E+03 0.145E+03 0.168E+03   -.151E+03 -.147E+03 -.171E+03   -.318E+00 0.103E+01 0.135E+01   0.169E+00 0.752E-01 -.793E-01
   -.165E+03 0.473E+01 -.111E+02   0.165E+03 -.372E+01 0.122E+02   0.218E+01 -.114E+01 -.128E+01   -.779E-01 0.205E+00 -.185E+00
   0.321E+02 0.640E+02 -.211E+03   -.333E+02 -.630E+02 0.211E+03   0.438E+00 -.222E+01 0.659E+00   0.571E-01 -.148E+00 0.862E-01
   0.124E+03 -.813E+02 0.977E+02   -.125E+03 0.828E+02 -.950E+02   0.515E+00 -.129E+01 -.246E+01   0.764E-01 -.149E+00 -.460E-01
   -.518E+02 -.223E+03 0.680E+02   0.498E+02 0.226E+03 -.686E+02   0.198E+01 -.112E+01 0.118E+00   0.169E+00 -.270E+00 -.803E-01
   0.836E+02 -.146E+03 -.409E+02   -.845E+02 0.147E+03 0.431E+02   0.254E+00 0.540E+00 -.301E+01   -.126E-01 -.147E+00 0.172E+00
   -.175E+03 0.637E+02 0.209E+03   0.173E+03 -.647E+02 -.208E+03   0.231E+01 0.998E+00 -.199E+01   0.954E-01 0.412E-01 -.187E+00
   -.167E+03 0.145E+03 -.178E+02   0.168E+03 -.148E+03 0.188E+02   -.335E+00 0.163E+01 -.536E+00   0.285E+00 -.484E-02 -.841E-01
   -.212E+03 0.765E+02 -.156E+03   0.214E+03 -.793E+02 0.161E+03   -.120E+00 0.161E+01 -.338E+01   0.914E-01 0.186E+00 0.275E+00
   -.215E+03 0.935E+02 0.205E+03   0.214E+03 -.936E+02 -.208E+03   0.211E+01 -.260E+01 -.488E-01   -.122E+00 0.258E+00 -.191E+00
   -.546E+02 -.174E+03 0.628E+01   0.571E+02 0.177E+03 -.527E+01   -.181E+01 -.156E+01 -.627E+00   -.320E-03 0.266E+00 -.191E+00
   -.126E+03 -.193E+03 0.546E+02   0.128E+03 0.194E+03 -.490E+02   -.178E+01 0.349E-01 -.632E+01   -.106E+00 -.119E+00 0.121E+00
   -.549E+02 -.302E+03 0.154E+03   0.564E+02 0.304E+03 -.153E+03   -.157E+01 0.494E+00 -.206E+01   0.349E-01 -.314E+00 0.845E-01
   -.188E+03 -.148E+03 -.208E+02   0.187E+03 0.153E+03 0.182E+02   0.224E+01 -.360E+01 0.255E+01   -.535E-01 -.127E+00 -.168E+00
   -.239E+03 -.326E+03 -.508E+02   0.243E+03 0.327E+03 0.538E+02   -.669E+00 0.115E+01 -.402E+01   -.182E-01 -.924E-01 -.583E-03
   0.963E+02 0.107E+03 -.766E+02   -.103E+03 -.110E+03 0.818E+02   0.620E+01 0.324E+01 -.500E+01   -.104E-01 0.183E-01 -.542E-01
   0.829E+02 0.155E+03 -.765E+02   -.843E+02 -.161E+03 0.772E+02   0.115E+01 0.556E+01 -.729E-01   0.248E-01 0.127E+00 0.120E+00
   0.270E+02 0.168E+03 0.107E+03   -.275E+02 -.176E+03 -.107E+03   0.637E+00 0.619E+01 -.758E+00   0.106E+00 -.316E-01 -.112E+00
   0.961E+02 0.101E+03 -.324E+02   -.102E+03 -.106E+03 0.286E+02   0.603E+01 0.437E+01 0.425E+01   -.131E-01 0.296E-01 0.124E-01
   0.707E+02 0.154E+02 -.728E+02   -.723E+02 -.138E+02 0.771E+02   0.181E+01 -.623E+00 -.406E+01   0.136E+00 0.313E-01 0.586E-01
   0.728E+02 -.825E+02 0.534E+02   -.732E+02 0.867E+02 -.468E+02   0.395E+00 -.382E+01 -.704E+01   -.754E-01 -.265E-02 -.887E-01
   0.143E+03 -.496E+02 0.229E+02   -.151E+03 0.477E+02 -.254E+02   0.828E+01 0.238E+01 0.183E+01   -.617E-01 -.110E+00 -.223E-01
   0.817E+02 -.280E+02 -.143E+03   -.840E+02 0.271E+02 0.150E+03   0.229E+01 0.171E+00 -.688E+01   0.518E-02 -.755E-01 0.882E-01
   0.382E+02 0.678E+01 0.324E+02   -.397E+02 -.780E+01 -.262E+02   0.187E+01 0.108E+01 -.716E+01   -.128E+00 -.390E-01 -.104E+00
   -.475E+02 0.618E+02 0.158E+02   0.556E+02 -.614E+02 -.165E+02   -.653E+01 0.507E+00 -.557E+00   -.202E+00 0.169E-01 0.138E+00
   -.361E+02 0.812E+02 -.985E+02   0.368E+02 -.812E+02 0.103E+03   -.408E+00 -.111E+01 -.377E+01   -.946E-01 0.159E+00 0.142E+00
   0.510E+02 0.142E+03 0.155E+02   -.532E+02 -.143E+03 -.112E+02   0.124E+01 0.312E+00 -.312E+01   -.186E+00 0.414E+00 -.483E+00
   -.301E+02 0.117E+03 -.117E+03   0.361E+02 -.121E+03 0.127E+03   -.465E+01 0.252E+01 -.733E+01   0.978E-01 0.830E-01 0.300E-01
   0.558E+02 0.504E+01 -.183E+02   -.613E+02 -.865E+01 0.211E+02   0.402E+01 0.360E+01 -.286E+01   0.119E-01 -.771E-01 0.193E+00
   0.584E+02 -.640E+02 0.105E+03   -.636E+02 0.664E+02 -.105E+03   0.492E+01 -.247E+01 -.817E+00   0.142E+00 -.787E-01 -.740E-01
   0.788E+02 -.684E+02 -.296E+02   -.797E+02 0.672E+02 0.306E+02   0.506E-01 0.139E+01 -.903E+00   0.113E+00 -.849E-01 0.535E-01
   -.188E+02 -.891E+02 -.197E+03   0.175E+02 0.880E+02 0.212E+03   0.249E+00 -.141E+00 -.132E+02   -.667E-01 -.177E+00 0.735E-01
   0.928E+02 -.501E+02 0.457E+02   -.980E+02 0.520E+02 -.420E+02   0.426E+01 -.219E+01 -.368E+01   0.888E-01 -.257E+00 -.123E+00
   -.365E+02 -.251E+01 -.451E+02   0.339E+02 0.197E+01 0.461E+02   0.259E+01 0.679E+00 -.957E+00   0.246E+00 -.209E+00 0.770E-01
   -.471E+02 0.855E+02 -.912E+02   0.492E+02 -.876E+02 0.919E+02   -.226E+01 0.191E+01 -.141E+00   0.612E-01 0.368E-01 0.718E-01
   -.117E+03 0.102E+02 0.138E+03   0.122E+03 -.671E+01 -.145E+03   -.394E+01 -.317E+01 0.615E+01   0.252E+00 0.352E+00 -.366E+00
   -.101E+02 -.555E+02 -.598E+01   0.747E+01 0.626E+02 0.424E+01   0.215E+01 -.596E+01 0.131E+01   -.670E-01 0.438E+00 0.307E+00
   -.154E+03 0.232E+01 -.815E+02   0.163E+03 -.662E+01 0.847E+02   -.720E+01 0.416E+01 -.247E+01   -.117E+00 -.105E-01 0.186E+00
   -.146E+03 -.190E+03 -.270E+02   0.151E+03 0.200E+03 0.349E+02   -.487E+01 -.734E+01 -.521E+01   -.286E-01 -.194E+00 -.164E+00
   -.145E+03 -.106E+03 -.161E+02   0.149E+03 0.108E+03 0.154E+02   -.205E+01 -.729E+00 0.423E+00   -.356E-01 -.149E+00 -.940E-01
   -.908E+02 -.152E+03 -.915E+02   0.958E+02 0.154E+03 0.971E+02   -.505E+01 -.210E+01 -.578E+01   0.357E-01 -.777E-01 0.131E+00
   -.549E+02 -.955E+02 0.118E+03   0.520E+02 0.993E+02 -.123E+03   0.301E+01 -.387E+01 0.542E+01   0.700E-01 -.670E-01 -.314E-02
 -----------------------------------------------------------------------------------------------
   -.203E+02 -.754E+01 0.987E+02   -.391E-12 -.682E-12 0.114E-12   0.198E+02 0.717E+01 -.983E+02   0.456E+00 0.368E+00 -.429E+00
 
 
 POSITION                                       TOTAL-FORCE (eV/Angst)
 -----------------------------------------------------------------------------------
      4.54739      7.77123      7.31331        -0.120254     -0.314086      0.362478
      1.39668      0.81763      2.39589        -0.550460     -1.300882      0.134960
     -0.01494      1.87969      4.73119        -0.767778     -2.789062      0.823820
      7.60480      2.55227      0.15460         0.388732     -0.286303     -1.316850
      0.06901      3.15264      2.40385        -2.977121      2.183957     -1.700998
     -1.51791      4.17436      4.61783        -0.330833      0.044324      1.650790
      6.17332      4.99445      7.35227        -0.062915      0.371379      0.036503
     -1.42126      5.87528      2.51226        -0.844463      0.541245     -0.958412
     -2.92237      6.65390      4.62229        -2.045393      0.419011      0.650411
      2.85915      0.07396      0.06113        -0.371413     -0.538933      0.026374
      4.41043      1.01860      2.30203        -1.749503     -2.521539      0.894080
      3.01286      1.61706      4.78461        -1.261948     -0.896017      0.717662
      1.45995      2.56592      0.03796        -0.690061     -0.369122     -1.196998
      2.75631      3.38613      2.37995         1.672791      0.082563     -0.379497
      1.42440      4.28227      4.83422        -0.639158     -1.376260      0.665895
     -0.06206      5.11740      7.37683        -0.251341      0.022735      0.208067
      1.40572      5.89825      2.38992         0.207266      1.444623     -0.505677
      0.05354      6.78296      5.02300        -0.672103      1.353394     -0.681624
      5.73806      0.08692      0.03714         0.143288      0.044407     -0.848363
      7.20586      0.74706      2.28006         1.295165     -0.905186      0.368312
      5.85559      1.64472      4.57531         1.965216     -0.976320      1.949068
      4.39277      2.65201      0.06790         1.641259     -2.407091     -3.705796
      5.87440      3.24534      2.31573         0.716470      1.062894      0.191767
      4.30711      4.04992      4.87326         0.582120      1.600378     -0.643734
      2.82564      4.85087      0.03971        -0.056276      1.417648     -0.859136
      4.26659      5.83998      2.39785         0.618877      0.967569     -0.240007
      2.76888      6.53701      4.90926         2.678463      2.568182     -1.039112
     -4.53705      7.90898      3.49184        -0.197135      0.165404      0.082423
      1.45209      0.94373      5.81755        -0.309076      0.272182      0.691643
     -0.22059      1.58349      1.26853         0.277783     -0.978109     -0.731621
     -1.43314      2.60006      3.50626         0.024297     -0.500278      0.433383
     -0.14088      3.23560      6.09946         0.335403      1.022946      0.334399
     -1.47444      4.12329      1.26265        -0.056670      0.458304     -0.611563
      6.29660      4.95215      3.54094        -0.473828      0.347745     -0.657952
     -1.52200      6.02399      5.81656         0.047053     -0.818818      0.467705
     -3.07296      6.71215      1.14886         0.163953      0.025564     -1.100629
     -1.95277      7.86617      3.60841         1.416199      0.900601     -1.066392
      4.45453      0.82817      5.81396         0.192350     -0.947248      0.836309
      3.00656      1.84169      0.99523        -1.127305     -1.128731      0.679847
      1.41162      2.67696      3.44925         1.377439     -1.332957      2.380193
      3.11802      3.24818      6.07449        -1.508657     -0.080560      0.086936
      1.34476      4.25705      1.27942        -0.147397     -0.152294     -1.170674
      0.09161      5.05099      3.55741        -0.801663      0.083668      0.140310
      1.45445      5.90813      5.86730        -1.085986     -1.342414      2.183409
      0.17511      6.74536      1.09581        -0.836851     -0.509980     -0.124578
      1.28068      7.67214      3.48130         0.152603     -0.070844      0.111673
      7.42060      0.91430      5.69913        -0.082611     -0.203025      0.677435
      5.73892      1.58306      1.27763         1.632211      0.715655     -1.073993
      4.39570      2.32450      3.64620        -0.584956      1.563889     -0.123086
      5.72086      3.42795      5.85895         0.962688     -0.149476      0.996987
      4.24416      4.07269      1.01530         0.392957      2.722193      2.478311
      2.71407      4.93802      3.59427         1.512993      0.449163     -0.393433
      4.39583      5.83026      5.79045         0.048333      0.162036     -0.074852
      3.02669      6.77237      1.17486         0.157247     -0.118126     -0.056173
 -----------------------------------------------------------------------------------
    total drift:                               -0.021897     -0.000783     -0.030834


--------------------------------------------------------------------------------------------------------



  FREE ENERGIE OF THE ION-ELECTRON SYSTEM (eV)
  ---------------------------------------------------
  free  energy   TOTEN  =      -321.7757972671 eV

  energy  without entropy=     -321.7188624726  energy(sigma->0) =     -321.74732987
 


--------------------------------------------------------------------------------------------------------


    POTLOK:  cpu time    0.1655: real time    0.1659


--------------------------------------------------------------------------------------------------------


     LOOP+:  cpu time12791.5448: real time12822.3854
    4ORBIT:  cpu time    0.0000: real time    0.0000

volume of typ            1:    31.7 %

volume of typ            2:     8.1 %
 
total charge     
 
# of ion       s       p       d       tot
------------------------------------------
    1        0.145   0.104   7.925   8.174
    2        0.204   0.202   7.932   8.338
    3        0.205   0.219   7.905   8.329
    4        0.188   0.172   7.950   8.310
    5        0.243   0.289   7.944   8.475
    6        0.208   0.214   7.918   8.340
    7        0.164   0.127   7.929   8.220
    8        0.181   0.171   7.929   8.281
    9        0.210   0.214   7.890   8.315
   10        0.165   0.132   7.962   8.259
   11        0.215   0.235   8.041   8.492
   12        0.217   0.235   7.905   8.358
   13        0.180   0.169   7.974   8.323
   14        0.214   0.238   7.986   8.438
   15        0.211   0.228   7.953   8.392
   16        0.173   0.154   7.946   8.274
   17        0.216   0.241   7.917   8.374
   18        0.215   0.219   7.918   8.352
   19        0.186   0.168   7.962   8.316
   20        0.183   0.175   7.932   8.290
   21        0.208   0.217   7.905   8.330
   22        0.241   0.275   7.973   8.489
   23        0.174   0.166   7.997   8.338
   24        0.228   0.244   7.939   8.410
   25        0.192   0.185   7.958   8.334
   26        0.171   0.142   7.950   8.264
   27        0.219   0.225   7.938   8.381
   28        1.282   2.670   0.003   3.955
   29        1.276   2.692   0.004   3.972
   30        1.265   2.738   0.006   4.009
   31        1.270   2.743   0.007   4.020
   32        1.268   2.717   0.005   3.990
   33        1.266   2.730   0.006   4.001
   34        1.262   2.749   0.007   4.018
   35        1.260   2.739   0.005   4.004
   36        1.268   2.689   0.003   3.960
   37        1.272   2.734   0.006   4.012
   38        1.274   2.714   0.005   3.992
   39        1.263   2.772   0.009   4.044
   40        1.260   2.805   0.011   4.076
   41        1.277   2.733   0.007   4.017
   42        1.265   2.769   0.008   4.042
   43        1.270   2.755   0.007   4.031
   44        1.260   2.795   0.011   4.066
   45        1.265   2.735   0.006   4.006
   46        1.271   2.714   0.004   3.989
   47        1.277   2.662   0.002   3.941
   48        1.253   2.805   0.013   4.070
   49        1.261   2.787   0.010   4.059
   50        1.272   2.714   0.005   3.991
   51        1.261   2.785   0.011   4.057
   52        1.261   2.776   0.008   4.045
   53        1.272   2.702   0.004   3.977
   54        1.270   2.703   0.004   3.977
--------------------------------------------------
tot          39.58   79.28  214.66  333.52
 
magnetization (x)
 
# of ion       s       p       d       tot
------------------------------------------
    1        0.000  -0.000   1.334   1.335
    2        0.005   0.009   0.936   0.951
    3        0.001   0.002   0.416   0.419
    4        0.006   0.007   1.213   1.226
    5       -0.003  -0.004  -0.977  -0.984
    6        0.004   0.005   1.142   1.151
    7        0.008   0.003   1.317   1.328
    8        0.003   0.004   1.296   1.303
    9        0.004   0.010   1.243   1.257
   10        0.003   0.004   1.217   1.224
   11        0.007   0.008   0.477   0.492
   12       -0.004  -0.001  -1.002  -1.007
   13        0.004   0.003   0.994   1.001
   14        0.002   0.001  -1.008  -1.006
   15       -0.000  -0.000  -1.040  -1.041
   16        0.006   0.004   1.222   1.232
   17        0.000   0.003  -0.999  -0.995
   18        0.005   0.013   1.228   1.246
   19        0.005   0.008   1.199   1.212
   20        0.006   0.006   1.212   1.225
   21        0.004   0.001   1.231   1.237
   22        0.003   0.002   0.498   0.503
   23        0.010   0.004   1.101   1.115
   24        0.001   0.012   0.712   0.725
   25        0.002   0.008   1.254   1.263
   26        0.003   0.006   1.178   1.188
   27        0.004   0.014   1.122   1.140
   28        0.008   0.160   0.000   0.168
   29        0.002   0.091  -0.000   0.093
   30        0.010   0.120   0.000   0.130
   31        0.006   0.062   0.000   0.068
   32        0.007   0.067   0.000   0.075
   33        0.015   0.212   0.000   0.227
   34        0.019   0.212   0.000   0.232
   35        0.018   0.191   0.000   0.209
   36        0.017   0.244   0.000   0.261
   37        0.007   0.091   0.000   0.098
   38        0.006   0.127   0.000   0.133
   39        0.010   0.084   0.000   0.094
   40       -0.006  -0.035  -0.000  -0.042
   41        0.006   0.091   0.000   0.097
   42       -0.002   0.052  -0.000   0.049
   43       -0.002  -0.002  -0.000  -0.004
   44        0.011   0.130   0.000   0.140
   45        0.008   0.149   0.000   0.157
   46        0.009   0.111   0.000   0.121
   47        0.013   0.226   0.000   0.239
   48        0.023   0.192   0.000   0.215
   49        0.005   0.019   0.000   0.025
   50        0.013   0.156   0.000   0.169
   51        0.012   0.120  -0.000   0.132
   52       -0.005  -0.020  -0.000  -0.025
   53        0.012   0.201   0.000   0.214
   54        0.009   0.195   0.000   0.205
--------------------------------------------------
tot           0.32    3.38   18.52   22.22
 

 total amount of memory used by VASP MPI-rank0   425613. kBytes
=======================================================================

   base      :      30000. kBytes
   nonlr-proj:      38199. kBytes
   fftplans  :       5725. kBytes
   grid      :      32372. kBytes
   one-center:       1679. kBytes
   wavefun   :     317638. kBytes
 
  
  
 General timing and accounting informations for this job:
 ========================================================
  
                  Total CPU time used (sec):    12865.282
                            User time (sec):    12854.814
                          System time (sec):       10.468
                         Elapsed time (sec):    12900.035
  
                   Maximum memory used (kb):      518928.
                   Average memory used (kb):           0.
  
                          Minor page faults:        45401
                          Major page faults:           19
                 Voluntary context switches:         1200
