 vasp.5.4.4.18Apr17-6-g9f103f2a35 (build May 12 2020 04:58:55) complex          
  
 MD_VERSION_INFO: Compiled 2020-05-12T11:58:55-UTC in devlin.sd.materialsdesign.
 com:/home/medea2/data/build/wwolf/vasp-gpu5.4.4/13047/x86_64/src/src/build/std 
 from svn 13047
 
 This VASP executable licensed from Materials Design, Inc.
 
 executed on                        Lin64 date 2023.03.24  10:48:24
 running on   16 total cores
 distrk:  each k-point on   16 cores,    1 groups
 distr:  one band on NCORES_PER_BAND=   1 cores,   16 groups


--------------------------------------------------------------------------------------------------------


 INCAR:
 POTCAR:    PAW_PBE Ni 02Aug2007                  
 POTCAR:    PAW_PBE O 08Apr2002                   

 ----------------------------------------------------------------------------- 
|                                                                             |
|           W    W    AA    RRRRR   N    N  II  N    N   GGGG   !!!           |
|           W    W   A  A   R    R  NN   N  II  NN   N  G    G  !!!           |
|           W    W  A    A  R    R  N N  N  II  N N  N  G       !!!           |
|           W WW W  AAAAAA  RRRRR   N  N N  II  N  N N  G  GGG   !            |
|           WW  WW  A    A  R   R   N   NN  II  N   NN  G    G                |
|           W    W  A    A  R    R  N    N  II  N    N   GGGG   !!!           |
|                                                                             |
|      For optimal performance we recommend to set                            |
|        NCORE= 4 - approx SQRT( number of cores)                             |
|      NCORE specifies how many cores store one orbital (NPAR=cpu/NCORE).     |
|      This setting can  greatly improve the performance of VASP for DFT.     |
|      The default,   NCORE=1            might be grossly inefficient         |
|      on modern multi-core architectures or massively parallel machines.     |
|      Do your own testing !!!!                                               |
|      Unfortunately you need to use the default for GW and RPA calculations. |
|      (for HF NCORE is supported but not extensively tested yet)             |
|                                                                             |
 ----------------------------------------------------------------------------- 

 POTCAR:    PAW_PBE Ni 02Aug2007                  
  local pseudopotential read in
  partial core-charges read in
  partial kinetic energy density read in
  atomic valenz-charges read in
  non local Contribution for L=           2  read in
    real space projection operators read in
  non local Contribution for L=           2  read in
    real space projection operators read in
  non local Contribution for L=           0  read in
    real space projection operators read in
  non local Contribution for L=           0  read in
    real space projection operators read in
  non local Contribution for L=           1  read in
    real space projection operators read in
  non local Contribution for L=           1  read in
    real space projection operators read in
    PAW grid and wavefunctions read in
 
   number of l-projection  operators is LMAX  =           6
   number of lm-projection operators is LMMAX =          18
 
 POTCAR:    PAW_PBE O 08Apr2002                   
  local pseudopotential read in
  partial core-charges read in
  partial kinetic energy density read in
  kinetic energy density of atom read in
  atomic valenz-charges read in
  non local Contribution for L=           0  read in
    real space projection operators read in
  non local Contribution for L=           0  read in
    real space projection operators read in
  non local Contribution for L=           1  read in
    real space projection operators read in
  non local Contribution for L=           1  read in
    real space projection operators read in
    PAW grid and wavefunctions read in
 
   number of l-projection  operators is LMAX  =           4
   number of lm-projection operators is LMMAX =           8
 
 Optimization of the real space projectors (new method)

 maximal supplied QI-value         = 16.25
 optimisation between [QCUT,QGAM] = [ 11.38, 22.75] = [ 36.24,144.96] Ry 
 Optimized for a Real-space Cutoff    1.47 Angstroem

   l    n(q)    QCUT    max X(q) W(low)/X(q) W(high)/X(q)  e(spline) 
   2      9    11.376    60.317    0.17E-03    0.16E-04    0.16E-06
   2      9    11.376    55.921    0.17E-03    0.16E-04    0.17E-06
   0     10    11.376    51.690    0.45E-04    0.60E-04    0.21E-06
   0     10    11.376    30.015    0.37E-04    0.55E-04    0.19E-06
   1     10    11.376    18.849    0.83E-04    0.11E-03    0.92E-07
   1     10    11.376    14.624    0.69E-04    0.92E-04    0.82E-07
 Optimization of the real space projectors (new method)

 maximal supplied QI-value         = 24.76
 optimisation between [QCUT,QGAM] = [ 11.39, 22.77] = [ 36.31,145.25] Ry 
 Optimized for a Real-space Cutoff    1.10 Angstroem

   l    n(q)    QCUT    max X(q) W(low)/X(q) W(high)/X(q)  e(spline) 
   0      7    11.387    20.381    0.22E-03    0.48E-03    0.18E-06
   0      7    11.387    15.268    0.22E-03    0.52E-03    0.19E-06
   1      7    11.387     5.964    0.22E-03    0.73E-03    0.24E-06
   1      7    11.387     5.382    0.19E-03    0.60E-03    0.21E-06

 ----------------------------------------------------------------------------- 
|                                                                             |
|  ADVICE TO THIS USER RUNNING 'VASP/VAMP'   (HEAR YOUR MASTER'S VOICE ...):  |
|                                                                             |
|      You enforced a specific xc-type in the INCAR file,                     |
|      a different type was found on the POTCAR file                          |
|          I HOPE YOU KNOW, WHAT YOU ARE  DOING                               |
|                                                                             |
 ----------------------------------------------------------------------------- 

  PAW_PBE Ni 02Aug2007                  :
 energy of atom  1       EATOM=-1077.6739
 kinetic energy error for atom=    0.0030 (will be added to EATOM!!)
  PAW_PBE O 08Apr2002                   :
 energy of atom  2       EATOM= -432.3788
 kinetic energy error for atom=    0.0224 (will be added to EATOM!!)
 
 
 POSCAR: NiO_C2_m_scale_1_050_disp_0_05_round_2  
  positions in direct lattice
  No initial velocities read in
 exchange correlation table for  LEXCH =       14
   RHO(1)=    0.500       N(1)  =     2000
   RHO(2)=  100.500       N(2)  =     4000
 


--------------------------------------------------------------------------------------------------------


 ion  position               nearest neighbor table
   1  0.008  0.010  0.997-  30 2.05  29 2.21  36 2.43  54 2.46  13 2.85   2 2.88  10 2.93   4 2.94

   2  0.216  0.102  0.312-  39 1.96  37 1.97  30 2.03  28 2.07  40 2.12  36 2.35  11 2.76  13 2.81
                            10 2.87   1 2.88   3 2.93  12 2.94  14 2.96   5 3.01
   3  0.104  0.212  0.626-  31 2.00  29 2.02  40 2.07  28 2.08  32 2.15  47 2.43   5 2.77   6 2.82
                            15 2.89  12 2.93   2 2.93  20 3.08
   4  0.994  0.323  0.995-  33 2.09  30 2.22  32 2.31  48 2.33  47 2.39  50 2.45   7 2.77  16 2.94
                             1 2.94  13 2.99  20 3.04   5 3.05
   5  0.210  0.427  0.332-  43 1.95  40 2.02  31 2.06  30 2.11  33 2.16  42 2.16   6 2.74  15 2.76
                             3 2.77   8 2.90  17 2.90  13 2.91  14 3.00   2 3.01   4 3.05  16 3.06
   6  0.102  0.519  0.632-  32 1.95  43 2.01  34 2.03  31 2.07  35 2.12  50 2.48   5 2.74   3 2.82
                            15 2.88   8 2.92   9 2.96  18 2.99  23 3.02  21 3.06
   7  0.986  0.622  0.998-  33 2.00  36 2.14  50 2.19  35 2.30  51 2.34   4 2.77  22 2.91  16 2.93
                            23 2.94   8 3.05
   8  0.216  0.747  0.325-  34 2.02  45 2.05  36 2.07  33 2.07  43 2.13  37 2.30  18 2.85   9 2.88
                            17 2.89   5 2.90   6 2.92  16 2.97   7 3.05  11 3.08
   9  0.107  0.845  0.641-  35 2.01  34 2.11  37 2.19  29 2.34  53 2.42  28 2.44   8 2.88   6 2.96
                            18 2.97
  10  0.328  0.009  0.997-  39 2.05  38 2.22  36 2.23  45 2.35  29 2.37  11 2.85   2 2.87  13 2.91
                            22 2.93   1 2.93  19 2.99
  11  0.520  0.108  0.320-  37 1.92  39 1.96  49 2.03  48 2.16  46 2.20  45 2.39   2 2.76  21 2.83
                            10 2.85  14 2.85  12 2.86  20 2.95  22 2.95  23 2.98   8 3.08  19 3.08
  12  0.429  0.223  0.635-  41 2.00  49 2.01  40 2.03  38 2.07  29 2.12  37 2.16  24 2.75  15 2.82
                            11 2.86  21 2.88  14 2.90   3 2.93   2 2.94
  13  0.318  0.321  0.016-  42 1.90  39 2.03  30 2.07  41 2.30  32 2.43  29 2.45   2 2.81  14 2.81
                             1 2.85  10 2.91   5 2.91  25 2.94  16 2.95   4 2.99  22 3.00
  14  0.537  0.428  0.313-  51 1.95  42 1.96  39 2.03  49 2.05  40 2.08  52 2.16  13 2.81  11 2.85
                            22 2.87  23 2.87  12 2.90  24 2.90  15 2.91  17 2.91  25 2.92  26 2.92
  15  0.420  0.527  0.627-  43 1.92  52 1.93  40 1.99  32 2.06  44 2.11  41 2.16   5 2.76  12 2.82
                            24 2.85  18 2.85   6 2.88   3 2.89  14 2.91  27 2.92  17 2.93
  16  0.316  0.642  0.992-  45 2.07  33 2.09  35 2.19  32 2.23  44 2.24  42 2.24  17 2.90   7 2.93
                             4 2.94  13 2.95   8 2.97  25 2.98   5 3.06
  17  0.528  0.741  0.307-  54 2.02  45 2.04  42 2.09  52 2.12  43 2.16  46 2.50   8 2.89  16 2.90
                            25 2.90  18 2.90   5 2.90  14 2.91  15 2.93  26 2.93  27 2.94  19 3.05
  18  0.430  0.843  0.632-  43 2.04  44 2.09  46 2.10  35 2.16  38 2.36  37 2.49   8 2.85  15 2.85
                            27 2.88  17 2.90   9 2.97   6 2.99
  19  0.645  0.990  0.997-  48 2.08  45 2.15  47 2.19  54 2.20  38 2.42  44 2.49  20 2.90  10 2.99
                            17 3.05  22 3.07  11 3.08
  20  0.840  0.105  0.325-  46 1.94  31 1.98  48 2.12  54 2.38  28 2.39  30 2.39  21 2.75  19 2.90
                            23 2.92  11 2.95   4 3.04   3 3.08
  21  0.741  0.219  0.616-  49 1.94  46 1.95  38 2.13  50 2.14  47 2.19  31 2.25  23 2.71  20 2.75
                            11 2.83  24 2.85  12 2.88   6 3.06
  22  0.650  0.328  0.002-  48 1.96  51 1.97  50 2.09  39 2.19  41 2.25  38 2.43  14 2.87  25 2.90
                             7 2.91  23 2.92  10 2.93  11 2.95  13 3.00  19 3.07
  23  0.850  0.429  0.330-  34 1.99  49 2.03  51 2.12  48 2.21  31 2.34  33 2.39  21 2.71  14 2.87
                            24 2.90  20 2.92  22 2.92   7 2.94  26 2.94  11 2.98   6 3.02
  24  0.729  0.523  0.644-  41 1.99  52 2.05  49 2.05  53 2.08  50 2.08  12 2.75  15 2.85  21 2.85
                            27 2.86  14 2.90  23 2.90  25 3.07
  25  0.640  0.639  0.993-  51 2.07  54 2.08  42 2.10  44 2.17  53 2.17  41 2.25  26 2.89  22 2.90
                            17 2.90  14 2.92  13 2.94  16 2.98  24 3.07
  26  0.853  0.750  0.307-  54 2.04  51 2.09  52 2.27  36 2.28  28 2.30  34 2.50  27 2.88  25 2.89
                            14 2.92  17 2.93  23 2.94
  27  0.744  0.842  0.628-  52 1.90  53 1.98  44 2.11  46 2.35  47 2.37  28 2.37  24 2.86  18 2.88
                            26 2.88  15 2.92  17 2.94
  28  0.999  0.996  0.468-   2 2.07   3 2.08  26 2.30  27 2.37  20 2.39   9 2.44
  29  0.202  0.104  0.784-   3 2.02  12 2.12   1 2.21   9 2.34  10 2.37  13 2.45
  30  0.103  0.208  0.172-   2 2.03   1 2.05  13 2.07   5 2.11   4 2.22  20 2.39
  31  0.987  0.304  0.474-  20 1.98   3 2.00   5 2.06   6 2.07  21 2.25  23 2.34
  32  0.212  0.435  0.790-   6 1.95  15 2.06   3 2.15  16 2.23   4 2.31  13 2.43
  33  0.104  0.538  0.158-   7 2.00   8 2.07  16 2.09   4 2.09   5 2.16  23 2.39
  34  0.004  0.630  0.475-  23 1.99   8 2.02   6 2.03   9 2.11  26 2.50
  35  0.206  0.737  0.796-   9 2.01   6 2.12  18 2.16  16 2.19   7 2.30
  36  0.103  0.843  0.162-   8 2.07   7 2.14  10 2.23  26 2.28   2 2.35   1 2.43
  37  0.320  0.003  0.465-  11 1.92   2 1.97  12 2.16   9 2.19   8 2.30  18 2.49
  38  0.525  0.100  0.785-  12 2.07  21 2.13  10 2.22  18 2.36  19 2.42  22 2.43
  39  0.422  0.211  0.167-   2 1.96  11 1.96  13 2.03  14 2.03  10 2.05  22 2.19
  40  0.323  0.323  0.473-  15 1.99   5 2.02  12 2.03   3 2.07  14 2.08   2 2.12
  41  0.528  0.418  0.804-  24 1.99  12 2.00  15 2.16  22 2.25  25 2.25  13 2.30
  42  0.427  0.518  0.159-  13 1.90  14 1.96  17 2.09  25 2.10   5 2.16  16 2.24
  43  0.315  0.625  0.487-  15 1.92   5 1.95   6 2.01  18 2.04   8 2.13  17 2.16
  44  0.533  0.737  0.801-  18 2.09  27 2.11  15 2.11  25 2.17  16 2.24  19 2.49
  45  0.421  0.850  0.158-  17 2.04   8 2.05  16 2.07  19 2.15  10 2.35  11 2.39
  46  0.647  0.007  0.485-  20 1.94  21 1.95  18 2.10  11 2.20  27 2.35  17 2.50
  47  0.841  0.096  0.791-  19 2.19  21 2.19  27 2.37   4 2.39   3 2.43
  48  0.737  0.211  0.146-  22 1.96  19 2.08  20 2.12  11 2.16  23 2.21   4 2.33
  49  0.634  0.318  0.476-  21 1.94  12 2.01  23 2.03  11 2.03  14 2.05  24 2.05
  50  0.838  0.420  0.807-  24 2.08  22 2.09  21 2.14   7 2.19   4 2.45   6 2.48
  51  0.735  0.527  0.159-  14 1.95  22 1.97  25 2.07  26 2.09  23 2.12   7 2.34
  52  0.628  0.639  0.494-  27 1.90  15 1.93  24 2.05  17 2.12  14 2.16  26 2.27
  53  0.840  0.744  0.794-  27 1.98  24 2.08  25 2.17   9 2.42
  54  0.739  0.852  0.157-  17 2.02  26 2.04  25 2.08  19 2.20  20 2.38   1 2.46
 
  LATTYP: Found a hexagonal cell.
 ALAT       =     9.1585410021
 C/A-ratio  =     0.8152863538
  
  Lattice vectors:
  
 A1 = (   9.1585410000,   0.0000000000,   0.0000000000)
 A2 = (  -4.5792705000,   7.9315291700,   0.0000000000)
 A3 = (   0.0000000000,   0.0000000000,   7.4668335000)


Analysis of symmetry for initial positions (statically):
=====================================================================
 Subroutine PRICEL returns:
 Original cell was already a primitive cell.
 

 Routine SETGRP: Setting up the symmetry group for a 
 hexagonal supercell.


 Subroutine GETGRP returns: Found  1 space group operations
 (whereof  1 operations were pure point group operations)
 out of a pool of 24 trial point group operations.


The static configuration has the point symmetry C_1 .


Analysis of symmetry for dynamics (positions and initial velocities):
=====================================================================
 Subroutine PRICEL returns:
 Original cell was already a primitive cell.
 

 Routine SETGRP: Setting up the symmetry group for a 
 hexagonal supercell.


 Subroutine GETGRP returns: Found  1 space group operations
 (whereof  1 operations were pure point group operations)
 out of a pool of 24 trial point group operations.


The dynamic configuration has the point symmetry C_1 .


Analysis of structural, dynamic, and magnetic symmetry:
=====================================================================
 Subroutine PRICEL returns:
 Original cell was already a primitive cell.
 

 Routine SETGRP: Setting up the symmetry group for a 
 hexagonal supercell.


 Subroutine GETGRP returns: Found  1 space group operations
 (whereof  1 operations were pure point group operations)
 out of a pool of 24 trial point group operations.


The magnetic configuration has the point symmetry C_1 .


 Subroutine INISYM returns: Found  1 space group operations
 (whereof  1 operations are pure point group operations),
 and found     1 'primitive' translations

 
 
 KPOINTS: Automatic mesh                          

Automatic generation of k-mesh.
Space group operators:
 irot       det(A)        alpha          n_x          n_y          n_z        tau_x        tau_y        tau_z
    1     1.000000     0.000000     1.000000     0.000000     0.000000     0.000000     0.000000     0.000000
 
 Subroutine IBZKPT returns following result:
 ===========================================
 
 Found     36 irreducible k-points:
 
 Following reciprocal coordinates:
            Coordinates               Weight
  0.000000  0.000000  0.000000      1.000000
  0.250000 -0.000000  0.000000      2.000000
  0.500000 -0.000000  0.000000      1.000000
  0.000000  0.250000  0.000000      2.000000
  0.250000  0.250000  0.000000      2.000000
  0.500000  0.250000  0.000000      2.000000
 -0.250000  0.250000  0.000000      2.000000
  0.000000  0.500000  0.000000      1.000000
  0.250000  0.500000  0.000000      2.000000
  0.500000  0.500000  0.000000      1.000000
  0.000000  0.000000  0.250000      2.000000
  0.250000 -0.000000  0.250000      2.000000
  0.500000 -0.000000  0.250000      2.000000
 -0.250000  0.000000  0.250000      2.000000
  0.000000  0.250000  0.250000      2.000000
  0.250000  0.250000  0.250000      2.000000
  0.500000  0.250000  0.250000      2.000000
 -0.250000  0.250000  0.250000      2.000000
  0.000000  0.500000  0.250000      2.000000
  0.250000  0.500000  0.250000      2.000000
  0.500000  0.500000  0.250000      2.000000
 -0.250000  0.500000  0.250000      2.000000
  0.000000 -0.250000  0.250000      2.000000
  0.250000 -0.250000  0.250000      2.000000
  0.500000 -0.250000  0.250000      2.000000
 -0.250000 -0.250000  0.250000      2.000000
  0.000000  0.000000  0.500000      1.000000
  0.250000 -0.000000  0.500000      2.000000
  0.500000 -0.000000  0.500000      1.000000
  0.000000  0.250000  0.500000      2.000000
  0.250000  0.250000  0.500000      2.000000
  0.500000  0.250000  0.500000      2.000000
 -0.250000  0.250000  0.500000      2.000000
  0.000000  0.500000  0.500000      1.000000
  0.250000  0.500000  0.500000      2.000000
  0.500000  0.500000  0.500000      1.000000
 
 Following cartesian coordinates:
            Coordinates               Weight
  0.000000  0.000000  0.000000      1.000000
  0.027297  0.015760  0.000000      2.000000
  0.054594  0.031520  0.000000      1.000000
  0.000000  0.031520  0.000000      2.000000
  0.027297  0.047280  0.000000      2.000000
  0.054594  0.063040  0.000000      2.000000
 -0.027297  0.015760  0.000000      2.000000
  0.000000  0.063040  0.000000      1.000000
  0.027297  0.078799  0.000000      2.000000
  0.054594  0.094559  0.000000      1.000000
  0.000000  0.000000  0.033481      2.000000
  0.027297  0.015760  0.033481      2.000000
  0.054594  0.031520  0.033481      2.000000
 -0.027297 -0.015760  0.033481      2.000000
  0.000000  0.031520  0.033481      2.000000
  0.027297  0.047280  0.033481      2.000000
  0.054594  0.063040  0.033481      2.000000
 -0.027297  0.015760  0.033481      2.000000
  0.000000  0.063040  0.033481      2.000000
  0.027297  0.078799  0.033481      2.000000
  0.054594  0.094559  0.033481      2.000000
 -0.027297  0.047280  0.033481      2.000000
  0.000000 -0.031520  0.033481      2.000000
  0.027297 -0.015760  0.033481      2.000000
  0.054594  0.000000  0.033481      2.000000
 -0.027297 -0.047280  0.033481      2.000000
  0.000000  0.000000  0.066963      1.000000
  0.027297  0.015760  0.066963      2.000000
  0.054594  0.031520  0.066963      1.000000
  0.000000  0.031520  0.066963      2.000000
  0.027297  0.047280  0.066963      2.000000
  0.054594  0.063040  0.066963      2.000000
 -0.027297  0.015760  0.066963      2.000000
  0.000000  0.063040  0.066963      1.000000
  0.027297  0.078799  0.066963      2.000000
  0.054594  0.094559  0.066963      1.000000
 


--------------------------------------------------------------------------------------------------------




 Dimension of arrays:
   k-points           NKPTS =     36   k-points in BZ     NKDIM =     36   number of bands    NBANDS=    304
   number of dos      NEDOS =    301   number of ions     NIONS =     54
   non local maximal  LDIM  =      6   non local SUM 2l+1 LMDIM =     18
   total plane-waves  NPLWV = 264600
   max r-space proj   IRMAX =   6599   max aug-charges    IRDMAX=  16011
   dimension x,y,z NGX =    70 NGY =   70 NGZ =   54
   dimension x,y,z NGXF=   140 NGYF=  140 NGZF=  108
   support grid    NGXF=   140 NGYF=  140 NGZF=  108
   ions per type =              27  27
   NGX,Y,Z   is equivalent  to a cutoff of  12.71, 12.71, 12.02 a.u.
   NGXF,Y,Z  is equivalent  to a cutoff of  25.41, 25.41, 24.05 a.u.

 SYSTEM =  unknown system                          
 POSCAR =  NiO_C2_m_scale_1_050_disp_0_05_round_2  

 Startparameter for this run:
   NWRITE =      1    write-flag & timer
   PREC   = accura    normal or accurate (medium, high low for compatibility)
   ISTART =      0    job   : 0-new  1-cont  2-samecut
   ICHARG =      2    charge: 1-file 2-atom 10-const
   ISPIN  =      2    spin polarized calculation?
   LNONCOLLINEAR =      F non collinear calculations
   LSORBIT =      F    spin-orbit coupling
   INIWAV =      1    electr: 0-lowe 1-rand  2-diag
   LASPH  =      F    aspherical Exc in radial PAW
   METAGGA=      F    non-selfconsistent MetaGGA calc.

 Electronic Relaxation 1
   ENCUT  =  500.0 eV  36.75 Ry    6.06 a.u.  16.70 16.70 13.61*2*pi/ulx,y,z
   ENINI  =  500.0     initial cutoff
   ENAUG  =  605.4 eV  augmentation charge cutoff
   NELM   =     80;   NELMIN=  2; NELMDL= -5     # of ELM steps 
   EDIFF  = 0.1E-04   stopping-criterion for ELM
   LREAL  =      T    real-space projection
   NLSPLINE    = F    spline interpolate recip. space projectors
   LCOMPAT=      F    compatible to vasp.4.4
   GGA_COMPAT  = T    GGA compatible to vasp.4.4-vasp.4.6
   LMAXPAW     = -100 max onsite density
   LMAXMIX     =    2 max onsite mixed and CHGCAR
   VOSKOWN=      1    Vosko Wilk Nusair interpolation
   ROPT   =   -0.00025  -0.00025
 Ionic relaxation
   EDIFFG = 0.1E-03   stopping-criterion for IOM
   NSW    =      0    number of steps for IOM
   NBLOCK =      1;   KBLOCK =      1    inner block; outer block 
   IBRION =     -1    ionic relax: 0-MD 1-quasi-New 2-CG
   NFREE  =      0    steps in history (QN), initial steepest desc. (CG)
   ISIF   =      2    stress and relaxation
   IWAVPR =     10    prediction:  0-non 1-charg 2-wave 3-comb
   ISYM   =      2    0-nonsym 1-usesym 2-fastsym
   LCORR  =      T    Harris-Foulkes like correction to forces

   POTIM  = 0.5000    time-step for ionic-motion
   TEIN   =    0.0    initial temperature
   TEBEG  =    0.0;   TEEND  =   0.0 temperature during run
   SMASS  =  -3.00    Nose mass-parameter (am)
   estimated Nose-frequenzy (Omega)   =  0.10E-29 period in steps =****** mass=  -0.192E-26a.u.
   SCALEE = 1.0000    scale energy and forces
   NPACO  =    256;   APACO  = 16.0  distance and # of slots for P.C.
   PSTRESS=    0.0 pullay stress

  Mass of Ions in am
   POMASS =  58.69 16.00
  Ionic Valenz
   ZVAL   =  10.00  6.00
  Atomic Wigner-Seitz radii
   RWIGS  =   1.15  0.73
  virtual crystal weights 
   VCA    =   1.00  1.00
   NELECT =     432.0000    total number of electrons
   NUPDOWN=      -1.0000    fix difference up-down

 DOS related values:
   EMIN   =  10.00;   EMAX   =-10.00  energy-range for DOS
   EFERMI =   0.00
   ISMEAR =     0;   SIGMA  =   0.05  broadening in eV -4-tet -1-fermi 0-gaus

 Electronic relaxation 2 (details)
   IALGO  =     38    algorithm
   LDIAG  =      T    sub-space diagonalisation (order eigenvalues)
   LSUBROT=      F    optimize rotation matrix (better conditioning)
   TURBO    =      0    0=normal 1=particle mesh
   IRESTART =      0    0=no restart 2=restart with 2 vectors
   NREBOOT  =      0    no. of reboots
   NMIN     =      0    reboot dimension
   EREF     =   0.00    reference energy to select bands
   IMIX   =      4    mixing-type and parameters
     AMIX     =   0.40;   BMIX     =  1.00
     AMIX_MAG =   1.60;   BMIX_MAG =  1.00
     AMIN     =   0.10
     WC   =   100.;   INIMIX=   1;  MIXPRE=   1;  MAXMIX= -45

 Intra band minimization:
   WEIMIN = 0.0000     energy-eigenvalue tresh-hold
   EBREAK =  0.82E-08  absolut break condition
   DEPER  =   0.30     relativ break condition  

   TIME   =   0.40     timestep for ELM

  volume/ion in A,a.u.               =      10.04        67.78
  Fermi-wavevector in a.u.,A,eV,Ry     =   1.517503  2.867665 31.331699  2.302815
  Thomas-Fermi vector in A             =   2.626749
 
 Write flags
   LWAVE        =      F    write WAVECAR
   LDOWNSAMPLE  =      F    k-point downsampling of WAVECAR
   LCHARG       =      T    write CHGCAR
   LVTOT        =      F    write LOCPOT, total local potential
   LVHAR        =      F    write LOCPOT, Hartree potential only
   LELF         =      F    write electronic localiz. function (ELF)
   LORBIT       =      0    0 simple, 1 ext, 2 COOP (PROOUT), +10 PAW based schemes


 Dipole corrections
   LMONO  =      F    monopole corrections only (constant potential shift)
   LDIPOL =      F    correct potential (dipole corrections)
   IDIPOL =      0    1-x, 2-y, 3-z, 4-all directions 
   EPSILON=  1.0000000 bulk dielectric constant

 Exchange correlation treatment:
   GGA     =    PS    GGA type
   LEXCH   =    14    internal setting for exchange type
   VOSKOWN=      1    Vosko Wilk Nusair interpolation
   LHFCALC =     F    Hartree Fock is set to
   LHFONE  =     F    Hartree Fock one center treatment
   AEXX    =    0.0000 exact exchange contribution

 Linear response parameters
   LEPSILON=     F    determine dielectric tensor
   LRPA    =     F    only Hartree local field effects (RPA)
   LNABLA  =     F    use nabla operator in PAW spheres
   LVEL    =     F    velocity operator in full k-point grid
   LINTERFAST=   F  fast interpolation
   KINTER  =     0    interpolate to denser k-point grid
   CSHIFT  =0.1000    complex shift for real part using Kramers Kronig
   OMEGAMAX=  -1.0    maximum frequency
   DEG_THRESHOLD= 0.2000000E-02 threshold for treating states as degnerate
   RTIME   =   -0.100 relaxation time in fs
  (WPLASMAI=    0.000 imaginary part of plasma frequency in eV, 0.658/RTIME)
   DFIELD  = 0.0000000 0.0000000 0.0000000 field for delta impulse in time
 
 Orbital magnetization related:
   ORBITALMAG=     F  switch on orbital magnetization
   LCHIMAG   =     F  perturbation theory with respect to B field
   DQ        =  0.001000  dq finite difference perturbation B field
   LLRAUG    =     F  two centre corrections for induced B field



--------------------------------------------------------------------------------------------------------


 Static calculation
 charge density and potential will be updated during run
 spin polarized calculation
 Variant of blocked Davidson
 Davidson routine will perform the subspace rotation
 perform sub-space diagonalisation
    after iterative eigenvector-optimisation
 modified Broyden-mixing scheme, WC =      100.0
 initial mixing is a Kerker type mixing with AMIX =  0.4000 and BMIX =      1.0000
 Hartree-type preconditioning will be used
 using additional bands           88
 real space projection scheme for non local part
 use partial core corrections
 calculate Harris-corrections to forces 
   (improved forces if not selfconsistent)
 use gradient corrections 
 use of overlap-Matrix (Vanderbilt PP)
 Gauss-broadening in eV      SIGMA  =   0.05


--------------------------------------------------------------------------------------------------------


  energy-cutoff  :      500.00
  volume of cell :      542.40
      direct lattice vectors                 reciprocal lattice vectors
     9.158541000  0.000000000  0.000000000     0.109187697  0.063039546  0.000000000
    -4.579270500  7.931529170  0.000000000     0.000000000  0.126079093  0.000000000
     0.000000000  0.000000000  7.466833500     0.000000000  0.000000000  0.133925579

  length of vectors
     9.158541000  9.158541002  7.466833500     0.126079093  0.126079093  0.133925579


 
 k-points in units of 2pi/SCALE and weight: Automatic mesh                          
   0.00000000  0.00000000  0.00000000       0.016
   0.02729692  0.01575989  0.00000000       0.031
   0.05459385  0.03151977  0.00000000       0.016
   0.00000000  0.03151977  0.00000000       0.031
   0.02729692  0.04727966  0.00000000       0.031
   0.05459385  0.06303955  0.00000000       0.031
  -0.02729692  0.01575989  0.00000000       0.031
   0.00000000  0.06303955  0.00000000       0.016
   0.02729692  0.07879943  0.00000000       0.031
   0.05459385  0.09455932  0.00000000       0.016
   0.00000000  0.00000000  0.03348139       0.031
   0.02729692  0.01575989  0.03348139       0.031
   0.05459385  0.03151977  0.03348139       0.031
  -0.02729692 -0.01575989  0.03348139       0.031
   0.00000000  0.03151977  0.03348139       0.031
   0.02729692  0.04727966  0.03348139       0.031
   0.05459385  0.06303955  0.03348139       0.031
  -0.02729692  0.01575989  0.03348139       0.031
   0.00000000  0.06303955  0.03348139       0.031
   0.02729692  0.07879943  0.03348139       0.031
   0.05459385  0.09455932  0.03348139       0.031
  -0.02729692  0.04727966  0.03348139       0.031
   0.00000000 -0.03151977  0.03348139       0.031
   0.02729692 -0.01575989  0.03348139       0.031
   0.05459385  0.00000000  0.03348139       0.031
  -0.02729692 -0.04727966  0.03348139       0.031
   0.00000000  0.00000000  0.06696279       0.016
   0.02729692  0.01575989  0.06696279       0.031
   0.05459385  0.03151977  0.06696279       0.016
   0.00000000  0.03151977  0.06696279       0.031
   0.02729692  0.04727966  0.06696279       0.031
   0.05459385  0.06303955  0.06696279       0.031
  -0.02729692  0.01575989  0.06696279       0.031
   0.00000000  0.06303955  0.06696279       0.016
   0.02729692  0.07879943  0.06696279       0.031
   0.05459385  0.09455932  0.06696279       0.016
 
 k-points in reciprocal lattice and weights: Automatic mesh                          
   0.00000000  0.00000000  0.00000000       0.016
   0.25000000 -0.00000000  0.00000000       0.031
   0.50000000 -0.00000000  0.00000000       0.016
   0.00000000  0.25000000  0.00000000       0.031
   0.25000000  0.25000000  0.00000000       0.031
   0.50000000  0.25000000  0.00000000       0.031
  -0.25000000  0.25000000  0.00000000       0.031
   0.00000000  0.50000000  0.00000000       0.016
   0.25000000  0.50000000  0.00000000       0.031
   0.50000000  0.50000000  0.00000000       0.016
   0.00000000  0.00000000  0.25000000       0.031
   0.25000000 -0.00000000  0.25000000       0.031
   0.50000000 -0.00000000  0.25000000       0.031
  -0.25000000  0.00000000  0.25000000       0.031
   0.00000000  0.25000000  0.25000000       0.031
   0.25000000  0.25000000  0.25000000       0.031
   0.50000000  0.25000000  0.25000000       0.031
  -0.25000000  0.25000000  0.25000000       0.031
   0.00000000  0.50000000  0.25000000       0.031
   0.25000000  0.50000000  0.25000000       0.031
   0.50000000  0.50000000  0.25000000       0.031
  -0.25000000  0.50000000  0.25000000       0.031
   0.00000000 -0.25000000  0.25000000       0.031
   0.25000000 -0.25000000  0.25000000       0.031
   0.50000000 -0.25000000  0.25000000       0.031
  -0.25000000 -0.25000000  0.25000000       0.031
   0.00000000  0.00000000  0.50000000       0.016
   0.25000000 -0.00000000  0.50000000       0.031
   0.50000000 -0.00000000  0.50000000       0.016
   0.00000000  0.25000000  0.50000000       0.031
   0.25000000  0.25000000  0.50000000       0.031
   0.50000000  0.25000000  0.50000000       0.031
  -0.25000000  0.25000000  0.50000000       0.031
   0.00000000  0.50000000  0.50000000       0.016
   0.25000000  0.50000000  0.50000000       0.031
   0.50000000  0.50000000  0.50000000       0.016
 
 position of ions in fractional coordinates (direct lattice) 
   0.00848727  0.00958894  0.99657233
   0.21605552  0.10209520  0.31230928
   0.10428324  0.21222436  0.62569933
   0.99357176  0.32321536  0.99536670
   0.20968814  0.42670880  0.33243864
   0.10156806  0.51889114  0.63160273
   0.98644829  0.62204928  0.99833377
   0.21628168  0.74669125  0.32523319
   0.10695452  0.84464171  0.64127121
   0.32839990  0.00912693  0.99653728
   0.51998302  0.10840127  0.31958917
   0.42911047  0.22330737  0.63450354
   0.31831371  0.32106177  0.01619797
   0.53721266  0.42802173  0.31285663
   0.42046045  0.52717195  0.62726084
   0.31593092  0.64174983  0.99190673
   0.52809588  0.74092082  0.30741851
   0.42992280  0.84305727  0.63180212
   0.64469597  0.99002659  0.99726787
   0.84002556  0.10522730  0.32537428
   0.74106023  0.21876660  0.61643931
   0.64958495  0.32812500  0.00215024
   0.85038017  0.42870111  0.33026828
   0.72891517  0.52304753  0.64405804
   0.64023540  0.63935953  0.99293101
   0.85291431  0.75037934  0.30661369
   0.74364321  0.84219943  0.62831914
   0.99938410  0.99627963  0.46750580
   0.20197625  0.10394419  0.78392758
   0.10298568  0.20815361  0.17184773
   0.98749423  0.30360650  0.47449871
   0.21164593  0.43489263  0.79017370
   0.10429960  0.53802608  0.15817611
   0.00439442  0.63031811  0.47503629
   0.20588055  0.73680323  0.79629051
   0.10278027  0.84315179  0.16151459
   0.31983545  0.00282117  0.46505428
   0.52456472  0.09987897  0.78527907
   0.42155307  0.21141161  0.16721130
   0.32259422  0.32263638  0.47321748
   0.52750371  0.41826292  0.80362803
   0.42733588  0.51807892  0.15919828
   0.31500947  0.62495555  0.48688495
   0.53346106  0.73722629  0.80104801
   0.42139811  0.85015507  0.15779874
   0.64693259  0.00712940  0.48547797
   0.84058872  0.09626906  0.79092421
   0.73745169  0.21085305  0.14641259
   0.63424839  0.31787853  0.47638037
   0.83831132  0.41958694  0.80738369
   0.73549821  0.52680948  0.15931335
   0.62814276  0.63909757  0.49420900
   0.84037526  0.74416750  0.79434057
   0.73893339  0.85181359  0.15651312
 
 position of ions in cartesian coordinates  (Angst):
   0.03382066  0.07605496  7.44123966
   1.51123180  0.80977106  2.33196139
  -0.01675042  1.68326370  4.67199272
   7.61957714  2.56359206  7.43223742
  -0.03357759  3.38445329  2.48226397
  -1.44592765  4.11560021  4.71607242
   6.18589519  4.93380201  7.45439204
  -1.43847658  5.92240343  2.42846208
  -2.88829551  6.69930036  4.78826535
   2.96586927  0.07239051  7.44097795
   4.26588707  0.85978784  2.38631912
   2.90744098  1.77116892  4.73773229
   1.44506047  2.54651079  0.12094755
   2.96005689  3.39486684  2.33604837
   1.43674131  4.18127970  4.68365225
  -0.04527978  5.09005750  7.40640240
   1.44371092  5.87663510  2.29544283
   0.07687830  6.68673333  4.71756123
   1.37087492  7.85242478  7.44643314
   7.21154426  0.83461340  2.42951557
   5.78523906  1.73515367  4.60284969
   4.44667726  2.60253301  0.01605548
   5.82510331  3.40025536  2.46605826
   4.28062335  4.14856674  4.80907415
   2.93582193  5.07109876  7.41405053
   4.37526070  5.95165562  2.28943337
   2.95402782  6.67992935  4.69155440
   4.59066634  7.90202095  3.49078797
   1.37381920  0.82443638  5.85345672
  -0.00999311  1.65097643  1.28315839
   7.65371010  2.40806381  3.54300286
  -0.05312306  3.44936358  5.90009545
  -1.50853479  4.26736955  1.18107468
  -2.84615065  4.99938648  3.54701688
  -1.48845584  5.84397631  5.94576866
  -2.91970280  6.68748302  1.20600255
   2.91630718  0.02237619  3.47248288
   4.34687467  0.79219296  5.86354807
   2.89270013  1.67681735  1.24853894
   1.47705313  2.55899986  3.53343613
   2.91582530  3.31746455  6.00055670
   1.54134966  4.10915807  1.18870705
   0.02318663  4.95685317  3.63548886
   1.50976639  5.84733182  5.98129212
  -0.03369816  6.74302974  1.17825692
   5.89231120  0.05654704  3.62498317
   7.25772419  0.76356086  5.90569939
   5.78842839  1.67238712  1.09323843
   4.35313811  2.52126283  3.55705291
   5.75630650  3.32796605  6.02859958
   4.32368740  4.17840476  1.18956626
   2.82627057  5.06902102  3.69017632
   4.28886699  5.90238623  5.93120878
   2.86686690  6.75618434  1.16865741
 


--------------------------------------------------------------------------------------------------------


 k-point  1 :   0.0000 0.0000 0.0000  plane waves:   13671
 k-point  2 :   0.2500-0.0000 0.0000  plane waves:   13799
 k-point  3 :   0.5000-0.0000 0.0000  plane waves:   13796
 k-point  4 :   0.0000 0.2500 0.0000  plane waves:   13799
 k-point  5 :   0.2500 0.2500 0.0000  plane waves:   13761
 k-point  6 :   0.5000 0.2500 0.0000  plane waves:   13761
 k-point  7 :  -0.2500 0.2500 0.0000  plane waves:   13799
 k-point  8 :   0.0000 0.5000 0.0000  plane waves:   13796
 k-point  9 :   0.2500 0.5000 0.0000  plane waves:   13761
 k-point 10 :   0.5000 0.5000 0.0000  plane waves:   13796
 k-point 11 :   0.0000 0.0000 0.2500  plane waves:   13779
 k-point 12 :   0.2500-0.0000 0.2500  plane waves:   13775
 k-point 13 :   0.5000-0.0000 0.2500  plane waves:   13774
 k-point 14 :  -0.2500 0.0000 0.2500  plane waves:   13775
 k-point 15 :   0.0000 0.2500 0.2500  plane waves:   13775
 k-point 16 :   0.2500 0.2500 0.2500  plane waves:   13757
 k-point 17 :   0.5000 0.2500 0.2500  plane waves:   13757
 k-point 18 :  -0.2500 0.2500 0.2500  plane waves:   13775
 k-point 19 :   0.0000 0.5000 0.2500  plane waves:   13774
 k-point 20 :   0.2500 0.5000 0.2500  plane waves:   13757
 k-point 21 :   0.5000 0.5000 0.2500  plane waves:   13774
 k-point 22 :  -0.2500 0.5000 0.2500  plane waves:   13757
 k-point 23 :   0.0000-0.2500 0.2500  plane waves:   13775
 k-point 24 :   0.2500-0.2500 0.2500  plane waves:   13775
 k-point 25 :   0.5000-0.2500 0.2500  plane waves:   13757
 k-point 26 :  -0.2500-0.2500 0.2500  plane waves:   13757
 k-point 27 :   0.0000 0.0000 0.5000  plane waves:   13720
 k-point 28 :   0.2500-0.0000 0.5000  plane waves:   13756
 k-point 29 :   0.5000-0.0000 0.5000  plane waves:   13768
 k-point 30 :   0.0000 0.2500 0.5000  plane waves:   13756
 k-point 31 :   0.2500 0.2500 0.5000  plane waves:   13768
 k-point 32 :   0.5000 0.2500 0.5000  plane waves:   13768
 k-point 33 :  -0.2500 0.2500 0.5000  plane waves:   13756
 k-point 34 :   0.0000 0.5000 0.5000  plane waves:   13768
 k-point 35 :   0.2500 0.5000 0.5000  plane waves:   13768
 k-point 36 :   0.5000 0.5000 0.5000  plane waves:   13768

 maximum and minimum number of plane-waves per node :     13799    13671

 maximum number of plane-waves:     13799
 maximum index in each direction: 
   IXMAX=   16   IYMAX=   16   IZMAX=   13
   IXMIN=  -17   IYMIN=  -17   IZMIN=  -14

 The following grids will avoid any aliasing or wrap around errors in the Hartre
 e energy
  - symmetry arguments have not been applied
  - exchange correlation energies might require even more grid points
  - we recommend to set PREC=Normal or Accurate and rely on VASP defaults
 NGX is ok and might be reduce to    70
 NGY is ok and might be reduce to    70
 WARNING: aliasing errors must be expected set NGZ to    56 to avoid them

 serial   3D FFT for wavefunctions
 parallel 3D FFT for charge:
    minimum data exchange during FFTs selected (reduces bandwidth)


 total amount of memory used by VASP MPI-rank0   425616. kBytes
=======================================================================

   base      :      30000. kBytes
   nonlr-proj:      38202. kBytes
   fftplans  :       5725. kBytes
   grid      :      32372. kBytes
   one-center:       1679. kBytes
   wavefun   :     317638. kBytes
 
     INWAV:  cpu time    0.0000: real time    0.0000
 Broyden mixing: mesh for mixing (old mesh)
   NGX = 33   NGY = 33   NGZ = 27
  (NGX  =140   NGY  =140   NGZ  =108)
  gives a total of  29403 points

 initial charge density was supplied:
 charge density of overlapping atoms calculated
 number of electron     432.0000000 magnetization      67.5000000
 keeping initial charge density in first step


--------------------------------------------------------------------------------------------------------


 Maximum index for non-local projection operator         6366
 Maximum index for augmentation-charges         1114 (set IRDMAX)


--------------------------------------------------------------------------------------------------------


 First call to EWALD:  gamma=   0.217
 Maximum number of real-space cells 3x 3x 3
 Maximum number of reciprocal cells 3x 3x 3

    FEWALD:  cpu time    0.0025: real time    0.0025


--------------------------------------- Iteration      1(   1)  ---------------------------------------


    POTLOK:  cpu time    0.1745: real time    0.1863
    SETDIJ:  cpu time    0.0258: real time    0.0294
     EDDAV:  cpu time  123.4533: real time  123.7466
    --------------------------------------------
      LOOP:  cpu time  123.6582: real time  123.9677

 eigenvalue-minimisations  : 43776
 total energy-change (2. order) : 0.5039792E+04  (-0.1766472E+05)
 number of electron     432.0000000 magnetization      67.5000000
 augmentation part      432.0000000 magnetization      67.5000000

 Free energy of the ion-electron system (eV)
  ---------------------------------------------------
  alpha Z        PSCENC =      1594.73536772
  Ewald energy   TEWEN  =    -33080.30150825
  -Hartree energ DENC   =    -10226.39421224
  -exchange      EXHF   =         0.00000000
  -V(xc)+E(xc)   XCENC  =      1635.78159357
  PAW double counting   =     35307.98069315   -37155.18892105
  entropy T*S    EENTRO =        -0.00977308
  eigenvalues    EBANDS =      6254.71329974
  atomic energy  EATOM  =     40708.47505058
  Solvation  Ediel_sol  =         0.00000000
  ---------------------------------------------------
  free energy    TOTEN  =      5039.79159015 eV

  energy without entropy =     5039.80136323  energy(sigma->0) =     5039.79647669


--------------------------------------------------------------------------------------------------------




--------------------------------------- Iteration      1(   2)  ---------------------------------------


     EDDAV:  cpu time  121.1355: real time  121.4241
    --------------------------------------------
      LOOP:  cpu time  121.1350: real time  121.4228

 eigenvalue-minimisations  : 43776
 total energy-change (2. order) :-0.4340274E+04  (-0.3939000E+04)
 number of electron     432.0000000 magnetization      67.5000000
 augmentation part      432.0000000 magnetization      67.5000000

 Free energy of the ion-electron system (eV)
  ---------------------------------------------------
  alpha Z        PSCENC =      1594.73536772
  Ewald energy   TEWEN  =    -33080.30150825
  -Hartree energ DENC   =    -10226.39421224
  -exchange      EXHF   =         0.00000000
  -V(xc)+E(xc)   XCENC  =      1635.78159357
  PAW double counting   =     35307.98069315   -37155.18892105
  entropy T*S    EENTRO =        -0.02934940
  eigenvalues    EBANDS =      1914.45921117
  atomic energy  EATOM  =     40708.47505058
  Solvation  Ediel_sol  =         0.00000000
  ---------------------------------------------------
  free energy    TOTEN  =       699.51792527 eV

  energy without entropy =      699.54727467  energy(sigma->0) =      699.53259997


--------------------------------------------------------------------------------------------------------




--------------------------------------- Iteration      1(   3)  ---------------------------------------


     EDDAV:  cpu time  130.0667: real time  130.3757
    --------------------------------------------
      LOOP:  cpu time  130.0669: real time  130.3759

 eigenvalue-minimisations  : 44880
 total energy-change (2. order) :-0.9831778E+03  (-0.8713746E+03)
 number of electron     432.0000000 magnetization      67.5000000
 augmentation part      432.0000000 magnetization      67.5000000

 Free energy of the ion-electron system (eV)
  ---------------------------------------------------
  alpha Z        PSCENC =      1594.73536772
  Ewald energy   TEWEN  =    -33080.30150825
  -Hartree energ DENC   =    -10226.39421224
  -exchange      EXHF   =         0.00000000
  -V(xc)+E(xc)   XCENC  =      1635.78159357
  PAW double counting   =     35307.98069315   -37155.18892105
  entropy T*S    EENTRO =        -0.12006452
  eigenvalues    EBANDS =       931.37208713
  atomic energy  EATOM  =     40708.47505058
  Solvation  Ediel_sol  =         0.00000000
  ---------------------------------------------------
  free energy    TOTEN  =      -283.65991390 eV

  energy without entropy =     -283.53984938  energy(sigma->0) =     -283.59988164


--------------------------------------------------------------------------------------------------------




--------------------------------------- Iteration      1(   4)  ---------------------------------------


     EDDAV:  cpu time  136.2531: real time  136.5769
    --------------------------------------------
      LOOP:  cpu time  136.2530: real time  136.5767

 eigenvalue-minimisations  : 50992
 total energy-change (2. order) :-0.1114326E+03  (-0.1054856E+03)
 number of electron     432.0000000 magnetization      67.5000000
 augmentation part      432.0000000 magnetization      67.5000000

 Free energy of the ion-electron system (eV)
  ---------------------------------------------------
  alpha Z        PSCENC =      1594.73536772
  Ewald energy   TEWEN  =    -33080.30150825
  -Hartree energ DENC   =    -10226.39421224
  -exchange      EXHF   =         0.00000000
  -V(xc)+E(xc)   XCENC  =      1635.78159357
  PAW double counting   =     35307.98069315   -37155.18892105
  entropy T*S    EENTRO =        -0.12968609
  eigenvalues    EBANDS =       819.94914246
  atomic energy  EATOM  =     40708.47505058
  Solvation  Ediel_sol  =         0.00000000
  ---------------------------------------------------
  free energy    TOTEN  =      -395.09248014 eV

  energy without entropy =     -394.96279405  energy(sigma->0) =     -395.02763710


--------------------------------------------------------------------------------------------------------




--------------------------------------- Iteration      1(   5)  ---------------------------------------


     EDDAV:  cpu time  133.9023: real time  134.2203
    CHARGE:  cpu time    4.5222: real time    4.5369
    MIXING:  cpu time    0.0039: real time    0.0098
    --------------------------------------------
      LOOP:  cpu time  138.4241: real time  138.7628

 eigenvalue-minimisations  : 49920
 total energy-change (2. order) :-0.2965687E+01  (-0.2937608E+01)
 number of electron     432.0000054 magnetization      61.1606598
 augmentation part      171.0957537 magnetization      48.1373954

 Broyden mixing:
  rms(total) = 0.77008E+01    rms(broyden)= 0.76993E+01
  rms(prec ) = 0.10657E+02
  weight for this iteration     100.00

 Free energy of the ion-electron system (eV)
  ---------------------------------------------------
  alpha Z        PSCENC =      1594.73536772
  Ewald energy   TEWEN  =    -33080.30150825
  -Hartree energ DENC   =    -10226.39421224
  -exchange      EXHF   =         0.00000000
  -V(xc)+E(xc)   XCENC  =      1635.78159357
  PAW double counting   =     35307.98069315   -37155.18892105
  entropy T*S    EENTRO =        -0.12794536
  eigenvalues    EBANDS =       816.98171467
  atomic energy  EATOM  =     40708.47505058
  Solvation  Ediel_sol  =         0.00000000
  ---------------------------------------------------
  free energy    TOTEN  =      -398.05816720 eV

  energy without entropy =     -397.93022184  energy(sigma->0) =     -397.99419452


--------------------------------------------------------------------------------------------------------




--------------------------------------- Iteration      1(   6)  ---------------------------------------


    POTLOK:  cpu time    0.1504: real time    0.1508
    SETDIJ:  cpu time    0.0244: real time    0.0244
     EDDAV:  cpu time  159.3056: real time  159.6841
    CHARGE:  cpu time    4.3745: real time    4.3849
    MIXING:  cpu time    0.0041: real time    0.0183
    --------------------------------------------
      LOOP:  cpu time  163.8590: real time  164.2625

 eigenvalue-minimisations  : 62256
 total energy-change (2. order) :-0.1027886E+02  (-0.5013960E+02)
 number of electron     432.0000046 magnetization      51.5636178
 augmentation part      201.8516744 magnetization      46.5849706

 Broyden mixing:
  rms(total) = 0.13824E+02    rms(broyden)= 0.13823E+02
  rms(prec ) = 0.16833E+02
  weight for this iteration     100.00

 eigenvalues of (default mixing * dielectric matrix)
  average eigenvalue GAMMA=   0.2137
  0.2137

 Free energy of the ion-electron system (eV)
  ---------------------------------------------------
  alpha Z        PSCENC =      1594.73536772
  Ewald energy   TEWEN  =    -33080.30150825
  -Hartree energ DENC   =     -9806.04200395
  -exchange      EXHF   =         0.00000000
  -V(xc)+E(xc)   XCENC  =      1629.39634775
  PAW double counting   =     36953.28535786   -38624.50975270
  entropy T*S    EENTRO =        -0.05051962
  eigenvalues    EBANDS =       216.67463402
  atomic energy  EATOM  =     40708.47505058
  Solvation  Ediel_sol  =         0.00000000
  ---------------------------------------------------
  free energy    TOTEN  =      -408.33702659 eV

  energy without entropy =     -408.28650697  energy(sigma->0) =     -408.31176678


--------------------------------------------------------------------------------------------------------




--------------------------------------- Iteration      1(   7)  ---------------------------------------


    POTLOK:  cpu time    0.1511: real time    0.1514
    SETDIJ:  cpu time    0.0242: real time    0.0243
     EDDAV:  cpu time  137.1399: real time  137.4657
    CHARGE:  cpu time    4.3844: real time    4.3948
    MIXING:  cpu time    0.0039: real time    0.0084
    --------------------------------------------
      LOOP:  cpu time  141.7035: real time  142.0445

 eigenvalue-minimisations  : 51648
 total energy-change (2. order) : 0.7577788E+02  (-0.1968196E+02)
 number of electron     432.0000047 magnetization      47.3691519
 augmentation part      186.9688113 magnetization      37.7490736

 Broyden mixing:
  rms(total) = 0.62468E+01    rms(broyden)= 0.62458E+01
  rms(prec ) = 0.83917E+01
  weight for this iteration     100.00

 eigenvalues of (default mixing * dielectric matrix)
  average eigenvalue GAMMA=   0.3894
  0.3894  0.3894

 Free energy of the ion-electron system (eV)
  ---------------------------------------------------
  alpha Z        PSCENC =      1594.73536772
  Ewald energy   TEWEN  =    -33080.30150825
  -Hartree energ DENC   =     -9953.78601720
  -exchange      EXHF   =         0.00000000
  -V(xc)+E(xc)   XCENC  =      1621.38255371
  PAW double counting   =     38032.87827029   -39826.03624562
  entropy T*S    EENTRO =        -0.08768147
  eigenvalues    EBANDS =       570.18105945
  atomic energy  EATOM  =     40708.47505058
  Solvation  Ediel_sol  =         0.00000000
  ---------------------------------------------------
  free energy    TOTEN  =      -332.55915078 eV

  energy without entropy =     -332.47146931  energy(sigma->0) =     -332.51531005


--------------------------------------------------------------------------------------------------------




--------------------------------------- Iteration      1(   8)  ---------------------------------------


    POTLOK:  cpu time    0.1476: real time    0.1480
    SETDIJ:  cpu time    0.0232: real time    0.0232
     EDDAV:  cpu time  148.3693: real time  148.7217
    CHARGE:  cpu time    4.4108: real time    4.4214
    MIXING:  cpu time    0.0037: real time    0.0037
    --------------------------------------------
      LOOP:  cpu time  152.9546: real time  153.3180

 eigenvalue-minimisations  : 57056
 total energy-change (2. order) :-0.2210123E+02  (-0.1148589E+02)
 number of electron     432.0000055 magnetization      42.2331605
 augmentation part      184.2673097 magnetization      34.0037849

 Broyden mixing:
  rms(total) = 0.96401E+01    rms(broyden)= 0.96393E+01
  rms(prec ) = 0.15279E+02
  weight for this iteration     100.00

 eigenvalues of (default mixing * dielectric matrix)
  average eigenvalue GAMMA=   0.4300
  0.6632  0.4983  0.1286

 Free energy of the ion-electron system (eV)
  ---------------------------------------------------
  alpha Z        PSCENC =      1594.73536772
  Ewald energy   TEWEN  =    -33080.30150825
  -Hartree energ DENC   =     -9975.27163225
  -exchange      EXHF   =         0.00000000
  -V(xc)+E(xc)   XCENC  =      1619.52181082
  PAW double counting   =     38644.56524480   -40471.48370903
  entropy T*S    EENTRO =        -0.07097362
  eigenvalues    EBANDS =       605.16997127
  atomic energy  EATOM  =     40708.47505058
  Solvation  Ediel_sol  =         0.00000000
  ---------------------------------------------------
  free energy    TOTEN  =      -354.66037795 eV

  energy without entropy =     -354.58940433  energy(sigma->0) =     -354.62489114


--------------------------------------------------------------------------------------------------------




--------------------------------------- Iteration      1(   9)  ---------------------------------------


    POTLOK:  cpu time    0.1499: real time    0.1502
    SETDIJ:  cpu time    0.0241: real time    0.0242
     EDDAV:  cpu time  155.5976: real time  155.9672
    CHARGE:  cpu time    5.4153: real time    5.4281
    MIXING:  cpu time    0.0053: real time    0.0053
    --------------------------------------------
      LOOP:  cpu time  161.1921: real time  161.5750

 eigenvalue-minimisations  : 57376
 total energy-change (2. order) : 0.7149669E+01  (-0.1345566E+02)
 number of electron     432.0000053 magnetization      39.5493180
 augmentation part      184.8044146 magnetization      32.1334893

 Broyden mixing:
  rms(total) = 0.81366E+01    rms(broyden)= 0.81357E+01
  rms(prec ) = 0.12240E+02
  weight for this iteration     100.00

 eigenvalues of (default mixing * dielectric matrix)
  average eigenvalue GAMMA=   0.3854
  0.7969  0.4813  0.1681  0.0953

 Free energy of the ion-electron system (eV)
  ---------------------------------------------------
  alpha Z        PSCENC =      1594.73536772
  Ewald energy   TEWEN  =    -33080.30150825
  -Hartree energ DENC   =     -9942.06649810
  -exchange      EXHF   =         0.00000000
  -V(xc)+E(xc)   XCENC  =      1617.81893780
  PAW double counting   =     39363.78936670   -41211.47976003
  entropy T*S    EENTRO =        -0.10289469
  eigenvalues    EBANDS =       601.62122890
  atomic energy  EATOM  =     40708.47505058
  Solvation  Ediel_sol  =         0.00000000
  ---------------------------------------------------
  free energy    TOTEN  =      -347.51070937 eV

  energy without entropy =     -347.40781469  energy(sigma->0) =     -347.45926203


--------------------------------------------------------------------------------------------------------




--------------------------------------- Iteration      1(  10)  ---------------------------------------


    POTLOK:  cpu time    0.2136: real time    0.2141
    SETDIJ:  cpu time    0.0485: real time    0.0486
     EDDAV:  cpu time  145.0265: real time  145.3710
    CHARGE:  cpu time    4.4480: real time    4.4585
    MIXING:  cpu time    0.0043: real time    0.0059
    --------------------------------------------
      LOOP:  cpu time  149.7409: real time  150.0982

 eigenvalue-minimisations  : 54496
 total energy-change (2. order) : 0.1272686E+02  (-0.6236368E+01)
 number of electron     432.0000044 magnetization      36.3655914
 augmentation part      185.3492658 magnetization      27.7713759

 Broyden mixing:
  rms(total) = 0.64170E+01    rms(broyden)= 0.64162E+01
  rms(prec ) = 0.97195E+01
  weight for this iteration     100.00

 eigenvalues of (default mixing * dielectric matrix)
  average eigenvalue GAMMA=   0.4068
  1.0095  0.5153  0.3052  0.1019  0.1019

 Free energy of the ion-electron system (eV)
  ---------------------------------------------------
  alpha Z        PSCENC =      1594.73536772
  Ewald energy   TEWEN  =    -33080.30150825
  -Hartree energ DENC   =     -9931.07433911
  -exchange      EXHF   =         0.00000000
  -V(xc)+E(xc)   XCENC  =      1617.14265996
  PAW double counting   =     39705.47752172   -41563.90807455
  entropy T*S    EENTRO =        -0.08565148
  eigenvalues    EBANDS =       614.75512064
  atomic energy  EATOM  =     40708.47505058
  Solvation  Ediel_sol  =         0.00000000
  ---------------------------------------------------
  free energy    TOTEN  =      -334.78385276 eV

  energy without entropy =     -334.69820128  energy(sigma->0) =     -334.74102702


--------------------------------------------------------------------------------------------------------




--------------------------------------- Iteration      1(  11)  ---------------------------------------


    POTLOK:  cpu time    0.1509: real time    0.1513
    SETDIJ:  cpu time    0.0240: real time    0.0241
     EDDAV:  cpu time  143.7591: real time  144.1010
    CHARGE:  cpu time    4.0940: real time    4.1037
    MIXING:  cpu time    0.0040: real time    0.0040
    --------------------------------------------
      LOOP:  cpu time  148.0321: real time  148.3841

 eigenvalue-minimisations  : 54304
 total energy-change (2. order) :-0.1025085E+02  (-0.7228347E+01)
 number of electron     432.0000046 magnetization      31.8109285
 augmentation part      185.5022278 magnetization      25.2038698

 Broyden mixing:
  rms(total) = 0.75409E+01    rms(broyden)= 0.75404E+01
  rms(prec ) = 0.12476E+02
  weight for this iteration     100.00

 eigenvalues of (default mixing * dielectric matrix)
  average eigenvalue GAMMA=   0.4153
  1.2417  0.5905  0.3316  0.1218  0.1218  0.0843

 Free energy of the ion-electron system (eV)
  ---------------------------------------------------
  alpha Z        PSCENC =      1594.73536772
  Ewald energy   TEWEN  =    -33080.30150825
  -Hartree energ DENC   =     -9927.69787989
  -exchange      EXHF   =         0.00000000
  -V(xc)+E(xc)   XCENC  =      1616.51795639
  PAW double counting   =     40139.24829394   -42010.61664431
  entropy T*S    EENTRO =        -0.06627511
  eigenvalues    EBANDS =       614.67094029
  atomic energy  EATOM  =     40708.47505058
  Solvation  Ediel_sol  =         0.00000000
  ---------------------------------------------------
  free energy    TOTEN  =      -345.03469863 eV

  energy without entropy =     -344.96842352  energy(sigma->0) =     -345.00156108


--------------------------------------------------------------------------------------------------------




--------------------------------------- Iteration      1(  12)  ---------------------------------------


    POTLOK:  cpu time    0.1501: real time    0.1504
    SETDIJ:  cpu time    0.0240: real time    0.0241
     EDDAV:  cpu time  147.4842: real time  147.8346
    CHARGE:  cpu time    4.1789: real time    4.1888
    MIXING:  cpu time    0.0039: real time    0.0040
    --------------------------------------------
      LOOP:  cpu time  151.8412: real time  152.2019

 eigenvalue-minimisations  : 56224
 total energy-change (2. order) : 0.1193008E+02  (-0.7660779E+01)
 number of electron     432.0000055 magnetization      29.5776895
 augmentation part      185.8663141 magnetization      22.5114610

 Broyden mixing:
  rms(total) = 0.53423E+01    rms(broyden)= 0.53418E+01
  rms(prec ) = 0.83978E+01
  weight for this iteration     100.00

 eigenvalues of (default mixing * dielectric matrix)
  average eigenvalue GAMMA=   0.4361
  1.5172  0.6379  0.3371  0.2792  0.1019  0.0897  0.0897

 Free energy of the ion-electron system (eV)
  ---------------------------------------------------
  alpha Z        PSCENC =      1594.73536772
  Ewald energy   TEWEN  =    -33080.30150825
  -Hartree energ DENC   =     -9919.81106067
  -exchange      EXHF   =         0.00000000
  -V(xc)+E(xc)   XCENC  =      1615.73439898
  PAW double counting   =     40662.79764275   -42548.61842023
  entropy T*S    EENTRO =        -0.08169226
  eigenvalues    EBANDS =       633.96560043
  atomic energy  EATOM  =     40708.47505058
  Solvation  Ediel_sol  =         0.00000000
  ---------------------------------------------------
  free energy    TOTEN  =      -333.10462094 eV

  energy without entropy =     -333.02292868  energy(sigma->0) =     -333.06377481


--------------------------------------------------------------------------------------------------------




--------------------------------------- Iteration      1(  13)  ---------------------------------------


    POTLOK:  cpu time    0.1413: real time    0.1417
    SETDIJ:  cpu time    0.0236: real time    0.0236
     EDDAV:  cpu time  141.3585: real time  141.6943
    CHARGE:  cpu time    4.4203: real time    4.4308
    MIXING:  cpu time    0.0045: real time    0.0045
    --------------------------------------------
      LOOP:  cpu time  145.9483: real time  146.2950

 eigenvalue-minimisations  : 53232
 total energy-change (2. order) :-0.3746324E+00  (-0.5900101E+01)
 number of electron     432.0000050 magnetization      27.9867610
 augmentation part      185.4871437 magnetization      21.5229773

 Broyden mixing:
  rms(total) = 0.43216E+01    rms(broyden)= 0.43208E+01
  rms(prec ) = 0.70091E+01
  weight for this iteration     100.00

 eigenvalues of (default mixing * dielectric matrix)
  average eigenvalue GAMMA=   0.4535
  1.7229  0.7309  0.3953  0.3953  0.0985  0.0985  0.0933  0.0933

 Free energy of the ion-electron system (eV)
  ---------------------------------------------------
  alpha Z        PSCENC =      1594.73536772
  Ewald energy   TEWEN  =    -33080.30150825
  -Hartree energ DENC   =     -9924.98549016
  -exchange      EXHF   =         0.00000000
  -V(xc)+E(xc)   XCENC  =      1615.37672802
  PAW double counting   =     40919.83141326   -42814.59754046
  entropy T*S    EENTRO =        -0.07721278
  eigenvalues    EBANDS =       648.06393877
  atomic energy  EATOM  =     40708.47505058
  Solvation  Ediel_sol  =         0.00000000
  ---------------------------------------------------
  free energy    TOTEN  =      -333.47925329 eV

  energy without entropy =     -333.40204051  energy(sigma->0) =     -333.44064690


--------------------------------------------------------------------------------------------------------




--------------------------------------- Iteration      1(  14)  ---------------------------------------


    POTLOK:  cpu time    0.1522: real time    0.1525
    SETDIJ:  cpu time    0.0242: real time    0.0243
     EDDAV:  cpu time  144.5747: real time  144.9182
    CHARGE:  cpu time    4.4336: real time    4.4441
    MIXING:  cpu time    0.0047: real time    0.0047
    --------------------------------------------
      LOOP:  cpu time  149.1893: real time  149.5438

 eigenvalue-minimisations  : 54672
 total energy-change (2. order) : 0.3468182E+01  (-0.2573907E+01)
 number of electron     432.0000049 magnetization      26.8945802
 augmentation part      185.5635746 magnetization      20.7682043

 Broyden mixing:
  rms(total) = 0.39865E+01    rms(broyden)= 0.39857E+01
  rms(prec ) = 0.62001E+01
  weight for this iteration     100.00

 eigenvalues of (default mixing * dielectric matrix)
  average eigenvalue GAMMA=   0.4373
  1.8295  0.7664  0.4175  0.4175  0.1164  0.1164  0.0961  0.0961  0.0794

 Free energy of the ion-electron system (eV)
  ---------------------------------------------------
  alpha Z        PSCENC =      1594.73536772
  Ewald energy   TEWEN  =    -33080.30150825
  -Hartree energ DENC   =     -9921.01500076
  -exchange      EXHF   =         0.00000000
  -V(xc)+E(xc)   XCENC  =      1615.04351280
  PAW double counting   =     41071.62132022   -42970.60686201
  entropy T*S    EENTRO =        -0.08433721
  eigenvalues    EBANDS =       652.12138529
  atomic energy  EATOM  =     40708.47505058
  Solvation  Ediel_sol  =         0.00000000
  ---------------------------------------------------
  free energy    TOTEN  =      -330.01107162 eV

  energy without entropy =     -329.92673441  energy(sigma->0) =     -329.96890301


--------------------------------------------------------------------------------------------------------




--------------------------------------- Iteration      1(  15)  ---------------------------------------


    POTLOK:  cpu time    0.1499: real time    0.1503
    SETDIJ:  cpu time    0.0242: real time    0.0243
     EDDAV:  cpu time  142.9779: real time  143.3176
    CHARGE:  cpu time    4.3597: real time    4.3700
    MIXING:  cpu time    0.0047: real time    0.0047
    --------------------------------------------
      LOOP:  cpu time  147.5166: real time  147.8670

 eigenvalue-minimisations  : 53616
 total energy-change (2. order) : 0.4259980E+01  (-0.1606217E+01)
 number of electron     432.0000050 magnetization      26.6228645
 augmentation part      185.4619351 magnetization      20.4641738

 Broyden mixing:
  rms(total) = 0.24053E+01    rms(broyden)= 0.24046E+01
  rms(prec ) = 0.36789E+01
  weight for this iteration     100.00

 eigenvalues of (default mixing * dielectric matrix)
  average eigenvalue GAMMA=   0.4100
  1.8180  0.7733  0.4096  0.4096  0.1899  0.1100  0.1100  0.0994  0.0994  0.0805

 Free energy of the ion-electron system (eV)
  ---------------------------------------------------
  alpha Z        PSCENC =      1594.73536772
  Ewald energy   TEWEN  =    -33080.30150825
  -Hartree energ DENC   =     -9923.37369628
  -exchange      EXHF   =         0.00000000
  -V(xc)+E(xc)   XCENC  =      1614.76178864
  PAW double counting   =     41139.95551935   -43040.98560316
  entropy T*S    EENTRO =        -0.07133195
  eigenvalues    EBANDS =       661.05332183
  atomic energy  EATOM  =     40708.47505058
  Solvation  Ediel_sol  =         0.00000000
  ---------------------------------------------------
  free energy    TOTEN  =      -325.75109150 eV

  energy without entropy =     -325.67975956  energy(sigma->0) =     -325.71542553


--------------------------------------------------------------------------------------------------------




--------------------------------------- Iteration      1(  16)  ---------------------------------------


    POTLOK:  cpu time    0.1467: real time    0.1470
    SETDIJ:  cpu time    0.0240: real time    0.0241
     EDDAV:  cpu time  148.5799: real time  148.9329
    CHARGE:  cpu time    4.3251: real time    4.3354
    MIXING:  cpu time    0.0062: real time    0.0304
    --------------------------------------------
      LOOP:  cpu time  153.0818: real time  153.4698

 eigenvalue-minimisations  : 56368
 total energy-change (2. order) : 0.8845302E+00  (-0.5012216E+00)
 number of electron     432.0000050 magnetization      26.3221202
 augmentation part      185.4647973 magnetization      20.1479843

 Broyden mixing:
  rms(total) = 0.16933E+01    rms(broyden)= 0.16928E+01
  rms(prec ) = 0.25685E+01
  weight for this iteration     100.00

 eigenvalues of (default mixing * dielectric matrix)
  average eigenvalue GAMMA=   0.3974
  1.7580  0.7996  0.4408  0.4408  0.3126  0.1319  0.1319  0.0958  0.0958  0.0864
  0.0777

 Free energy of the ion-electron system (eV)
  ---------------------------------------------------
  alpha Z        PSCENC =      1594.73536772
  Ewald energy   TEWEN  =    -33080.30150825
  -Hartree energ DENC   =     -9923.94198186
  -exchange      EXHF   =         0.00000000
  -V(xc)+E(xc)   XCENC  =      1614.68385213
  PAW double counting   =     41145.37940827   -43046.20150842
  entropy T*S    EENTRO =        -0.07388812
  eigenvalues    EBANDS =       662.37864664
  atomic energy  EATOM  =     40708.47505058
  Solvation  Ediel_sol  =         0.00000000
  ---------------------------------------------------
  free energy    TOTEN  =      -324.86656130 eV

  energy without entropy =     -324.79267318  energy(sigma->0) =     -324.82961724


--------------------------------------------------------------------------------------------------------




--------------------------------------- Iteration      1(  17)  ---------------------------------------


    POTLOK:  cpu time    0.1485: real time    0.1489
    SETDIJ:  cpu time    0.0239: real time    0.0240
     EDDAV:  cpu time  148.8195: real time  149.1731
    CHARGE:  cpu time    4.0566: real time    4.0662
    MIXING:  cpu time    0.0052: real time    0.0053
    --------------------------------------------
      LOOP:  cpu time  153.0538: real time  153.4174

 eigenvalue-minimisations  : 56848
 total energy-change (2. order) : 0.1520829E+00  (-0.3703722E+00)
 number of electron     432.0000049 magnetization      26.1817959
 augmentation part      185.3077995 magnetization      19.8251860

 Broyden mixing:
  rms(total) = 0.15397E+01    rms(broyden)= 0.15394E+01
  rms(prec ) = 0.23216E+01
  weight for this iteration     100.00

 eigenvalues of (default mixing * dielectric matrix)
  average eigenvalue GAMMA=   0.3782
  1.7320  0.8156  0.4409  0.4409  0.2693  0.2693  0.1342  0.0992  0.0992  0.0880
  0.0820  0.0683

 Free energy of the ion-electron system (eV)
  ---------------------------------------------------
  alpha Z        PSCENC =      1594.73536772
  Ewald energy   TEWEN  =    -33080.30150825
  -Hartree energ DENC   =     -9924.02218867
  -exchange      EXHF   =         0.00000000
  -V(xc)+E(xc)   XCENC  =      1614.64283911
  PAW double counting   =     41133.40359268   -43032.46021380
  entropy T*S    EENTRO =        -0.07278333
  eigenvalues    EBANDS =       660.88536552
  atomic energy  EATOM  =     40708.47505058
  Solvation  Ediel_sol  =         0.00000000
  ---------------------------------------------------
  free energy    TOTEN  =      -324.71447843 eV

  energy without entropy =     -324.64169510  energy(sigma->0) =     -324.67808677


--------------------------------------------------------------------------------------------------------




--------------------------------------- Iteration      1(  18)  ---------------------------------------


    POTLOK:  cpu time    0.1486: real time    0.1490
    SETDIJ:  cpu time    0.0236: real time    0.0237
     EDDAV:  cpu time  144.1984: real time  144.5411
    CHARGE:  cpu time    4.1884: real time    4.1983
    MIXING:  cpu time    0.0060: real time    0.0095
    --------------------------------------------
      LOOP:  cpu time  148.5651: real time  148.9215

 eigenvalue-minimisations  : 55728
 total energy-change (2. order) : 0.3853038E+00  (-0.1598533E+00)
 number of electron     432.0000051 magnetization      25.9238408
 augmentation part      185.2163350 magnetization      19.6735985

 Broyden mixing:
  rms(total) = 0.11046E+01    rms(broyden)= 0.11044E+01
  rms(prec ) = 0.14815E+01
  weight for this iteration     100.00

 eigenvalues of (default mixing * dielectric matrix)
  average eigenvalue GAMMA=   0.3719
  1.7412  0.7934  0.4211  0.4211  0.3919  0.3919  0.1325  0.1050  0.1050  0.0886
  0.0886  0.0829  0.0711

 Free energy of the ion-electron system (eV)
  ---------------------------------------------------
  alpha Z        PSCENC =      1594.73536772
  Ewald energy   TEWEN  =    -33080.30150825
  -Hartree energ DENC   =     -9925.57724977
  -exchange      EXHF   =         0.00000000
  -V(xc)+E(xc)   XCENC  =      1614.69207123
  PAW double counting   =     41127.69205132   -43025.64033711
  entropy T*S    EENTRO =        -0.07318580
  eigenvalues    EBANDS =       661.66856543
  atomic energy  EATOM  =     40708.47505058
  Solvation  Ediel_sol  =         0.00000000
  ---------------------------------------------------
  free energy    TOTEN  =      -324.32917463 eV

  energy without entropy =     -324.25598883  energy(sigma->0) =     -324.29258173


--------------------------------------------------------------------------------------------------------




--------------------------------------- Iteration      1(  19)  ---------------------------------------


    POTLOK:  cpu time    0.1469: real time    0.1473
    SETDIJ:  cpu time    0.0232: real time    0.0233
     EDDAV:  cpu time  142.8114: real time  143.1506
    CHARGE:  cpu time    4.0205: real time    4.0301
    MIXING:  cpu time    0.0055: real time    0.0055
    --------------------------------------------
      LOOP:  cpu time  147.0075: real time  147.3568

 eigenvalue-minimisations  : 55088
 total energy-change (2. order) :-0.1995924E+00  (-0.8557283E-01)
 number of electron     432.0000050 magnetization      25.6050239
 augmentation part      185.1854778 magnetization      19.3703457

 Broyden mixing:
  rms(total) = 0.12139E+01    rms(broyden)= 0.12138E+01
  rms(prec ) = 0.17764E+01
  weight for this iteration     100.00

 eigenvalues of (default mixing * dielectric matrix)
  average eigenvalue GAMMA=   0.3537
  1.7458  0.7924  0.4375  0.4375  0.3998  0.3998  0.1341  0.1072  0.1072  0.0887
  0.0887  0.0836  0.0754  0.0543

 Free energy of the ion-electron system (eV)
  ---------------------------------------------------
  alpha Z        PSCENC =      1594.73536772
  Ewald energy   TEWEN  =    -33080.30150825
  -Hartree energ DENC   =     -9925.42389337
  -exchange      EXHF   =         0.00000000
  -V(xc)+E(xc)   XCENC  =      1614.77447496
  PAW double counting   =     41144.29771094   -43041.29042442
  entropy T*S    EENTRO =        -0.07188017
  eigenvalues    EBANDS =       660.27633495
  atomic energy  EATOM  =     40708.47505058
  Solvation  Ediel_sol  =         0.00000000
  ---------------------------------------------------
  free energy    TOTEN  =      -324.52876706 eV

  energy without entropy =     -324.45688689  energy(sigma->0) =     -324.49282698


--------------------------------------------------------------------------------------------------------




--------------------------------------- Iteration      1(  20)  ---------------------------------------


    POTLOK:  cpu time    0.1457: real time    0.1460
    SETDIJ:  cpu time    0.0232: real time    0.0233
     EDDAV:  cpu time  142.6619: real time  143.0008
    CHARGE:  cpu time    4.0788: real time    4.0885
    MIXING:  cpu time    0.0053: real time    0.0053
    --------------------------------------------
      LOOP:  cpu time  146.9149: real time  147.2640

 eigenvalue-minimisations  : 54960
 total energy-change (2. order) : 0.5444863E-01  (-0.5137453E-01)
 number of electron     432.0000051 magnetization      25.4389265
 augmentation part      185.1406520 magnetization      19.2581919

 Broyden mixing:
  rms(total) = 0.94750E+00    rms(broyden)= 0.94740E+00
  rms(prec ) = 0.12229E+01
  weight for this iteration     100.00

 eigenvalues of (default mixing * dielectric matrix)
  average eigenvalue GAMMA=   0.3632
  1.7347  0.7875  0.5090  0.5090  0.4086  0.4086  0.3159  0.1317  0.1101  0.1101
  0.0968  0.0968  0.0835  0.0790  0.0660

 Free energy of the ion-electron system (eV)
  ---------------------------------------------------
  alpha Z        PSCENC =      1594.73536772
  Ewald energy   TEWEN  =    -33080.30150825
  -Hartree energ DENC   =     -9926.39417626
  -exchange      EXHF   =         0.00000000
  -V(xc)+E(xc)   XCENC  =      1614.93079638
  PAW double counting   =     41166.60789533   -43062.60093104
  entropy T*S    EENTRO =        -0.06821313
  eigenvalues    EBANDS =       660.14140024
  atomic energy  EATOM  =     40708.47505058
  Solvation  Ediel_sol  =         0.00000000
  ---------------------------------------------------
  free energy    TOTEN  =      -324.47431843 eV

  energy without entropy =     -324.40610530  energy(sigma->0) =     -324.44021186


--------------------------------------------------------------------------------------------------------




--------------------------------------- Iteration      1(  21)  ---------------------------------------


    POTLOK:  cpu time    0.1434: real time    0.1438
    SETDIJ:  cpu time    0.0238: real time    0.0238
     EDDAV:  cpu time  148.5886: real time  148.9416
    CHARGE:  cpu time    4.2397: real time    4.2498
    MIXING:  cpu time    0.0068: real time    0.0158
    --------------------------------------------
      LOOP:  cpu time  153.0024: real time  153.3748

 eigenvalue-minimisations  : 58192
 total energy-change (2. order) :-0.5995143E-01  (-0.1597301E-01)
 number of electron     432.0000050 magnetization      25.3086673
 augmentation part      185.1349572 magnetization      19.1942545

 Broyden mixing:
  rms(total) = 0.97079E+00    rms(broyden)= 0.97075E+00
  rms(prec ) = 0.12677E+01
  weight for this iteration     100.00

 eigenvalues of (default mixing * dielectric matrix)
  average eigenvalue GAMMA=   0.3828
  1.7187  0.7195  0.7872  0.5777  0.5777  0.4164  0.4164  0.1350  0.1288  0.1288
  0.0986  0.0986  0.0937  0.0814  0.0790  0.0668

 Free energy of the ion-electron system (eV)
  ---------------------------------------------------
  alpha Z        PSCENC =      1594.73536772
  Ewald energy   TEWEN  =    -33080.30150825
  -Hartree energ DENC   =     -9926.52486896
  -exchange      EXHF   =         0.00000000
  -V(xc)+E(xc)   XCENC  =      1615.02158955
  PAW double counting   =     41179.93177363   -43075.63812760
  entropy T*S    EENTRO =        -0.06628585
  eigenvalues    EBANDS =       659.83273931
  atomic energy  EATOM  =     40708.47505058
  Solvation  Ediel_sol  =         0.00000000
  ---------------------------------------------------
  free energy    TOTEN  =      -324.53426986 eV

  energy without entropy =     -324.46798401  energy(sigma->0) =     -324.50112694


--------------------------------------------------------------------------------------------------------




--------------------------------------- Iteration      1(  22)  ---------------------------------------


    POTLOK:  cpu time    0.1469: real time    0.1473
    SETDIJ:  cpu time    0.0230: real time    0.0231
     EDDAV:  cpu time  143.3838: real time  143.7245
    CHARGE:  cpu time    4.2387: real time    4.2488
    MIXING:  cpu time    0.0064: real time    0.0064
    --------------------------------------------
      LOOP:  cpu time  147.7989: real time  148.1501

 eigenvalue-minimisations  : 55680
 total energy-change (2. order) :-0.3938894E-01  (-0.6635958E-02)
 number of electron     432.0000051 magnetization      25.3923892
 augmentation part      185.1260752 magnetization      19.3006227

 Broyden mixing:
  rms(total) = 0.94539E+00    rms(broyden)= 0.94537E+00
  rms(prec ) = 0.11908E+01
  weight for this iteration     100.00

 eigenvalues of (default mixing * dielectric matrix)
  average eigenvalue GAMMA=   0.4092
  1.6938  1.0605  0.7936  0.6712  0.6712  0.4298  0.4298  0.3413  0.1281  0.1281
  0.0997  0.0997  0.0958  0.0895  0.0835  0.0751  0.0661

 Free energy of the ion-electron system (eV)
  ---------------------------------------------------
  alpha Z        PSCENC =      1594.73536772
  Ewald energy   TEWEN  =    -33080.30150825
  -Hartree energ DENC   =     -9926.42546755
  -exchange      EXHF   =         0.00000000
  -V(xc)+E(xc)   XCENC  =      1615.09521710
  PAW double counting   =     41190.25057041   -43085.80814384
  entropy T*S    EENTRO =        -0.06459305
  eigenvalues    EBANDS =       659.46984807
  atomic energy  EATOM  =     40708.47505058
  Solvation  Ediel_sol  =         0.00000000
  ---------------------------------------------------
  free energy    TOTEN  =      -324.57365880 eV

  energy without entropy =     -324.50906575  energy(sigma->0) =     -324.54136227


--------------------------------------------------------------------------------------------------------




--------------------------------------- Iteration      1(  23)  ---------------------------------------


    POTLOK:  cpu time    0.1496: real time    0.1499
    SETDIJ:  cpu time    0.0233: real time    0.0233
     EDDAV:  cpu time  147.0912: real time  147.4406
    CHARGE:  cpu time    4.2420: real time    4.2521
    MIXING:  cpu time    0.0063: real time    0.0063
    --------------------------------------------
      LOOP:  cpu time  151.5123: real time  151.8722

 eigenvalue-minimisations  : 57328
 total energy-change (2. order) : 0.9063231E-02  (-0.4835888E-02)
 number of electron     432.0000051 magnetization      25.5088025
 augmentation part      185.1115243 magnetization      19.4003756

 Broyden mixing:
  rms(total) = 0.10238E+01    rms(broyden)= 0.10238E+01
  rms(prec ) = 0.13161E+01
  weight for this iteration     100.00

 eigenvalues of (default mixing * dielectric matrix)
  average eigenvalue GAMMA=   0.4073
  1.6963  1.2272  0.7902  0.7185  0.7185  0.4444  0.4444  0.3579  0.1292  0.1292
[...]
  in kB     -147.4948426   -151.8231310   -160.1346152     -6.0093107      2.6298668      5.6197100
  external PRESSURE =    -153.1508629 kB  Pullay stress =       0.0000000 kB


 VOLUME and BASIS-vectors are now :
 -----------------------------------------------------------------------------
  energy-cutoff  :      500.00
  volume of cell :      542.40
      direct lattice vectors                 reciprocal lattice vectors
     9.158541000  0.000000000  0.000000000     0.109187697  0.063039546  0.000000000
    -4.579270500  7.931529170  0.000000000     0.000000000  0.126079093  0.000000000
     0.000000000  0.000000000  7.466833500     0.000000000  0.000000000  0.133925579

  length of vectors
     9.158541000  9.158541002  7.466833500     0.126079093  0.126079093  0.133925579


 FORCES acting on ions
    electron-ion (+dipol)            ewald-force                    non-local-force                 convergence-correction
 -----------------------------------------------------------------------------------------------
   0.776E+02 0.160E+03 0.123E+03   -.768E+02 -.158E+03 -.124E+03   -.898E+00 -.207E+01 -.926E-02   0.448E-02 0.960E-02 0.567E-02
   0.147E+03 0.241E+03 0.365E+02   -.149E+03 -.244E+03 -.340E+02   0.561E+00 0.150E+01 -.192E+01   0.205E-02 0.610E-01 -.163E-01
   0.120E+03 0.221E+03 -.196E+03   -.121E+03 -.224E+03 0.198E+03   -.489E+00 0.193E+01 -.149E+00   0.128E-01 0.529E-01 -.221E-01
   0.373E+02 0.127E+03 0.111E+03   -.373E+02 -.127E+03 -.112E+03   -.965E-01 -.128E+00 0.816E-01   -.356E-02 0.199E-01 0.297E-01
   0.135E+03 0.525E+02 0.129E+03   -.136E+03 -.537E+02 -.129E+03   0.627E+00 0.573E+00 -.702E+00   0.185E-01 -.135E-01 0.560E-02
   0.194E+03 0.118E+02 -.170E+03   -.194E+03 -.100E+02 0.172E+03   -.877E+00 -.128E+01 -.844E+00   0.235E-01 -.171E-01 -.101E-01
   0.795E+02 -.144E+03 0.130E+03   -.773E+02 0.145E+03 -.130E+03   -.228E+01 -.493E+00 -.113E+01   -.137E-01 -.280E-01 -.452E-02
   0.874E+02 -.108E+03 0.238E+02   -.910E+02 0.109E+03 -.262E+02   0.262E+01 -.140E-01 0.207E+01   0.519E-02 -.433E-01 -.134E-02
   0.152E+03 -.518E+02 -.132E+03   -.151E+03 0.512E+02 0.134E+03   -.169E+01 0.104E+01 -.775E+00   -.252E-02 -.786E-02 0.347E-01
   0.364E+02 0.166E+03 0.161E+03   -.364E+02 -.166E+03 -.161E+03   -.331E-01 -.452E+00 -.996E-02   0.132E-02 0.268E-01 -.129E-01
   -.122E+03 0.183E+03 0.736E+02   0.122E+03 -.185E+03 -.722E+02   0.143E+01 0.762E+00 -.156E+01   0.830E-02 0.519E-01 -.348E-02
   0.262E+02 0.192E+03 -.173E+03   -.261E+02 -.195E+03 0.177E+03   -.784E-01 0.777E+00 -.302E+01   0.102E-02 0.422E-01 -.214E-02
   0.995E+02 0.109E+03 0.234E+03   -.100E+03 -.108E+03 -.234E+03   0.956E-01 -.106E+01 -.167E+01   0.976E-02 0.182E-01 0.166E-01
   -.524E+02 -.619E+02 0.742E+01   0.520E+02 0.627E+02 -.843E+01   0.156E+00 -.943E+00 0.169E+01   -.144E-01 -.949E-02 0.815E-02
   -.138E+01 -.315E+02 -.196E+03   0.137E+01 0.322E+02 0.199E+03   0.189E+00 -.734E+00 -.780E+00   0.508E-02 -.889E-02 -.138E-01
   0.403E+02 -.777E+02 0.928E+02   -.422E+02 0.800E+02 -.939E+02   0.167E+01 -.177E+01 0.166E+00   0.889E-02 -.355E-01 -.201E-01
   -.215E+02 -.195E+03 0.227E+02   0.220E+02 0.197E+03 -.257E+02   -.612E+00 -.127E+01 0.310E+01   0.171E-01 -.477E-01 0.232E-01
   0.542E+02 -.156E+03 -.129E+03   -.532E+02 0.156E+03 0.132E+03   -.137E+01 0.262E+00 -.208E+01   0.253E-01 -.188E-01 0.220E-01
   -.717E+02 0.118E+02 0.127E+03   0.731E+02 -.100E+02 -.128E+03   -.109E+01 -.158E+01 0.248E+00   -.628E-03 0.150E-01 -.106E-01
   -.123E+03 0.126E+03 0.115E+03   0.122E+03 -.126E+03 -.113E+03   0.174E+01 -.442E+00 -.298E+01   -.787E-02 0.415E-01 -.636E-02
   -.152E+03 0.450E+02 -.192E+03   0.153E+03 -.485E+02 0.197E+03   0.170E+00 0.266E+01 -.231E+01   -.101E-01 0.167E-01 -.148E-01
   -.724E+02 0.680E+02 0.155E+03   0.759E+02 -.672E+02 -.157E+03   -.330E+01 -.133E+01 0.724E+00   -.751E-02 0.147E-01 0.112E-01
   -.121E+03 -.510E+02 0.650E+02   0.121E+03 0.534E+02 -.640E+02   0.309E+00 -.217E+01 -.124E+01   -.434E-02 -.212E-01 -.169E-01
   -.199E+03 -.174E+03 -.767E+02   0.199E+03 0.175E+03 0.827E+02   0.645E+00 -.302E+00 -.471E+01   -.277E-01 -.174E-01 0.226E-02
   -.832E+02 -.180E+03 0.111E+03   0.840E+02 0.182E+03 -.112E+03   -.565E+00 -.201E+01 0.776E+00   0.183E-02 -.329E-01 -.162E-01
   -.127E+03 -.172E+03 -.117E+02   0.127E+03 0.174E+03 0.918E+01   0.818E+00 -.197E+01 0.258E+01   -.111E-01 -.385E-01 -.912E-02
   -.115E+03 -.263E+03 -.886E+02   0.117E+03 0.262E+03 0.934E+02   -.166E+01 0.253E+01 -.335E+01   -.219E-01 -.326E-01 0.146E-01
   0.395E+02 0.101E+03 -.390E+02   -.409E+02 -.104E+03 0.396E+02   0.168E+01 0.288E+01 -.715E+00   -.626E-02 -.201E-02 -.103E-01
   0.414E+02 0.128E+03 -.680E+02   -.389E+02 -.130E+03 0.683E+02   -.267E+01 0.210E+01 -.192E-01   0.294E-01 0.603E-02 0.182E-01
   0.120E+03 0.985E+02 0.595E+02   -.126E+03 -.990E+02 -.546E+02   0.639E+01 0.194E+00 -.576E+01   0.349E-02 0.442E-01 0.180E-01
   0.579E+02 0.511E+02 -.225E+02   -.613E+02 -.506E+02 0.224E+02   0.365E+01 -.216E+00 0.532E+00   0.198E-02 0.333E-01 -.444E-01
   0.355E+02 0.694E+02 -.128E+03   -.322E+02 -.706E+02 0.133E+03   -.317E+01 0.352E+00 -.534E+01   0.288E-01 0.223E-01 -.114E-01
   0.491E+02 0.202E+02 0.359E+02   -.502E+02 -.213E+02 -.308E+02   0.143E+01 0.368E+00 -.558E+01   -.662E-02 -.516E-01 0.573E-03
   0.101E+03 -.722E+02 -.417E+02   -.105E+03 0.740E+02 0.429E+02   0.452E+01 -.150E+01 -.986E+00   -.250E-01 -.461E-01 0.110E-01
   0.613E+02 -.786E+02 -.931E+02   -.601E+02 0.797E+02 0.981E+02   -.117E+01 -.127E+01 -.501E+01   -.654E-02 -.513E-02 0.343E-02
   0.808E+02 -.189E+02 0.778E+02   -.822E+02 0.194E+02 -.759E+02   0.102E+01 -.446E+00 -.273E+01   -.218E-01 -.652E-03 -.402E-01
   0.271E+02 0.127E+03 -.930E+02   -.275E+02 -.132E+03 0.996E+02   -.185E+00 0.427E+01 -.633E+01   0.927E-02 0.393E-01 0.143E-01
   -.296E+02 0.962E+02 -.749E+02   0.316E+02 -.990E+02 0.751E+02   -.246E+01 0.261E+01 0.267E+00   -.630E-02 0.780E-02 0.343E-02
   -.127E+02 0.696E+02 0.115E+03   0.152E+02 -.674E+02 -.118E+03   -.275E+01 -.270E+01 0.201E+01   0.269E-02 0.223E-01 -.214E-02
   0.305E+02 0.841E+02 -.255E+02   -.296E+02 -.871E+02 0.229E+02   -.568E+00 0.298E+01 0.254E+01   -.299E-02 0.611E-01 -.162E-01
   0.106E+02 0.660E+01 -.100E+03   -.138E+02 -.680E+01 0.106E+03   0.278E+01 0.277E+00 -.509E+01   -.196E-01 0.655E-02 -.107E-01
   0.537E+02 -.725E+02 0.804E+02   -.568E+02 0.762E+02 -.800E+02   0.255E+01 -.264E+01 -.364E+00   -.371E-02 -.436E-01 0.177E-01
   0.505E+02 -.100E+03 -.221E+01   -.518E+02 0.103E+03 0.158E+01   0.125E+01 -.226E+01 -.181E+00   0.450E-01 -.738E-01 0.232E-01
   -.715E+01 -.115E+03 -.956E+02   0.844E+01 0.115E+03 0.997E+02   -.177E+01 -.819E+00 -.392E+01   0.754E-02 -.271E-01 -.239E-01
   0.184E+02 -.777E+02 0.771E+02   -.205E+02 0.822E+02 -.780E+02   0.248E+01 -.455E+01 0.562E+00   0.136E-01 0.273E-01 -.269E-01
   -.413E+02 0.824E+02 -.308E+02   0.404E+02 -.882E+02 0.322E+02   0.437E+00 0.504E+01 -.202E+01   -.228E-02 0.121E-01 0.522E-02
   -.648E+02 0.416E+02 -.482E+02   0.657E+02 -.426E+02 0.449E+02   -.722E+00 0.104E+01 0.420E+01   -.160E-01 -.318E-02 0.511E-02
   -.979E+02 0.383E+02 0.745E+02   0.100E+03 -.373E+02 -.755E+02   -.209E+01 -.122E+01 0.156E+01   -.530E-02 0.211E-01 0.128E-01
   -.535E+02 -.590E+01 -.242E+02   0.523E+02 0.637E+01 0.232E+02   0.107E+01 0.575E-01 0.699E+00   -.390E-02 0.773E-02 -.159E-01
   -.938E+02 -.225E+02 -.275E+02   0.976E+02 0.220E+02 0.263E+02   -.373E+01 0.798E+00 0.149E+01   -.423E-02 0.857E-02 0.124E-01
   -.106E+03 -.117E+03 0.739E+02   0.109E+03 0.121E+03 -.756E+02   -.266E+01 -.273E+01 0.164E+01   0.597E-02 -.213E-01 -.108E-02
   -.880E+02 -.104E+03 0.230E+02   0.900E+02 0.103E+03 -.269E+02   -.159E+01 0.833E+00 0.245E+01   -.248E-01 -.375E-01 0.245E-01
   -.124E+03 -.133E+03 -.887E+02   0.129E+03 0.135E+03 0.941E+02   -.470E+01 -.288E+01 -.569E+01   -.370E-02 -.151E-01 0.816E-02
   -.763E+02 -.133E+03 0.817E+02   0.780E+02 0.139E+03 -.845E+02   -.158E+01 -.554E+01 0.286E+01   0.624E-02 0.193E-02 -.136E-01
 -----------------------------------------------------------------------------------------------
   0.656E+01 0.130E+02 0.468E+02   0.213E-12 0.369E-12 -.711E-13   -.658E+01 -.130E+02 -.467E+02   0.149E-01 -.798E-02 -.458E-01
 
 
 POSITION                                       TOTAL-FORCE (eV/Angst)
 -----------------------------------------------------------------------------------
      0.03382      0.07605      7.44124        -0.102855     -0.085455     -0.487189
      1.51123      0.80977      2.33196        -1.280541     -1.025522      0.554294
     -0.01675      1.68326      4.67199        -0.539271     -1.338077      1.045896
      7.61958      2.56359      7.43224        -0.087800     -0.484841     -0.634152
     -0.03358      3.38445      2.48226        -0.857732     -0.666485     -1.372032
     -1.44593      4.11560      4.71607        -1.334300      0.534967      0.839976
      6.18590      4.93380      7.45439        -0.120427      0.703052     -0.568238
     -1.43848      5.92240      2.42846        -0.961148      0.588655     -0.260898
     -2.88830      6.69930      4.78827        -0.894500      0.448936      0.338804
      2.96587      0.07239      7.44098        -0.070811     -0.506394     -0.365963
      4.26589      0.85979      2.38632         1.639103     -1.049300     -0.158694
      2.90744      1.77117      4.73773         0.008905     -1.894816      1.238716
      1.44506      2.54651      0.12095        -0.409217     -0.704886     -1.348853
      2.96006      3.39487      2.33605        -0.254448     -0.140366      0.687288
      1.43674      4.18128      4.68365         0.189003     -0.018426      2.550118
     -0.04528      5.09006      7.40640        -0.203732      0.423715     -0.893920
      1.44371      5.87664      2.29544        -0.140456      0.726356      0.075878
      0.07688      6.68673      4.71756        -0.383983      0.991338      0.916712
      1.37087      7.85242      7.44643         0.373438      0.236500     -1.024505
      7.21154      0.83461      2.42952         1.220044     -0.426073     -0.553505
      5.78524      1.73515      4.60285         1.261786     -0.802326      2.618844
      4.44668      2.60253      0.01606         0.192786     -0.470946     -1.819506
      5.82510      3.40026      2.46606         0.612426      0.233186     -0.309802
      4.28062      4.14857      4.80907         1.017017      0.978879      1.209465
      2.93582      5.07110      7.41405         0.228463      0.657442     -0.996200
      4.37526      5.95166      2.28943         0.639552      0.849473      0.037845
      2.95403      6.67993      4.69155         0.118146      1.636518      1.477248
      4.59067      7.90202      3.49079         0.223106      0.033132     -0.110138
      1.37382      0.82444      5.85346        -0.166149     -0.132374      0.328694
     -0.00999      1.65098      1.28316         0.074049     -0.247085     -0.806950
      7.65371      2.40806      3.54300         0.214048      0.366212      0.337779
     -0.05312      3.44936      5.90010         0.132415     -0.774957      0.272600
     -1.50853      4.26737      1.18107         0.336926     -0.768444     -0.494284
     -2.84615      4.99939      3.54702         0.193555      0.325079      0.220003
     -1.48846      5.84398      5.94577         0.004208     -0.131119     -0.065992
     -2.91970      6.68748      1.20600        -0.379298      0.010890     -0.863397
      2.91631      0.02238      3.47248        -0.633753     -0.147148      0.374724
      4.34687      0.79219      5.86355        -0.470608     -0.193183      0.480300
      2.89270      1.67682      1.24854        -0.219146     -0.435435     -0.891028
      1.47705      2.55900      3.53344         0.291573      0.067955     -0.030703
      2.91583      3.31746      6.00056        -0.426705      0.085690      0.342032
      1.54135      4.10916      1.18871        -0.472281      1.018563      0.076182
      0.02319      4.95685      3.63549         0.016935      1.086726     -0.790904
      1.50977      5.84733      5.98129        -0.471338      0.041646      0.147632
     -0.03370      6.74303      1.17826         0.369165     -0.044347     -0.366612
      5.89231      0.05655      3.62498        -0.372749     -0.729207     -0.579393
      7.25772      0.76356      5.90570         0.159887      0.070181      0.862669
      5.78843      1.67239      1.09324         0.470514     -0.216400      0.550487
      4.35314      2.52126      3.55705        -0.060766      0.542228     -0.385702
      5.75631      3.32797      6.02860         0.041085      0.258524      0.294459
      4.32369      4.17840      1.18957         0.471579      0.656658     -0.087694
      2.82627      5.06902      3.69018         0.421660     -0.173279     -1.443559
      4.28887      5.90239      5.93121         0.307011     -0.118598     -0.208698
      2.86687      6.75618      1.16866         0.085632      0.152991      0.039866
 -----------------------------------------------------------------------------------
    total drift:                               -0.001613     -0.006778      0.003350


--------------------------------------------------------------------------------------------------------



  FREE ENERGIE OF THE ION-ELECTRON SYSTEM (eV)
  ---------------------------------------------------
  free  energy   TOTEN  =      -326.0052719876 eV

  energy  without entropy=     -325.9810219940  energy(sigma->0) =     -325.99314699
 


--------------------------------------------------------------------------------------------------------


    POTLOK:  cpu time    0.1751: real time    0.1755


--------------------------------------------------------------------------------------------------------


     LOOP+:  cpu time10877.0629: real time10903.3522
    4ORBIT:  cpu time    0.0000: real time    0.0000

volume of typ            1:    31.7 %

volume of typ            2:     8.1 %
 
total charge     
 
# of ion       s       p       d       tot
------------------------------------------
    1        0.155   0.118   7.941   8.213
    2        0.209   0.223   7.928   8.360
    3        0.196   0.200   7.907   8.303
    4        0.161   0.131   7.937   8.229
    5        0.199   0.215   7.940   8.355
    6        0.210   0.219   7.904   8.332
    7        0.177   0.150   7.911   8.238
    8        0.199   0.202   7.905   8.306
    9        0.172   0.150   7.886   8.208
   10        0.166   0.135   7.935   8.236
   11        0.205   0.217   7.926   8.348
   12        0.205   0.222   7.905   8.332
   13        0.190   0.189   7.942   8.321
   14        0.212   0.238   7.962   8.412
   15        0.220   0.252   7.931   8.404
   16        0.179   0.166   7.915   8.260
   17        0.191   0.189   7.952   8.332
   18        0.179   0.168   7.914   8.261
   19        0.170   0.145   7.899   8.214
   20        0.186   0.179   7.932   8.297
   21        0.204   0.216   7.893   8.313
   22        0.196   0.197   7.915   8.308
   23        0.185   0.178   7.952   8.315
   24        0.202   0.206   7.908   8.316
   25        0.187   0.180   7.903   8.271
   26        0.169   0.148   7.934   8.251
   27        0.197   0.189   7.898   8.284
   28        1.274   2.686   0.003   3.963
   29        1.272   2.694   0.004   3.970
   30        1.266   2.729   0.006   4.001
   31        1.266   2.744   0.006   4.016
   32        1.266   2.728   0.005   4.000
   33        1.261   2.746   0.006   4.012
   34        1.255   2.754   0.005   4.014
   35        1.265   2.718   0.004   3.988
   36        1.266   2.705   0.003   3.974
   37        1.266   2.740   0.006   4.011
   38        1.272   2.693   0.003   3.968
   39        1.254   2.787   0.008   4.050
   40        1.262   2.774   0.008   4.043
   41        1.265   2.741   0.005   4.010
   42        1.258   2.777   0.008   4.043
   43        1.261   2.783   0.009   4.052
   44        1.268   2.718   0.004   3.990
   45        1.263   2.732   0.005   4.000
   46        1.263   2.744   0.006   4.012
   47        1.273   2.669   0.002   3.945
   48        1.257   2.750   0.005   4.012
   49        1.253   2.797   0.009   4.059
   50        1.262   2.721   0.004   3.987
   51        1.253   2.777   0.007   4.037
   52        1.262   2.772   0.008   4.043
   53        1.265   2.709   0.004   3.978
   54        1.262   2.728   0.005   3.995
--------------------------------------------------
tot          39.23   78.94  214.02  332.19
 
magnetization (x)
 
# of ion       s       p       d       tot
------------------------------------------
    1        0.001   0.002   1.310   1.313
    2        0.005   0.003   0.437   0.446
    3        0.002   0.003   0.593   0.599
    4        0.006   0.004   1.312   1.322
    5        0.001   0.002  -1.193  -1.190
    6        0.005   0.003   1.311   1.319
    7        0.005   0.005   1.355   1.364
    8        0.004   0.004   1.357   1.365
    9        0.005   0.005   1.407   1.417
   10        0.004   0.003   1.287   1.294
   11        0.008   0.009   1.377   1.393
   12       -0.002   0.001  -1.109  -1.110
   13        0.006   0.008   1.304   1.318
   14        0.001   0.003  -1.011  -1.007
   15        0.001   0.005  -0.935  -0.929
   16       -0.002  -0.000  -1.242  -1.244
   17        0.001   0.004  -1.127  -1.122
   18        0.001   0.003   1.325   1.329
   19        0.007   0.006   1.374   1.387
   20        0.002  -0.003  -1.211  -1.212
   21        0.000   0.002   1.265   1.267
   22        0.002   0.005   1.348   1.355
   23        0.006   0.005   1.273   1.284
   24        0.004   0.009   1.412   1.425
   25        0.002   0.003   1.381   1.386
   26        0.008   0.006   1.302   1.315
   27        0.002   0.007   1.301   1.310
   28        0.005   0.038   0.000   0.043
   29        0.004   0.105  -0.000   0.109
   30        0.004   0.120  -0.000   0.124
   31        0.002  -0.019   0.000  -0.017
   32        0.003   0.082   0.000   0.085
   33        0.010   0.079   0.000   0.088
   34        0.021   0.198   0.000   0.220
   35        0.012   0.165   0.000   0.177
   36        0.019   0.254   0.000   0.274
   37        0.009   0.113   0.000   0.122
   38        0.010   0.163   0.000   0.173
   39        0.015   0.137   0.000   0.153
   40       -0.007  -0.009  -0.000  -0.016
   41        0.007   0.094   0.000   0.102
   42       -0.005  -0.024  -0.000  -0.029
   43        0.003   0.033   0.000   0.036
   44        0.008   0.117   0.000   0.126
   45        0.005   0.035   0.000   0.041
   46        0.009   0.067   0.000   0.076
   47        0.015   0.246   0.000   0.261
   48        0.016   0.144   0.000   0.161
   49        0.012   0.113   0.000   0.125
   50        0.020   0.244   0.000   0.265
   51        0.018   0.164   0.000   0.182
   52        0.002   0.032   0.000   0.034
   53        0.019   0.272   0.000   0.291
   54        0.009   0.109   0.000   0.118
--------------------------------------------------
tot           0.33    3.18   17.21   20.72
 

 total amount of memory used by VASP MPI-rank0   425616. kBytes
=======================================================================

   base      :      30000. kBytes
   nonlr-proj:      38202. kBytes
   fftplans  :       5725. kBytes
   grid      :      32372. kBytes
   one-center:       1679. kBytes
   wavefun   :     317638. kBytes
 
  
  
 General timing and accounting informations for this job:
 ========================================================
  
                  Total CPU time used (sec):    10949.383
                            User time (sec):    10938.167
                          System time (sec):       11.216
                         Elapsed time (sec):    10979.698
  
                   Maximum memory used (kb):      519396.
                   Average memory used (kb):           0.
  
                          Minor page faults:        46553
                          Major page faults:           48
                 Voluntary context switches:         1183
