 vasp.5.4.4.18Apr17-6-g9f103f2a35 (build May 12 2020 04:58:55) complex          
  
 MD_VERSION_INFO: Compiled 2020-05-12T11:58:55-UTC in devlin.sd.materialsdesign.
 com:/home/medea2/data/build/wwolf/vasp-gpu5.4.4/13047/x86_64/src/src/build/std 
 from svn 13047
 
 This VASP executable licensed from Materials Design, Inc.
 
 executed on                        Lin64 date 2023.03.24  12:20:13
 running on   16 total cores
 distrk:  each k-point on   16 cores,    1 groups
 distr:  one band on NCORES_PER_BAND=   1 cores,   16 groups


--------------------------------------------------------------------------------------------------------


 INCAR:
 POTCAR:    PAW_PBE Ni 02Aug2007                  
 POTCAR:    PAW_PBE O 08Apr2002                   

 ----------------------------------------------------------------------------- 
|                                                                             |
|           W    W    AA    RRRRR   N    N  II  N    N   GGGG   !!!           |
|           W    W   A  A   R    R  NN   N  II  NN   N  G    G  !!!           |
|           W    W  A    A  R    R  N N  N  II  N N  N  G       !!!           |
|           W WW W  AAAAAA  RRRRR   N  N N  II  N  N N  G  GGG   !            |
|           WW  WW  A    A  R   R   N   NN  II  N   NN  G    G                |
|           W    W  A    A  R    R  N    N  II  N    N   GGGG   !!!           |
|                                                                             |
|      For optimal performance we recommend to set                            |
|        NCORE= 4 - approx SQRT( number of cores)                             |
|      NCORE specifies how many cores store one orbital (NPAR=cpu/NCORE).     |
|      This setting can  greatly improve the performance of VASP for DFT.     |
|      The default,   NCORE=1            might be grossly inefficient         |
|      on modern multi-core architectures or massively parallel machines.     |
|      Do your own testing !!!!                                               |
|      Unfortunately you need to use the default for GW and RPA calculations. |
|      (for HF NCORE is supported but not extensively tested yet)             |
|                                                                             |
 ----------------------------------------------------------------------------- 

 POTCAR:    PAW_PBE Ni 02Aug2007                  
  local pseudopotential read in
  partial core-charges read in
  partial kinetic energy density read in
  atomic valenz-charges read in
  non local Contribution for L=           2  read in
    real space projection operators read in
  non local Contribution for L=           2  read in
    real space projection operators read in
  non local Contribution for L=           0  read in
    real space projection operators read in
  non local Contribution for L=           0  read in
    real space projection operators read in
  non local Contribution for L=           1  read in
    real space projection operators read in
  non local Contribution for L=           1  read in
    real space projection operators read in
    PAW grid and wavefunctions read in
 
   number of l-projection  operators is LMAX  =           6
   number of lm-projection operators is LMMAX =          18
 
 POTCAR:    PAW_PBE O 08Apr2002                   
  local pseudopotential read in
  partial core-charges read in
  partial kinetic energy density read in
  kinetic energy density of atom read in
  atomic valenz-charges read in
  non local Contribution for L=           0  read in
    real space projection operators read in
  non local Contribution for L=           0  read in
    real space projection operators read in
  non local Contribution for L=           1  read in
    real space projection operators read in
  non local Contribution for L=           1  read in
    real space projection operators read in
    PAW grid and wavefunctions read in
 
   number of l-projection  operators is LMAX  =           4
   number of lm-projection operators is LMMAX =           8
 
 Optimization of the real space projectors (new method)

 maximal supplied QI-value         = 16.25
 optimisation between [QCUT,QGAM] = [ 11.38, 22.75] = [ 36.24,144.96] Ry 
 Optimized for a Real-space Cutoff    1.47 Angstroem

   l    n(q)    QCUT    max X(q) W(low)/X(q) W(high)/X(q)  e(spline) 
   2      9    11.376    60.317    0.17E-03    0.16E-04    0.16E-06
   2      9    11.376    55.921    0.17E-03    0.16E-04    0.17E-06
   0     10    11.376    51.690    0.45E-04    0.60E-04    0.21E-06
   0     10    11.376    30.015    0.37E-04    0.55E-04    0.19E-06
   1     10    11.376    18.849    0.83E-04    0.11E-03    0.92E-07
   1     10    11.376    14.624    0.69E-04    0.92E-04    0.82E-07
 Optimization of the real space projectors (new method)

 maximal supplied QI-value         = 24.76
 optimisation between [QCUT,QGAM] = [ 11.39, 22.77] = [ 36.31,145.25] Ry 
 Optimized for a Real-space Cutoff    1.10 Angstroem

   l    n(q)    QCUT    max X(q) W(low)/X(q) W(high)/X(q)  e(spline) 
   0      7    11.387    20.381    0.22E-03    0.48E-03    0.18E-06
   0      7    11.387    15.268    0.22E-03    0.52E-03    0.19E-06
   1      7    11.387     5.964    0.22E-03    0.73E-03    0.24E-06
   1      7    11.387     5.382    0.19E-03    0.60E-03    0.21E-06

 ----------------------------------------------------------------------------- 
|                                                                             |
|  ADVICE TO THIS USER RUNNING 'VASP/VAMP'   (HEAR YOUR MASTER'S VOICE ...):  |
|                                                                             |
|      You enforced a specific xc-type in the INCAR file,                     |
|      a different type was found on the POTCAR file                          |
|          I HOPE YOU KNOW, WHAT YOU ARE  DOING                               |
|                                                                             |
 ----------------------------------------------------------------------------- 

  PAW_PBE Ni 02Aug2007                  :
 energy of atom  1       EATOM=-1077.6739
 kinetic energy error for atom=    0.0030 (will be added to EATOM!!)
  PAW_PBE O 08Apr2002                   :
 energy of atom  2       EATOM= -432.3788
 kinetic energy error for atom=    0.0224 (will be added to EATOM!!)
 
 
 POSCAR: NiO_C2_m_scale_1_025_disp_0_05_round_2  
  positions in direct lattice
  No initial velocities read in
 exchange correlation table for  LEXCH =       14
   RHO(1)=    0.500       N(1)  =     2000
   RHO(2)=  100.500       N(2)  =     4000
 


--------------------------------------------------------------------------------------------------------


 ion  position               nearest neighbor table
   1  0.008  0.011  0.998-  30 1.96  29 2.05  54 2.22  36 2.26  47 2.26  53 2.39  13 2.77   4 2.88
                             2 2.92  10 2.95  20 3.00   3 3.02
   2  0.212  0.109  0.336-  28 1.93  40 1.96  30 2.02  37 2.08  36 2.18  39 2.22   3 2.77  12 2.82
                            11 2.85   5 2.89   1 2.92  13 2.94  14 3.00  10 3.01   9 3.03
   3  0.109  0.215  0.645-  40 2.03  31 2.05  28 2.08  29 2.08  32 2.12  47 2.21   2 2.77   5 2.87
                            15 2.90  12 2.92   6 2.94   1 3.02  27 3.03  20 3.05  13 3.05
   4  0.998  0.328  0.999-  33 2.01  32 2.12  30 2.14  47 2.14  48 2.15  50 2.22  13 2.86   1 2.88
                             5 2.90   7 2.91  19 2.93  20 2.94  16 2.96  23 3.03  22 3.06
   5  0.212  0.432  0.326-  33 1.93  31 1.99  40 2.02  43 2.06  30 2.09  42 2.11   6 2.84   8 2.86
                             3 2.87  13 2.89   2 2.89   4 2.90  17 2.93  15 2.94  14 2.95  16 2.98
   6  0.115  0.546  0.645-  43 1.96  34 1.99  31 2.06  32 2.07  35 2.12  50 2.23   8 2.81  18 2.84
                             5 2.84  15 2.85   9 2.86   3 2.94  23 3.00  16 3.05
   7  0.998  0.653  1.000-  36 2.12  50 2.17  33 2.20  35 2.21  53 2.24  51 2.26   4 2.91  16 2.94
                            23 2.95   8 2.95   9 2.98  25 3.01  10 3.01  22 3.01  26 3.06
   8  0.220  0.756  0.329-  43 1.97  45 2.09  33 2.09  36 2.09  34 2.09  37 2.24  17 2.76   6 2.81
                             5 2.86  18 2.86  16 2.91   9 2.93   7 2.95  11 3.00  10 3.01  23 3.03
   9  0.108  0.863  0.657-  35 1.96  34 2.06  53 2.08  37 2.13  29 2.15  28 2.36   6 2.86  18 2.89
                             8 2.93   7 2.98   2 3.03  12 3.04  24 3.05  10 3.06
  10  0.329  0.995  0.003-  36 2.09  39 2.09  45 2.14  38 2.18  29 2.21  35 2.23  11 2.73  19 2.85
                            22 2.92   1 2.95  13 2.99  16 3.01   7 3.01   2 3.01   8 3.01   9 3.06
  11  0.530  0.110  0.310-  39 1.98  37 2.02  48 2.13  45 2.15  49 2.16  46 2.22  10 2.73  22 2.81
                            19 2.82   2 2.85  12 2.86  14 2.91  23 2.95  21 2.97  20 2.98   8 3.00
  12  0.436  0.214  0.640-  37 1.98  49 1.99  41 2.04  38 2.09  40 2.10  29 2.18   2 2.82  21 2.82
                            11 2.86  24 2.87   3 2.92  15 2.95  14 2.96   9 3.04
  13  0.315  0.322  0.002-  30 1.95  42 2.03  39 2.03  32 2.12  29 2.21  41 2.35   1 2.77   4 2.86
                             5 2.89  14 2.91   2 2.94  16 2.95  10 2.99  25 3.00  22 3.02  15 3.04
  14  0.547  0.443  0.316-  51 1.93  42 1.98  52 1.98  39 2.06  49 2.10  40 2.12  26 2.79  25 2.80
                            24 2.89  23 2.90  13 2.91  22 2.91  11 2.91   5 2.95  17 2.95  12 2.96
  15  0.431  0.542  0.655-  41 2.00  44 2.02  32 2.07  43 2.09  40 2.12  52 2.14  24 2.85   6 2.85
                            18 2.88  17 2.89   3 2.90   5 2.94  12 2.95  14 2.98  16 3.00  27 3.01
  16  0.330  0.659  0.996-  45 2.04  42 2.10  33 2.12  44 2.13  35 2.16  32 2.17   8 2.91   7 2.94
                            13 2.95  17 2.96   4 2.96  18 2.98   5 2.98  25 2.99  15 3.00  10 3.01
  17  0.533  0.766  0.340-  43 1.97  45 2.02  46 2.16  52 2.16  42 2.21  54 2.24  18 2.74   8 2.76
                            15 2.89  27 2.90  26 2.93   5 2.93  14 2.95  20 2.95  16 2.96
  18  0.432  0.865  0.650-  35 2.01  43 2.03  46 2.05  44 2.14  37 2.19  38 2.26  17 2.74   6 2.84
                             8 2.86  15 2.88   9 2.89  27 2.90  16 2.98  21 2.99
  19  0.658  0.015  0.004-  48 1.93  45 2.08  38 2.12  47 2.17  54 2.31  44 2.45  22 2.77  20 2.80
                            11 2.82  10 2.85   4 2.93  21 3.04  16 3.06
  20  0.859  0.100  0.321-  48 2.00  46 2.06  31 2.13  28 2.14  54 2.22  30 2.29  19 2.80  21 2.90
                             4 2.94  27 2.95  23 2.95  17 2.95  11 2.98   1 3.00   3 3.05  26 3.05
  21  0.751  0.213  0.643-  46 1.95  38 2.01  49 2.03  50 2.12  47 2.14  31 2.26  12 2.82  23 2.86
                            20 2.90  24 2.95  11 2.97  18 2.99  27 3.02  19 3.04  22 3.05
  22  0.654  0.323  0.998-  39 2.01  48 2.07  51 2.10  38 2.12  50 2.17  41 2.26  19 2.77  11 2.81
                            25 2.88  14 2.91  23 2.92  10 2.92   7 3.01  13 3.02  21 3.05   4 3.06
  23  0.866  0.434  0.329-  49 2.03  34 2.04  51 2.07  48 2.09  31 2.22  33 2.24  21 2.86  24 2.90
                            14 2.90  22 2.92  26 2.94   7 2.95  11 2.95  20 2.95   6 3.00   8 3.03
  24  0.750  0.542  0.648-  41 1.89  52 1.94  49 2.00  53 2.06  50 2.19  34 2.23  15 2.85  12 2.87
                            26 2.87  14 2.89  23 2.90  21 2.95  27 2.97  25 2.98   9 3.05  22 3.07
  25  0.659  0.648  0.999-  51 1.98  54 2.00  42 2.10  44 2.14  53 2.21  41 2.24  14 2.80  26 2.83
                            22 2.88  24 2.98  16 2.99  13 3.00   7 3.01  15 3.07
  26  0.856  0.757  0.327-  52 1.93  54 1.96  51 2.03  28 2.17  36 2.28  34 2.32  14 2.79  25 2.83
                            24 2.87  27 2.91  17 2.93  23 2.94  20 3.05   7 3.06
  27  0.764  0.881  0.652-  44 2.07  46 2.15  47 2.15  53 2.16  52 2.21  28 2.24  17 2.90  18 2.90
                            26 2.91  20 2.95  24 2.97  15 3.01  21 3.02   3 3.03
  28  0.998  0.002  0.471-   2 1.93   3 2.08  20 2.14  26 2.17  27 2.24   9 2.36
  29  0.207  0.097  0.815-   1 2.05   3 2.08   9 2.15  12 2.18  13 2.21  10 2.21
  30  0.113  0.213  0.161-  13 1.95   1 1.96   2 2.02   5 2.09   4 2.14  20 2.29
  31  0.003  0.326  0.486-   5 1.99   3 2.05   6 2.06  20 2.13  23 2.22  21 2.26
  32  0.213  0.434  0.819-  15 2.07   6 2.07   4 2.12   3 2.12  13 2.12  16 2.17
  33  0.111  0.532  0.169-   5 1.93   4 2.01   8 2.09  16 2.12   7 2.20  23 2.24
  34  0.998  0.645  0.495-   6 1.99  23 2.04   9 2.06   8 2.09  24 2.23  26 2.32
  35  0.222  0.770  0.813-   9 1.96  18 2.01   6 2.12  16 2.16   7 2.21  10 2.23
  36  0.112  0.874  0.172-  10 2.09   8 2.09   7 2.12   2 2.18   1 2.26  26 2.28
  37  0.331  0.002  0.489-  12 1.98  11 2.02   2 2.08   9 2.13  18 2.19   8 2.24
  38  0.547  0.111  0.815-  21 2.01  12 2.09  19 2.12  22 2.12  10 2.18  18 2.26
  39  0.440  0.226  0.152-  11 1.98  22 2.01  13 2.03  14 2.06  10 2.09   2 2.22
  40  0.320  0.323  0.480-   2 1.96   5 2.02   3 2.03  12 2.10  14 2.12  15 2.12
  41  0.547  0.435  0.793-  24 1.89  15 2.00  12 2.04  25 2.24  22 2.26  13 2.35
  42  0.433  0.538  0.158-  14 1.98  13 2.03  25 2.10  16 2.10   5 2.11  17 2.21
  43  0.321  0.651  0.488-   6 1.96   8 1.97  17 1.97  18 2.03   5 2.06  15 2.09
  44  0.547  0.753  0.817-  15 2.02  27 2.07  16 2.13  18 2.14  25 2.14  19 2.45
  45  0.438  0.871  0.162-  17 2.02  16 2.04  19 2.08   8 2.09  10 2.14  11 2.15
  46  0.651  0.003  0.495-  21 1.95  18 2.05  20 2.06  27 2.15  17 2.16  11 2.22
  47  0.875  0.113  0.816-  21 2.14   4 2.14  27 2.15  19 2.17   3 2.21   1 2.26
  48  0.766  0.216  0.160-  19 1.93  20 2.00  22 2.07  23 2.09  11 2.13   4 2.15
  49  0.650  0.331  0.489-  12 1.99  24 2.00  23 2.03  21 2.03  14 2.10  11 2.16
  50  0.876  0.434  0.815-  21 2.12  22 2.17   7 2.17  24 2.19   4 2.22   6 2.23
  51  0.754  0.542  0.169-  14 1.93  25 1.98  26 2.03  23 2.07  22 2.10   7 2.26
  52  0.656  0.645  0.484-  26 1.93  24 1.94  14 1.98  15 2.14  17 2.16  27 2.21
  53  0.880  0.760  0.807-  24 2.06   9 2.08  27 2.16  25 2.21   7 2.24   1 2.39
  54  0.764  0.861  0.156-  26 1.96  25 2.00  20 2.22   1 2.22  17 2.24  19 2.31
 
  LATTYP: Found a hexagonal cell.
 ALAT       =     8.9404805043
 C/A-ratio  =     0.8152863536
  
  Lattice vectors:
  
 A1 = (   8.9404805000,   0.0000000000,   0.0000000000)
 A2 = (  -4.4702402500,   7.7426832400,   0.0000000000)
 A3 = (   0.0000000000,   0.0000000000,   7.2890517500)


Analysis of symmetry for initial positions (statically):
=====================================================================
 Subroutine PRICEL returns:
 Original cell was already a primitive cell.
 

 Routine SETGRP: Setting up the symmetry group for a 
 hexagonal supercell.


 Subroutine GETGRP returns: Found  1 space group operations
 (whereof  1 operations were pure point group operations)
 out of a pool of 24 trial point group operations.


The static configuration has the point symmetry C_1 .


Analysis of symmetry for dynamics (positions and initial velocities):
=====================================================================
 Subroutine PRICEL returns:
 Original cell was already a primitive cell.
 

 Routine SETGRP: Setting up the symmetry group for a 
 hexagonal supercell.


 Subroutine GETGRP returns: Found  1 space group operations
 (whereof  1 operations were pure point group operations)
 out of a pool of 24 trial point group operations.


The dynamic configuration has the point symmetry C_1 .


Analysis of structural, dynamic, and magnetic symmetry:
=====================================================================
 Subroutine PRICEL returns:
 Original cell was already a primitive cell.
 

 Routine SETGRP: Setting up the symmetry group for a 
 hexagonal supercell.


 Subroutine GETGRP returns: Found  1 space group operations
 (whereof  1 operations were pure point group operations)
 out of a pool of 24 trial point group operations.


The magnetic configuration has the point symmetry C_1 .


 Subroutine INISYM returns: Found  1 space group operations
 (whereof  1 operations are pure point group operations),
 and found     1 'primitive' translations

 
 
 KPOINTS: Automatic mesh                          

Automatic generation of k-mesh.
Space group operators:
 irot       det(A)        alpha          n_x          n_y          n_z        tau_x        tau_y        tau_z
    1     1.000000     0.000000     1.000000     0.000000     0.000000     0.000000     0.000000     0.000000
 
 Subroutine IBZKPT returns following result:
 ===========================================
 
 Found     36 irreducible k-points:
 
 Following reciprocal coordinates:
            Coordinates               Weight
  0.000000  0.000000  0.000000      1.000000
  0.250000  0.000000  0.000000      2.000000
  0.500000  0.000000  0.000000      1.000000
  0.000000  0.250000  0.000000      2.000000
  0.250000  0.250000  0.000000      2.000000
  0.500000  0.250000  0.000000      2.000000
 -0.250000  0.250000  0.000000      2.000000
  0.000000  0.500000  0.000000      1.000000
  0.250000  0.500000  0.000000      2.000000
  0.500000  0.500000  0.000000      1.000000
  0.000000  0.000000  0.250000      2.000000
  0.250000  0.000000  0.250000      2.000000
  0.500000  0.000000  0.250000      2.000000
 -0.250000 -0.000000  0.250000      2.000000
  0.000000  0.250000  0.250000      2.000000
  0.250000  0.250000  0.250000      2.000000
  0.500000  0.250000  0.250000      2.000000
 -0.250000  0.250000  0.250000      2.000000
  0.000000  0.500000  0.250000      2.000000
  0.250000  0.500000  0.250000      2.000000
  0.500000  0.500000  0.250000      2.000000
 -0.250000  0.500000  0.250000      2.000000
  0.000000 -0.250000  0.250000      2.000000
  0.250000 -0.250000  0.250000      2.000000
  0.500000 -0.250000  0.250000      2.000000
 -0.250000 -0.250000  0.250000      2.000000
  0.000000  0.000000  0.500000      1.000000
  0.250000  0.000000  0.500000      2.000000
  0.500000  0.000000  0.500000      1.000000
  0.000000  0.250000  0.500000      2.000000
  0.250000  0.250000  0.500000      2.000000
  0.500000  0.250000  0.500000      2.000000
 -0.250000  0.250000  0.500000      2.000000
  0.000000  0.500000  0.500000      1.000000
  0.250000  0.500000  0.500000      2.000000
  0.500000  0.500000  0.500000      1.000000
 
 Following cartesian coordinates:
            Coordinates               Weight
  0.000000  0.000000  0.000000      1.000000
  0.027963  0.016144  0.000000      2.000000
  0.055925  0.032289  0.000000      1.000000
  0.000000  0.032289  0.000000      2.000000
  0.027963  0.048433  0.000000      2.000000
  0.055925  0.064577  0.000000      2.000000
 -0.027963  0.016144  0.000000      2.000000
  0.000000  0.064577  0.000000      1.000000
  0.027963  0.080721  0.000000      2.000000
  0.055925  0.096866  0.000000      1.000000
  0.000000  0.000000  0.034298      2.000000
  0.027963  0.016144  0.034298      2.000000
  0.055925  0.032289  0.034298      2.000000
 -0.027963 -0.016144  0.034298      2.000000
  0.000000  0.032289  0.034298      2.000000
  0.027963  0.048433  0.034298      2.000000
  0.055925  0.064577  0.034298      2.000000
 -0.027963  0.016144  0.034298      2.000000
  0.000000  0.064577  0.034298      2.000000
  0.027963  0.080721  0.034298      2.000000
  0.055925  0.096866  0.034298      2.000000
 -0.027963  0.048433  0.034298      2.000000
  0.000000 -0.032289  0.034298      2.000000
  0.027963 -0.016144  0.034298      2.000000
  0.055925  0.000000  0.034298      2.000000
 -0.027963 -0.048433  0.034298      2.000000
  0.000000  0.000000  0.068596      1.000000
  0.027963  0.016144  0.068596      2.000000
  0.055925  0.032289  0.068596      1.000000
  0.000000  0.032289  0.068596      2.000000
  0.027963  0.048433  0.068596      2.000000
  0.055925  0.064577  0.068596      2.000000
 -0.027963  0.016144  0.068596      2.000000
  0.000000  0.064577  0.068596      1.000000
  0.027963  0.080721  0.068596      2.000000
  0.055925  0.096866  0.068596      1.000000
 


--------------------------------------------------------------------------------------------------------




 Dimension of arrays:
   k-points           NKPTS =     36   k-points in BZ     NKDIM =     36   number of bands    NBANDS=    304
   number of dos      NEDOS =    301   number of ions     NIONS =     54
   non local maximal  LDIM  =      6   non local SUM 2l+1 LMDIM =     18
   total plane-waves  NPLWV = 264600
   max r-space proj   IRMAX =   7090   max aug-charges    IRDMAX=  17196
   dimension x,y,z NGX =    70 NGY =   70 NGZ =   54
   dimension x,y,z NGXF=   140 NGYF=  140 NGZF=  108
   support grid    NGXF=   140 NGYF=  140 NGZF=  108
   ions per type =              27  27
   NGX,Y,Z   is equivalent  to a cutoff of  13.02, 13.02, 12.32 a.u.
   NGXF,Y,Z  is equivalent  to a cutoff of  26.03, 26.03, 24.63 a.u.

 SYSTEM =  unknown system                          
 POSCAR =  NiO_C2_m_scale_1_025_disp_0_05_round_2  

 Startparameter for this run:
   NWRITE =      1    write-flag & timer
   PREC   = accura    normal or accurate (medium, high low for compatibility)
   ISTART =      0    job   : 0-new  1-cont  2-samecut
   ICHARG =      2    charge: 1-file 2-atom 10-const
   ISPIN  =      2    spin polarized calculation?
   LNONCOLLINEAR =      F non collinear calculations
   LSORBIT =      F    spin-orbit coupling
   INIWAV =      1    electr: 0-lowe 1-rand  2-diag
   LASPH  =      F    aspherical Exc in radial PAW
   METAGGA=      F    non-selfconsistent MetaGGA calc.

 Electronic Relaxation 1
   ENCUT  =  500.0 eV  36.75 Ry    6.06 a.u.  16.30 16.30 13.29*2*pi/ulx,y,z
   ENINI  =  500.0     initial cutoff
   ENAUG  =  605.4 eV  augmentation charge cutoff
   NELM   =     80;   NELMIN=  2; NELMDL= -5     # of ELM steps 
   EDIFF  = 0.1E-04   stopping-criterion for ELM
   LREAL  =      T    real-space projection
   NLSPLINE    = F    spline interpolate recip. space projectors
   LCOMPAT=      F    compatible to vasp.4.4
   GGA_COMPAT  = T    GGA compatible to vasp.4.4-vasp.4.6
   LMAXPAW     = -100 max onsite density
   LMAXMIX     =    2 max onsite mixed and CHGCAR
   VOSKOWN=      1    Vosko Wilk Nusair interpolation
   ROPT   =   -0.00025  -0.00025
 Ionic relaxation
   EDIFFG = 0.1E-03   stopping-criterion for IOM
   NSW    =      0    number of steps for IOM
   NBLOCK =      1;   KBLOCK =      1    inner block; outer block 
   IBRION =     -1    ionic relax: 0-MD 1-quasi-New 2-CG
   NFREE  =      0    steps in history (QN), initial steepest desc. (CG)
   ISIF   =      2    stress and relaxation
   IWAVPR =     10    prediction:  0-non 1-charg 2-wave 3-comb
   ISYM   =      2    0-nonsym 1-usesym 2-fastsym
   LCORR  =      T    Harris-Foulkes like correction to forces

   POTIM  = 0.5000    time-step for ionic-motion
   TEIN   =    0.0    initial temperature
   TEBEG  =    0.0;   TEEND  =   0.0 temperature during run
   SMASS  =  -3.00    Nose mass-parameter (am)
   estimated Nose-frequenzy (Omega)   =  0.10E-29 period in steps =****** mass=  -0.183E-26a.u.
   SCALEE = 1.0000    scale energy and forces
   NPACO  =    256;   APACO  = 16.0  distance and # of slots for P.C.
   PSTRESS=    0.0 pullay stress

  Mass of Ions in am
   POMASS =  58.69 16.00
  Ionic Valenz
   ZVAL   =  10.00  6.00
  Atomic Wigner-Seitz radii
   RWIGS  =   1.15  0.73
  virtual crystal weights 
   VCA    =   1.00  1.00
   NELECT =     432.0000    total number of electrons
   NUPDOWN=      -1.0000    fix difference up-down

 DOS related values:
   EMIN   =  10.00;   EMAX   =-10.00  energy-range for DOS
   EFERMI =   0.00
   ISMEAR =     0;   SIGMA  =   0.05  broadening in eV -4-tet -1-fermi 0-gaus

 Electronic relaxation 2 (details)
   IALGO  =     38    algorithm
   LDIAG  =      T    sub-space diagonalisation (order eigenvalues)
   LSUBROT=      F    optimize rotation matrix (better conditioning)
   TURBO    =      0    0=normal 1=particle mesh
   IRESTART =      0    0=no restart 2=restart with 2 vectors
   NREBOOT  =      0    no. of reboots
   NMIN     =      0    reboot dimension
   EREF     =   0.00    reference energy to select bands
   IMIX   =      4    mixing-type and parameters
     AMIX     =   0.40;   BMIX     =  1.00
     AMIX_MAG =   1.60;   BMIX_MAG =  1.00
     AMIN     =   0.10
     WC   =   100.;   INIMIX=   1;  MIXPRE=   1;  MAXMIX= -45

 Intra band minimization:
   WEIMIN = 0.0000     energy-eigenvalue tresh-hold
   EBREAK =  0.82E-08  absolut break condition
   DEPER  =   0.30     relativ break condition  

   TIME   =   0.40     timestep for ELM

  volume/ion in A,a.u.               =       9.34        63.06
  Fermi-wavevector in a.u.,A,eV,Ry     =   1.554515  2.937608 32.878713  2.416517
  Thomas-Fermi vector in A             =   2.658590
 
 Write flags
   LWAVE        =      F    write WAVECAR
   LDOWNSAMPLE  =      F    k-point downsampling of WAVECAR
   LCHARG       =      T    write CHGCAR
   LVTOT        =      F    write LOCPOT, total local potential
   LVHAR        =      F    write LOCPOT, Hartree potential only
   LELF         =      F    write electronic localiz. function (ELF)
   LORBIT       =      0    0 simple, 1 ext, 2 COOP (PROOUT), +10 PAW based schemes


 Dipole corrections
   LMONO  =      F    monopole corrections only (constant potential shift)
   LDIPOL =      F    correct potential (dipole corrections)
   IDIPOL =      0    1-x, 2-y, 3-z, 4-all directions 
   EPSILON=  1.0000000 bulk dielectric constant

 Exchange correlation treatment:
   GGA     =    PS    GGA type
   LEXCH   =    14    internal setting for exchange type
   VOSKOWN=      1    Vosko Wilk Nusair interpolation
   LHFCALC =     F    Hartree Fock is set to
   LHFONE  =     F    Hartree Fock one center treatment
   AEXX    =    0.0000 exact exchange contribution

 Linear response parameters
   LEPSILON=     F    determine dielectric tensor
   LRPA    =     F    only Hartree local field effects (RPA)
   LNABLA  =     F    use nabla operator in PAW spheres
   LVEL    =     F    velocity operator in full k-point grid
   LINTERFAST=   F  fast interpolation
   KINTER  =     0    interpolate to denser k-point grid
   CSHIFT  =0.1000    complex shift for real part using Kramers Kronig
   OMEGAMAX=  -1.0    maximum frequency
   DEG_THRESHOLD= 0.2000000E-02 threshold for treating states as degnerate
   RTIME   =   -0.100 relaxation time in fs
  (WPLASMAI=    0.000 imaginary part of plasma frequency in eV, 0.658/RTIME)
   DFIELD  = 0.0000000 0.0000000 0.0000000 field for delta impulse in time
 
 Orbital magnetization related:
   ORBITALMAG=     F  switch on orbital magnetization
   LCHIMAG   =     F  perturbation theory with respect to B field
   DQ        =  0.001000  dq finite difference perturbation B field
   LLRAUG    =     F  two centre corrections for induced B field



--------------------------------------------------------------------------------------------------------


 Static calculation
 charge density and potential will be updated during run
 spin polarized calculation
 Variant of blocked Davidson
 Davidson routine will perform the subspace rotation
 perform sub-space diagonalisation
    after iterative eigenvector-optimisation
 modified Broyden-mixing scheme, WC =      100.0
 initial mixing is a Kerker type mixing with AMIX =  0.4000 and BMIX =      1.0000
 Hartree-type preconditioning will be used
 using additional bands           88
 real space projection scheme for non local part
 use partial core corrections
 calculate Harris-corrections to forces 
   (improved forces if not selfconsistent)
 use gradient corrections 
 use of overlap-Matrix (Vanderbilt PP)
 Gauss-broadening in eV      SIGMA  =   0.05


--------------------------------------------------------------------------------------------------------


  energy-cutoff  :      500.00
  volume of cell :      504.57
      direct lattice vectors                 reciprocal lattice vectors
     8.940480500  0.000000000  0.000000000     0.111850812  0.064577096  0.000000000
    -4.470240250  7.742683240  0.000000000     0.000000000  0.129154192  0.000000000
     0.000000000  0.000000000  7.289051750     0.000000000  0.000000000  0.137192057

  length of vectors
     8.940480500  8.940480504  7.289051750     0.129154192  0.129154192  0.137192057


 
 k-points in units of 2pi/SCALE and weight: Automatic mesh                          
   0.00000000  0.00000000  0.00000000       0.016
   0.02796270  0.01614427  0.00000000       0.031
   0.05592541  0.03228855  0.00000000       0.016
   0.00000000  0.03228855  0.00000000       0.031
   0.02796270  0.04843282  0.00000000       0.031
   0.05592541  0.06457710  0.00000000       0.031
  -0.02796270  0.01614427  0.00000000       0.031
   0.00000000  0.06457710  0.00000000       0.016
   0.02796270  0.08072137  0.00000000       0.031
   0.05592541  0.09686564  0.00000000       0.016
   0.00000000  0.00000000  0.03429801       0.031
   0.02796270  0.01614427  0.03429801       0.031
   0.05592541  0.03228855  0.03429801       0.031
  -0.02796270 -0.01614427  0.03429801       0.031
   0.00000000  0.03228855  0.03429801       0.031
   0.02796270  0.04843282  0.03429801       0.031
   0.05592541  0.06457710  0.03429801       0.031
  -0.02796270  0.01614427  0.03429801       0.031
   0.00000000  0.06457710  0.03429801       0.031
   0.02796270  0.08072137  0.03429801       0.031
   0.05592541  0.09686564  0.03429801       0.031
  -0.02796270  0.04843282  0.03429801       0.031
   0.00000000 -0.03228855  0.03429801       0.031
   0.02796270 -0.01614427  0.03429801       0.031
   0.05592541  0.00000000  0.03429801       0.031
  -0.02796270 -0.04843282  0.03429801       0.031
   0.00000000  0.00000000  0.06859603       0.016
   0.02796270  0.01614427  0.06859603       0.031
   0.05592541  0.03228855  0.06859603       0.016
   0.00000000  0.03228855  0.06859603       0.031
   0.02796270  0.04843282  0.06859603       0.031
   0.05592541  0.06457710  0.06859603       0.031
  -0.02796270  0.01614427  0.06859603       0.031
   0.00000000  0.06457710  0.06859603       0.016
   0.02796270  0.08072137  0.06859603       0.031
   0.05592541  0.09686564  0.06859603       0.016
 
 k-points in reciprocal lattice and weights: Automatic mesh                          
   0.00000000  0.00000000  0.00000000       0.016
   0.25000000  0.00000000  0.00000000       0.031
   0.50000000  0.00000000  0.00000000       0.016
   0.00000000  0.25000000  0.00000000       0.031
   0.25000000  0.25000000  0.00000000       0.031
   0.50000000  0.25000000  0.00000000       0.031
  -0.25000000  0.25000000  0.00000000       0.031
   0.00000000  0.50000000  0.00000000       0.016
   0.25000000  0.50000000  0.00000000       0.031
   0.50000000  0.50000000  0.00000000       0.016
   0.00000000  0.00000000  0.25000000       0.031
   0.25000000  0.00000000  0.25000000       0.031
   0.50000000  0.00000000  0.25000000       0.031
  -0.25000000 -0.00000000  0.25000000       0.031
   0.00000000  0.25000000  0.25000000       0.031
   0.25000000  0.25000000  0.25000000       0.031
   0.50000000  0.25000000  0.25000000       0.031
  -0.25000000  0.25000000  0.25000000       0.031
   0.00000000  0.50000000  0.25000000       0.031
   0.25000000  0.50000000  0.25000000       0.031
   0.50000000  0.50000000  0.25000000       0.031
  -0.25000000  0.50000000  0.25000000       0.031
   0.00000000 -0.25000000  0.25000000       0.031
   0.25000000 -0.25000000  0.25000000       0.031
   0.50000000 -0.25000000  0.25000000       0.031
  -0.25000000 -0.25000000  0.25000000       0.031
   0.00000000  0.00000000  0.50000000       0.016
   0.25000000  0.00000000  0.50000000       0.031
   0.50000000  0.00000000  0.50000000       0.016
   0.00000000  0.25000000  0.50000000       0.031
   0.25000000  0.25000000  0.50000000       0.031
   0.50000000  0.25000000  0.50000000       0.031
  -0.25000000  0.25000000  0.50000000       0.031
   0.00000000  0.50000000  0.50000000       0.016
   0.25000000  0.50000000  0.50000000       0.031
   0.50000000  0.50000000  0.50000000       0.016
 
 position of ions in fractional coordinates (direct lattice) 
   0.00788548  0.01077869  0.99818714
   0.21157845  0.10878222  0.33558969
   0.10930766  0.21484739  0.64465701
   0.99834570  0.32791702  0.99934637
   0.21190122  0.43241356  0.32641284
   0.11476240  0.54649052  0.64481554
   0.99812066  0.65338963  0.99997284
   0.21955516  0.75562538  0.32937428
   0.10786067  0.86261636  0.65730569
   0.32921412  0.99492944  0.00345529
   0.53036828  0.10983257  0.31007833
   0.43587514  0.21387672  0.64021459
   0.31531845  0.32205601  0.00160807
   0.54658044  0.44337859  0.31577233
   0.43107278  0.54168382  0.65545074
   0.33013638  0.65932051  0.99569616
   0.53347150  0.76622450  0.33959706
   0.43174847  0.86451577  0.65017384
   0.65752802  0.01467687  0.00403496
   0.85930150  0.10045580  0.32146121
   0.75089006  0.21270519  0.64328268
   0.65424274  0.32330592  0.99830776
   0.86556899  0.43375262  0.32925709
   0.74976876  0.54183095  0.64770884
   0.65927861  0.64839895  0.99943637
   0.85614821  0.75742294  0.32696779
   0.76439747  0.88140245  0.65248233
   0.99792311  0.00163708  0.47076080
   0.20742418  0.09693454  0.81461199
   0.11323156  0.21260033  0.16077875
   0.00251211  0.32588799  0.48564701
   0.21305792  0.43394218  0.81941249
   0.11146643  0.53181383  0.16913705
   0.99836220  0.64477121  0.49455580
   0.22215062  0.77029623  0.81271227
   0.11189170  0.87367327  0.17166673
   0.33145290  0.00202783  0.48930503
   0.54710972  0.11123805  0.81476474
   0.43956429  0.22621332  0.15202561
   0.32027211  0.32319704  0.47958543
   0.54710798  0.43479862  0.79326690
   0.43346123  0.53838012  0.15783652
   0.32072090  0.65097349  0.48841882
   0.54721090  0.75337485  0.81720567
   0.43804367  0.87138902  0.16217627
   0.65054646  0.00314694  0.49545346
   0.87453742  0.11337060  0.81558698
   0.76588275  0.21603706  0.16024808
   0.65039661  0.33102275  0.48918079
   0.87569396  0.43350486  0.81497739
   0.75350312  0.54213147  0.16868504
   0.65562855  0.64485795  0.48382939
   0.87978902  0.75959653  0.80734437
   0.76420056  0.86121036  0.15603604
 
 position of ions in cartesian coordinates  (Angst):
   0.02231665  0.08345598  7.27583772
   1.40533035  0.84226627  2.44613062
   0.01684355  1.66349529  4.69893831
   7.45982240  2.53895761  7.28428741
  -0.03849378  3.34804122  2.37924008
  -1.41691292  4.23130299  4.70009384
   6.00286967  5.05898894  7.28885378
  -1.41489836  5.85056797  2.40082617
  -2.89177616  6.67896523  4.79113519
  -1.50424121  7.70342350  0.02518579
   4.25076929  0.85039880  2.26017699
   2.94085287  1.65597970  4.66655728
   1.37943071  2.49357767  0.01172131
   2.90468295  3.43293998  2.30168085
   1.43254097  4.19408623  4.77761436
   0.00425679  5.10490986  7.25768084
   1.34428394  5.93263359  2.47534054
  -0.00455441  6.69367176  4.73915077
   5.81300731  0.11363836  0.02941103
   7.23350674  0.77779744  2.34314740
   5.76247464  1.64690891  4.68892074
   4.40398932  2.50325533  7.27671693
   5.79962426  3.35840914  2.39997197
   4.28117846  4.19522542  4.72118325
   2.99576847  5.02034768  7.28494342
   4.26851386  5.86448590  2.38328514
   2.89399997  6.82441998  4.75597747
   8.91459396  0.01267539  3.43139983
   1.42115115  0.75053344  5.93774895
   0.06197000  1.64609701  1.17192463
  -1.43433814  2.52324748  3.53990619
  -0.03498562  3.35987684  5.97274004
  -1.38077214  4.11766603  1.23284871
   6.04355557  4.99225924  3.60484282
  -1.45727593  5.96415971  5.92390179
  -2.90516385  6.76457538  1.25128768
   2.95428330  0.01570085  3.56656969
   4.39416297  0.86128099  5.93886235
   2.91868808  1.75149808  1.10812254
   1.41861814  2.50241230  3.49572302
   2.94775393  3.36650799  5.78216349
   1.46866319  4.16850673  1.15047856
  -0.04260894  5.04028153  3.56011005
   1.52456180  5.83314282  5.95665442
   0.02100262  6.74688916  1.18211122
   5.80213036  0.02436576  3.61138591
   7.31199093  0.87779264  5.94485570
   5.88162223  1.67270652  1.16805655
   4.33510699  2.56300430  3.56566409
   5.89125390  3.35649081  5.94041237
   4.31322203  4.19755225  1.22955399
   2.97896430  4.99293084  3.52665746
   4.47015760  5.88131532  5.88477489
   2.98250299  6.66807902  1.13735477
 


--------------------------------------------------------------------------------------------------------


 k-point  1 :   0.0000 0.0000 0.0000  plane waves:   12783
 k-point  2 :   0.2500 0.0000 0.0000  plane waves:   12792
 k-point  3 :   0.5000 0.0000 0.0000  plane waves:   12824
 k-point  4 :   0.0000 0.2500 0.0000  plane waves:   12792
 k-point  5 :   0.2500 0.2500 0.0000  plane waves:   12812
 k-point  6 :   0.5000 0.2500 0.0000  plane waves:   12812
 k-point  7 :  -0.2500 0.2500 0.0000  plane waves:   12792
 k-point  8 :   0.0000 0.5000 0.0000  plane waves:   12824
 k-point  9 :   0.2500 0.5000 0.0000  plane waves:   12812
 k-point 10 :   0.5000 0.5000 0.0000  plane waves:   12824
 k-point 11 :   0.0000 0.0000 0.2500  plane waves:   12801
 k-point 12 :   0.2500 0.0000 0.2500  plane waves:   12808
 k-point 13 :   0.5000 0.0000 0.2500  plane waves:   12822
 k-point 14 :  -0.2500-0.0000 0.2500  plane waves:   12808
 k-point 15 :   0.0000 0.2500 0.2500  plane waves:   12808
 k-point 16 :   0.2500 0.2500 0.2500  plane waves:   12798
 k-point 17 :   0.5000 0.2500 0.2500  plane waves:   12798
 k-point 18 :  -0.2500 0.2500 0.2500  plane waves:   12808
 k-point 19 :   0.0000 0.5000 0.2500  plane waves:   12822
 k-point 20 :   0.2500 0.5000 0.2500  plane waves:   12798
 k-point 21 :   0.5000 0.5000 0.2500  plane waves:   12822
 k-point 22 :  -0.2500 0.5000 0.2500  plane waves:   12798
 k-point 23 :   0.0000-0.2500 0.2500  plane waves:   12808
 k-point 24 :   0.2500-0.2500 0.2500  plane waves:   12808
 k-point 25 :   0.5000-0.2500 0.2500  plane waves:   12798
 k-point 26 :  -0.2500-0.2500 0.2500  plane waves:   12798
 k-point 27 :   0.0000 0.0000 0.5000  plane waves:   12878
 k-point 28 :   0.2500 0.0000 0.5000  plane waves:   12818
 k-point 29 :   0.5000 0.0000 0.5000  plane waves:   12812
 k-point 30 :   0.0000 0.2500 0.5000  plane waves:   12818
 k-point 31 :   0.2500 0.2500 0.5000  plane waves:   12786
 k-point 32 :   0.5000 0.2500 0.5000  plane waves:   12786
 k-point 33 :  -0.2500 0.2500 0.5000  plane waves:   12818
 k-point 34 :   0.0000 0.5000 0.5000  plane waves:   12812
 k-point 35 :   0.2500 0.5000 0.5000  plane waves:   12786
 k-point 36 :   0.5000 0.5000 0.5000  plane waves:   12812

 maximum and minimum number of plane-waves per node :     12878    12783

 maximum number of plane-waves:     12878
 maximum index in each direction: 
   IXMAX=   16   IYMAX=   16   IZMAX=   13
   IXMIN=  -16   IYMIN=  -16   IZMIN=  -13

 The following grids will avoid any aliasing or wrap around errors in the Hartre
 e energy
  - symmetry arguments have not been applied
  - exchange correlation energies might require even more grid points
  - we recommend to set PREC=Normal or Accurate and rely on VASP defaults
 NGX is ok and might be reduce to    70
 NGY is ok and might be reduce to    70
 NGZ is ok and might be reduce to    54

 serial   3D FFT for wavefunctions
 parallel 3D FFT for charge:
    minimum data exchange during FFTs selected (reduces bandwidth)


 total amount of memory used by VASP MPI-rank0   408154. kBytes
=======================================================================

   base      :      30000. kBytes
   nonlr-proj:      41052. kBytes
   fftplans  :       5725. kBytes
   grid      :      32372. kBytes
   one-center:       1679. kBytes
   wavefun   :     297326. kBytes
 
     INWAV:  cpu time    0.0000: real time    0.0000
 Broyden mixing: mesh for mixing (old mesh)
   NGX = 33   NGY = 33   NGZ = 27
  (NGX  =140   NGY  =140   NGZ  =108)
  gives a total of  29403 points

 initial charge density was supplied:
 charge density of overlapping atoms calculated
 number of electron     432.0000000 magnetization      67.5000000
 keeping initial charge density in first step


--------------------------------------------------------------------------------------------------------


 Maximum index for non-local projection operator         6843
 Maximum index for augmentation-charges         1223 (set IRDMAX)


--------------------------------------------------------------------------------------------------------


 First call to EWALD:  gamma=   0.223
 Maximum number of real-space cells 3x 3x 3
 Maximum number of reciprocal cells 3x 3x 3

    FEWALD:  cpu time    0.0025: real time    0.0026


--------------------------------------- Iteration      1(   1)  ---------------------------------------


    POTLOK:  cpu time    0.1832: real time    0.1849
    SETDIJ:  cpu time    0.0252: real time    0.0252
     EDDAV:  cpu time  147.9420: real time  148.2926
    --------------------------------------------
      LOOP:  cpu time  148.1548: real time  148.5071

 eigenvalue-minimisations  : 43776
 total energy-change (2. order) : 0.5135975E+04  (-0.1752219E+05)
 number of electron     432.0000000 magnetization      67.5000000
 augmentation part      432.0000000 magnetization      67.5000000

 Free energy of the ion-electron system (eV)
  ---------------------------------------------------
  alpha Z        PSCENC =      1714.29250713
  Ewald energy   TEWEN  =    -34526.24878182
  -Hartree energ DENC   =     -9234.90132545
  -exchange      EXHF   =         0.00000000
  -V(xc)+E(xc)   XCENC  =      1643.37923780
  PAW double counting   =     35307.98069315   -37155.18892105
  entropy T*S    EENTRO =        -0.01062266
  eigenvalues    EBANDS =      6678.19755571
  atomic energy  EATOM  =     40708.47505058
  Solvation  Ediel_sol  =         0.00000000
  ---------------------------------------------------
  free energy    TOTEN  =      5135.97539340 eV

  energy without entropy =     5135.98601606  energy(sigma->0) =     5135.98070473


--------------------------------------------------------------------------------------------------------




--------------------------------------- Iteration      1(   2)  ---------------------------------------


     EDDAV:  cpu time  137.9807: real time  138.3076
    --------------------------------------------
      LOOP:  cpu time  137.9806: real time  138.3075

 eigenvalue-minimisations  : 43776
 total energy-change (2. order) :-0.4422618E+04  (-0.4007613E+04)
 number of electron     432.0000000 magnetization      67.5000000
 augmentation part      432.0000000 magnetization      67.5000000

 Free energy of the ion-electron system (eV)
  ---------------------------------------------------
  alpha Z        PSCENC =      1714.29250713
  Ewald energy   TEWEN  =    -34526.24878182
  -Hartree energ DENC   =     -9234.90132545
  -exchange      EXHF   =         0.00000000
  -V(xc)+E(xc)   XCENC  =      1643.37923780
  PAW double counting   =     35307.98069315   -37155.18892105
  entropy T*S    EENTRO =        -0.02737240
  eigenvalues    EBANDS =      2255.59591895
  atomic energy  EATOM  =     40708.47505058
  Solvation  Ediel_sol  =         0.00000000
  ---------------------------------------------------
  free energy    TOTEN  =       713.35700690 eV

  energy without entropy =      713.38437930  energy(sigma->0) =      713.37069310


--------------------------------------------------------------------------------------------------------




--------------------------------------- Iteration      1(   3)  ---------------------------------------


     EDDAV:  cpu time  142.0783: real time  142.4150
    --------------------------------------------
      LOOP:  cpu time  142.0787: real time  142.4153

 eigenvalue-minimisations  : 44944
 total energy-change (2. order) :-0.9980761E+03  (-0.8867757E+03)
 number of electron     432.0000000 magnetization      67.5000000
 augmentation part      432.0000000 magnetization      67.5000000

 Free energy of the ion-electron system (eV)
  ---------------------------------------------------
  alpha Z        PSCENC =      1714.29250713
  Ewald energy   TEWEN  =    -34526.24878182
  -Hartree energ DENC   =     -9234.90132545
  -exchange      EXHF   =         0.00000000
  -V(xc)+E(xc)   XCENC  =      1643.37923780
  PAW double counting   =     35307.98069315   -37155.18892105
  entropy T*S    EENTRO =        -0.11478445
  eigenvalues    EBANDS =      1257.60722549
  atomic energy  EATOM  =     40708.47505058
  Solvation  Ediel_sol  =         0.00000000
  ---------------------------------------------------
  free energy    TOTEN  =      -284.71909861 eV

  energy without entropy =     -284.60431416  energy(sigma->0) =     -284.66170639


--------------------------------------------------------------------------------------------------------




--------------------------------------- Iteration      1(   4)  ---------------------------------------


     EDDAV:  cpu time  157.6568: real time  158.0303
    --------------------------------------------
      LOOP:  cpu time  157.6567: real time  158.0302

 eigenvalue-minimisations  : 51568
 total energy-change (2. order) :-0.1095121E+03  (-0.1040351E+03)
 number of electron     432.0000000 magnetization      67.5000000
 augmentation part      432.0000000 magnetization      67.5000000

 Free energy of the ion-electron system (eV)
  ---------------------------------------------------
  alpha Z        PSCENC =      1714.29250713
  Ewald energy   TEWEN  =    -34526.24878182
  -Hartree energ DENC   =     -9234.90132545
  -exchange      EXHF   =         0.00000000
  -V(xc)+E(xc)   XCENC  =      1643.37923780
  PAW double counting   =     35307.98069315   -37155.18892105
  entropy T*S    EENTRO =        -0.12281909
  eigenvalues    EBANDS =      1148.10317056
  atomic energy  EATOM  =     40708.47505058
  Solvation  Ediel_sol  =         0.00000000
  ---------------------------------------------------
  free energy    TOTEN  =      -394.23118818 eV

  energy without entropy =     -394.10836909  energy(sigma->0) =     -394.16977863


--------------------------------------------------------------------------------------------------------




--------------------------------------- Iteration      1(   5)  ---------------------------------------


     EDDAV:  cpu time  161.1144: real time  161.4962
    CHARGE:  cpu time    6.0582: real time    6.0726
    MIXING:  cpu time    0.0036: real time    0.0036
    --------------------------------------------
      LOOP:  cpu time  167.1718: real time  167.5680

 eigenvalue-minimisations  : 50544
 total energy-change (2. order) :-0.2806574E+01  (-0.2779918E+01)
 number of electron     431.9999994 magnetization      60.1717257
 augmentation part      173.1271658 magnetization      47.3038216

 Broyden mixing:
  rms(total) = 0.76692E+01    rms(broyden)= 0.76679E+01
  rms(prec ) = 0.10375E+02
  weight for this iteration     100.00

 Free energy of the ion-electron system (eV)
  ---------------------------------------------------
  alpha Z        PSCENC =      1714.29250713
  Ewald energy   TEWEN  =    -34526.24878182
  -Hartree energ DENC   =     -9234.90132545
  -exchange      EXHF   =         0.00000000
  -V(xc)+E(xc)   XCENC  =      1643.37923780
  PAW double counting   =     35307.98069315   -37155.18892105
  entropy T*S    EENTRO =        -0.12383311
  eigenvalues    EBANDS =      1145.29761085
  atomic energy  EATOM  =     40708.47505058
  Solvation  Ediel_sol  =         0.00000000
  ---------------------------------------------------
  free energy    TOTEN  =      -397.03776191 eV

  energy without entropy =     -396.91392880  energy(sigma->0) =     -396.97584535


--------------------------------------------------------------------------------------------------------




--------------------------------------- Iteration      1(   6)  ---------------------------------------


    POTLOK:  cpu time    0.1611: real time    0.1615
    SETDIJ:  cpu time    0.0256: real time    0.0257
     EDDAV:  cpu time  191.8277: real time  192.2821
    CHARGE:  cpu time    5.0063: real time    5.0182
    MIXING:  cpu time    0.0038: real time    0.0038
    --------------------------------------------
      LOOP:  cpu time  197.0245: real time  197.4914

 eigenvalue-minimisations  : 61328
 total energy-change (2. order) : 0.1508040E+02  (-0.4345018E+02)
 number of electron     431.9999994 magnetization      50.2377641
 augmentation part      199.4163855 magnetization      44.3373571

 Broyden mixing:
  rms(total) = 0.11733E+02    rms(broyden)= 0.11732E+02
  rms(prec ) = 0.14080E+02
  weight for this iteration     100.00

 eigenvalues of (default mixing * dielectric matrix)
  average eigenvalue GAMMA=   0.2333
  0.2333

 Free energy of the ion-electron system (eV)
  ---------------------------------------------------
  alpha Z        PSCENC =      1714.29250713
  Ewald energy   TEWEN  =    -34526.24878182
  -Hartree energ DENC   =     -8870.08556556
  -exchange      EXHF   =         0.00000000
  -V(xc)+E(xc)   XCENC  =      1638.30830527
  PAW double counting   =     37360.40205631   -39049.32610160
  entropy T*S    EENTRO =        -0.04928831
  eigenvalues    EBANDS =       642.27445614
  atomic energy  EATOM  =     40708.47505058
  Solvation  Ediel_sol  =         0.00000000
  ---------------------------------------------------
  free energy    TOTEN  =      -381.95736186 eV

  energy without entropy =     -381.90807355  energy(sigma->0) =     -381.93271771


--------------------------------------------------------------------------------------------------------




--------------------------------------- Iteration      1(   7)  ---------------------------------------


    POTLOK:  cpu time    0.1549: real time    0.1553
    SETDIJ:  cpu time    0.0256: real time    0.0257
     EDDAV:  cpu time  177.4135: real time  177.8337
    CHARGE:  cpu time    5.9297: real time    5.9438
    MIXING:  cpu time    0.0050: real time    0.0050
    --------------------------------------------
      LOOP:  cpu time  183.5287: real time  183.9634

 eigenvalue-minimisations  : 52800
 total energy-change (2. order) : 0.4275050E+02  (-0.1597707E+02)
 number of electron     431.9999994 magnetization      46.9627111
 augmentation part      185.8255527 magnetization      37.7372348

 Broyden mixing:
  rms(total) = 0.75115E+01    rms(broyden)= 0.75111E+01
  rms(prec ) = 0.10802E+02
  weight for this iteration     100.00

 eigenvalues of (default mixing * dielectric matrix)
  average eigenvalue GAMMA=   0.3659
  0.3659  0.3659

 Free energy of the ion-electron system (eV)
  ---------------------------------------------------
  alpha Z        PSCENC =      1714.29250713
  Ewald energy   TEWEN  =    -34526.24878182
  -Hartree energ DENC   =     -9005.50973152
  -exchange      EXHF   =         0.00000000
  -V(xc)+E(xc)   XCENC  =      1630.45696980
  PAW double counting   =     38543.59035123   -40352.71250583
  entropy T*S    EENTRO =        -0.08556533
  eigenvalues    EBANDS =       948.53484172
  atomic energy  EATOM  =     40708.47505058
  Solvation  Ediel_sol  =         0.00000000
  ---------------------------------------------------
  free energy    TOTEN  =      -339.20686404 eV

  energy without entropy =     -339.12129872  energy(sigma->0) =     -339.16408138


--------------------------------------------------------------------------------------------------------




--------------------------------------- Iteration      1(   8)  ---------------------------------------


    POTLOK:  cpu time    0.2074: real time    0.2079
    SETDIJ:  cpu time    0.0428: real time    0.0429
     EDDAV:  cpu time  196.9457: real time  197.4122
    CHARGE:  cpu time    5.9645: real time    5.9786
    MIXING:  cpu time    0.0047: real time    0.0047
    --------------------------------------------
      LOOP:  cpu time  203.1651: real time  203.6464

 eigenvalue-minimisations  : 57280
 total energy-change (2. order) :-0.1153077E+02  (-0.1553810E+02)
 number of electron     431.9999995 magnetization      39.8166284
 augmentation part      184.8143692 magnetization      31.8989646

 Broyden mixing:
  rms(total) = 0.72437E+01    rms(broyden)= 0.72431E+01
  rms(prec ) = 0.11218E+02
  weight for this iteration     100.00

 eigenvalues of (default mixing * dielectric matrix)
  average eigenvalue GAMMA=   0.4575
  0.6234  0.6234  0.1258

 Free energy of the ion-electron system (eV)
  ---------------------------------------------------
  alpha Z        PSCENC =      1714.29250713
  Ewald energy   TEWEN  =    -34526.24878182
  -Hartree energ DENC   =     -9020.79146518
  -exchange      EXHF   =         0.00000000
  -V(xc)+E(xc)   XCENC  =      1629.01269781
  PAW double counting   =     39080.58131313   -40915.08285727
  entropy T*S    EENTRO =        -0.08182493
  eigenvalues    EBANDS =       979.10572249
  atomic energy  EATOM  =     40708.47505058
  Solvation  Ediel_sol  =         0.00000000
  ---------------------------------------------------
  free energy    TOTEN  =      -350.73763806 eV

  energy without entropy =     -350.65581313  energy(sigma->0) =     -350.69672560


--------------------------------------------------------------------------------------------------------




--------------------------------------- Iteration      1(   9)  ---------------------------------------


    POTLOK:  cpu time    0.1763: real time    0.1767
    SETDIJ:  cpu time    0.0256: real time    0.0256
     EDDAV:  cpu time  193.9975: real time  194.4571
    CHARGE:  cpu time    5.7086: real time    5.7221
    MIXING:  cpu time    0.0060: real time    0.0060
    --------------------------------------------
      LOOP:  cpu time  199.9139: real time  200.3875

 eigenvalue-minimisations  : 57616
 total energy-change (2. order) :-0.3167488E+02  (-0.1789216E+02)
 number of electron     431.9999990 magnetization      34.9600316
 augmentation part      184.1590448 magnetization      28.8499673

 Broyden mixing:
  rms(total) = 0.10932E+02    rms(broyden)= 0.10931E+02
  rms(prec ) = 0.17791E+02
  weight for this iteration     100.00

 eigenvalues of (default mixing * dielectric matrix)
  average eigenvalue GAMMA=   0.4159
  0.8845  0.5334  0.1382  0.1077

 Free energy of the ion-electron system (eV)
  ---------------------------------------------------
  alpha Z        PSCENC =      1714.29250713
  Ewald energy   TEWEN  =    -34526.24878182
  -Hartree energ DENC   =     -8983.35800921
  -exchange      EXHF   =         0.00000000
  -V(xc)+E(xc)   XCENC  =      1626.74834116
  PAW double counting   =     40170.20204270   -42030.84166086
  entropy T*S    EENTRO =        -0.05268150
  eigenvalues    EBANDS =       938.37067084
  atomic energy  EATOM  =     40708.47505058
  Solvation  Ediel_sol  =         0.00000000
  ---------------------------------------------------
  free energy    TOTEN  =      -382.41252097 eV

  energy without entropy =     -382.35983947  energy(sigma->0) =     -382.38618022


--------------------------------------------------------------------------------------------------------




--------------------------------------- Iteration      1(  10)  ---------------------------------------


    POTLOK:  cpu time    0.1620: real time    0.1624
    SETDIJ:  cpu time    0.0258: real time    0.0258
     EDDAV:  cpu time  182.9703: real time  183.4038
    CHARGE:  cpu time    5.8579: real time    5.8718
    MIXING:  cpu time    0.0040: real time    0.0040
    --------------------------------------------
      LOOP:  cpu time  189.0200: real time  189.4677

 eigenvalue-minimisations  : 57392
 total energy-change (2. order) : 0.3179540E+02  (-0.1416048E+02)
 number of electron     431.9999996 magnetization      33.9193460
 augmentation part      185.3698027 magnetization      26.4655829

 Broyden mixing:
  rms(total) = 0.64773E+01    rms(broyden)= 0.64768E+01
  rms(prec ) = 0.99809E+01
  weight for this iteration     100.00

 eigenvalues of (default mixing * dielectric matrix)
  average eigenvalue GAMMA=   0.3741
  0.8920  0.5601  0.2012  0.1087  0.1087

 Free energy of the ion-electron system (eV)
  ---------------------------------------------------
  alpha Z        PSCENC =      1714.29250713
  Ewald energy   TEWEN  =    -34526.24878182
  -Hartree energ DENC   =     -8955.62545349
  -exchange      EXHF   =         0.00000000
  -V(xc)+E(xc)   XCENC  =      1625.47360067
  PAW double counting   =     40849.77809711   -42724.31890768
  entropy T*S    EENTRO =        -0.09350835
  eigenvalues    EBANDS =       957.65027928
  atomic energy  EATOM  =     40708.47505058
  Solvation  Ediel_sol  =         0.00000000
  ---------------------------------------------------
  free energy    TOTEN  =      -350.61711657 eV

  energy without entropy =     -350.52360822  energy(sigma->0) =     -350.57036240


--------------------------------------------------------------------------------------------------------




--------------------------------------- Iteration      1(  11)  ---------------------------------------


    POTLOK:  cpu time    0.1614: real time    0.1618
    SETDIJ:  cpu time    0.0335: real time    0.0336
     EDDAV:  cpu time  185.9050: real time  186.3453
    CHARGE:  cpu time    6.0638: real time    6.0782
    MIXING:  cpu time    0.0054: real time    0.0055
    --------------------------------------------
      LOOP:  cpu time  192.1691: real time  192.6243

 eigenvalue-minimisations  : 52624
 total energy-change (2. order) : 0.1595893E+02  (-0.3302968E+01)
 number of electron     431.9999995 magnetization      31.3308058
 augmentation part      186.2315208 magnetization      24.8354189

 Broyden mixing:
  rms(total) = 0.36539E+01    rms(broyden)= 0.36533E+01
  rms(prec ) = 0.54651E+01
  weight for this iteration     100.00

 eigenvalues of (default mixing * dielectric matrix)
  average eigenvalue GAMMA=   0.4300
  1.2214  0.6677  0.3351  0.1302  0.1302  0.0954

 Free energy of the ion-electron system (eV)
  ---------------------------------------------------
  alpha Z        PSCENC =      1714.29250713
  Ewald energy   TEWEN  =    -34526.24878182
  -Hartree energ DENC   =     -8953.84053951
  -exchange      EXHF   =         0.00000000
  -V(xc)+E(xc)   XCENC  =      1625.34850952
  PAW double counting   =     41023.57782151   -42903.93002111
  entropy T*S    EENTRO =        -0.07293502
  eigenvalues    EBANDS =       977.74019802
  atomic energy  EATOM  =     40708.47505058
  Solvation  Ediel_sol  =         0.00000000
  ---------------------------------------------------
  free energy    TOTEN  =      -334.65819069 eV

  energy without entropy =     -334.58525567  energy(sigma->0) =     -334.62172318


--------------------------------------------------------------------------------------------------------




--------------------------------------- Iteration      1(  12)  ---------------------------------------


    POTLOK:  cpu time    0.2044: real time    0.2049
    SETDIJ:  cpu time    0.0417: real time    0.0418
     EDDAV:  cpu time  186.0059: real time  186.4464
    CHARGE:  cpu time    5.0951: real time    5.1072
    MIXING:  cpu time    0.0043: real time    0.0043
    --------------------------------------------
      LOOP:  cpu time  191.3514: real time  191.8046

 eigenvalue-minimisations  : 55216
 total energy-change (2. order) :-0.1280298E+02  (-0.4063130E+01)
 number of electron     431.9999998 magnetization      26.2577162
 augmentation part      184.7903661 magnetization      20.1584117

 Broyden mixing:
  rms(total) = 0.83509E+01    rms(broyden)= 0.83503E+01
  rms(prec ) = 0.14123E+02
  weight for this iteration     100.00

 eigenvalues of (default mixing * dielectric matrix)
  average eigenvalue GAMMA=   0.4592
  1.6866  0.6964  0.3627  0.1449  0.1449  0.0895  0.0895

 Free energy of the ion-electron system (eV)
  ---------------------------------------------------
  alpha Z        PSCENC =      1714.29250713
  Ewald energy   TEWEN  =    -34526.24878182
  -Hartree energ DENC   =     -8953.14316099
  -exchange      EXHF   =         0.00000000
  -V(xc)+E(xc)   XCENC  =      1624.42646904
  PAW double counting   =     41315.20317676   -43204.29025925
  entropy T*S    EENTRO =        -0.05410798
  eigenvalues    EBANDS =       973.87793625
  atomic energy  EATOM  =     40708.47505058
  Solvation  Ediel_sol  =         0.00000000
  ---------------------------------------------------
  free energy    TOTEN  =      -347.46117027 eV

  energy without entropy =     -347.40706229  energy(sigma->0) =     -347.43411628


--------------------------------------------------------------------------------------------------------




--------------------------------------- Iteration      1(  13)  ---------------------------------------


    POTLOK:  cpu time    0.1565: real time    0.1569
    SETDIJ:  cpu time    0.0258: real time    0.0259
     EDDAV:  cpu time  171.1192: real time  171.5245
    CHARGE:  cpu time    5.1302: real time    5.1424
    MIXING:  cpu time    0.0047: real time    0.0047
    --------------------------------------------
      LOOP:  cpu time  176.4364: real time  176.8544

 eigenvalue-minimisations  : 57488
 total energy-change (2. order) : 0.4790158E+01  (-0.1092676E+02)
 number of electron     431.9999991 magnetization      25.1212738
 augmentation part      185.2116473 magnetization      18.8090775

 Broyden mixing:
  rms(total) = 0.56907E+01    rms(broyden)= 0.56903E+01
  rms(prec ) = 0.91581E+01
  weight for this iteration     100.00

 eigenvalues of (default mixing * dielectric matrix)
  average eigenvalue GAMMA=   0.4289
  1.7640  0.7051  0.3652  0.1973  0.1084  0.1084  0.1065  0.0761

 Free energy of the ion-electron system (eV)
  ---------------------------------------------------
  alpha Z        PSCENC =      1714.29250713
  Ewald energy   TEWEN  =    -34526.24878182
  -Hartree energ DENC   =     -8940.41303336
  -exchange      EXHF   =         0.00000000
  -V(xc)+E(xc)   XCENC  =      1623.07239206
  PAW double counting   =     41885.21263638   -43785.92626577
  entropy T*S    EENTRO =        -0.08864295
  eigenvalues    EBANDS =       978.95312595
  atomic energy  EATOM  =     40708.47505058
  Solvation  Ediel_sol  =         0.00000000
  ---------------------------------------------------
  free energy    TOTEN  =      -342.67101180 eV

  energy without entropy =     -342.58236885  energy(sigma->0) =     -342.62669032


--------------------------------------------------------------------------------------------------------




--------------------------------------- Iteration      1(  14)  ---------------------------------------


    POTLOK:  cpu time    0.1633: real time    0.1637
    SETDIJ:  cpu time    0.0258: real time    0.0259
     EDDAV:  cpu time  165.4042: real time  165.7959
    CHARGE:  cpu time    5.1279: real time    5.1400
    MIXING:  cpu time    0.0051: real time    0.0051
    --------------------------------------------
      LOOP:  cpu time  170.7263: real time  171.1306

 eigenvalue-minimisations  : 55136
 total energy-change (2. order) : 0.7478555E+01  (-0.3563263E+01)
 number of electron     431.9999994 magnetization      24.3836056
 augmentation part      185.7863157 magnetization      18.9922413

 Broyden mixing:
  rms(total) = 0.28446E+01    rms(broyden)= 0.28438E+01
  rms(prec ) = 0.44601E+01
  weight for this iteration     100.00

 eigenvalues of (default mixing * dielectric matrix)
  average eigenvalue GAMMA=   0.4352
  1.7823  0.7872  0.4173  0.4173  0.1250  0.1250  0.0976  0.0825  0.0825

 Free energy of the ion-electron system (eV)
  ---------------------------------------------------
  alpha Z        PSCENC =      1714.29250713
  Ewald energy   TEWEN  =    -34526.24878182
  -Hartree energ DENC   =     -8940.93400438
  -exchange      EXHF   =         0.00000000
  -V(xc)+E(xc)   XCENC  =      1622.89036645
  PAW double counting   =     42015.47524856   -43920.48824640
  entropy T*S    EENTRO =        -0.06524862
  eigenvalues    EBANDS =       991.41065195
  atomic energy  EATOM  =     40708.47505058
  Solvation  Ediel_sol  =         0.00000000
  ---------------------------------------------------
  free energy    TOTEN  =      -335.19245655 eV

  energy without entropy =     -335.12720793  energy(sigma->0) =     -335.15983224


--------------------------------------------------------------------------------------------------------




--------------------------------------- Iteration      1(  15)  ---------------------------------------


    POTLOK:  cpu time    0.1627: real time    0.1631
    SETDIJ:  cpu time    0.0255: real time    0.0256
     EDDAV:  cpu time  160.3249: real time  160.7046
    CHARGE:  cpu time    5.0835: real time    5.0955
    MIXING:  cpu time    0.0051: real time    0.0052
    --------------------------------------------
      LOOP:  cpu time  165.6017: real time  165.9939

 eigenvalue-minimisations  : 53088
 total energy-change (2. order) : 0.1563337E+01  (-0.8676696E+00)
 number of electron     431.9999993 magnetization      23.8699870
 augmentation part      185.7006195 magnetization      18.3296262

 Broyden mixing:
  rms(total) = 0.26935E+01    rms(broyden)= 0.26930E+01
  rms(prec ) = 0.44404E+01
  weight for this iteration     100.00

 eigenvalues of (default mixing * dielectric matrix)
  average eigenvalue GAMMA=   0.4228
  1.7752  0.8536  0.4741  0.4741  0.1310  0.1310  0.1291  0.0921  0.0921  0.0757

 Free energy of the ion-electron system (eV)
  ---------------------------------------------------
  alpha Z        PSCENC =      1714.29250713
  Ewald energy   TEWEN  =    -34526.24878182
  -Hartree energ DENC   =     -8942.31969800
  -exchange      EXHF   =         0.00000000
  -V(xc)+E(xc)   XCENC  =      1622.74932013
  PAW double counting   =     42049.33456438   -43955.47494969
  entropy T*S    EENTRO =        -0.06832850
  eigenvalues    EBANDS =       995.63119656
  atomic energy  EATOM  =     40708.47505058
  Solvation  Ediel_sol  =         0.00000000
  ---------------------------------------------------
  free energy    TOTEN  =      -333.62911924 eV

  energy without entropy =     -333.56079074  energy(sigma->0) =     -333.59495499


--------------------------------------------------------------------------------------------------------




--------------------------------------- Iteration      1(  16)  ---------------------------------------


    POTLOK:  cpu time    0.1624: real time    0.1628
    SETDIJ:  cpu time    0.0253: real time    0.0254
     EDDAV:  cpu time  169.0814: real time  169.4820
    CHARGE:  cpu time    5.1257: real time    5.1379
    MIXING:  cpu time    0.0052: real time    0.0052
    --------------------------------------------
      LOOP:  cpu time  174.4001: real time  174.8133

 eigenvalue-minimisations  : 56800
 total energy-change (2. order) : 0.1527065E+01  (-0.8165712E+00)
 number of electron     431.9999993 magnetization      23.6409274
 augmentation part      185.5837794 magnetization      18.3691283

 Broyden mixing:
  rms(total) = 0.19752E+01    rms(broyden)= 0.19748E+01
  rms(prec ) = 0.32047E+01
  weight for this iteration     100.00

 eigenvalues of (default mixing * dielectric matrix)
  average eigenvalue GAMMA=   0.3981
  1.7613  0.8706  0.4697  0.4697  0.2038  0.1320  0.1320  0.0962  0.0962  0.0736
  0.0736

 Free energy of the ion-electron system (eV)
  ---------------------------------------------------
  alpha Z        PSCENC =      1714.29250713
  Ewald energy   TEWEN  =    -34526.24878182
  -Hartree energ DENC   =     -8944.40438907
  -exchange      EXHF   =         0.00000000
  -V(xc)+E(xc)   XCENC  =      1622.68784519
  PAW double counting   =     42053.33209987   -43959.09096822
  entropy T*S    EENTRO =        -0.06447018
  eigenvalues    EBANDS =       998.91905227
  atomic energy  EATOM  =     40708.47505058
  Solvation  Ediel_sol  =         0.00000000
  ---------------------------------------------------
  free energy    TOTEN  =      -332.10205426 eV

  energy without entropy =     -332.03758408  energy(sigma->0) =     -332.06981917


--------------------------------------------------------------------------------------------------------




--------------------------------------- Iteration      1(  17)  ---------------------------------------


    POTLOK:  cpu time    0.1613: real time    0.1617
    SETDIJ:  cpu time    0.0257: real time    0.0258
     EDDAV:  cpu time  167.9474: real time  168.3452
    CHARGE:  cpu time    5.1370: real time    5.1492
    MIXING:  cpu time    0.0053: real time    0.0053
    --------------------------------------------
      LOOP:  cpu time  173.2768: real time  173.6872

 eigenvalue-minimisations  : 56320
 total energy-change (2. order) : 0.7122405E+00  (-0.2590011E+00)
 number of electron     431.9999993 magnetization      23.4238891
 augmentation part      185.5016160 magnetization      18.0321639

 Broyden mixing:
  rms(total) = 0.15220E+01    rms(broyden)= 0.15218E+01
  rms(prec ) = 0.24246E+01
  weight for this iteration     100.00

 eigenvalues of (default mixing * dielectric matrix)
  average eigenvalue GAMMA=   0.3754
  1.7540  0.8643  0.4675  0.4675  0.2329  0.1376  0.1376  0.1015  0.1015  0.0841
  0.0841  0.0720

 Free energy of the ion-electron system (eV)
  ---------------------------------------------------
  alpha Z        PSCENC =      1714.29250713
  Ewald energy   TEWEN  =    -34526.24878182
  -Hartree energ DENC   =     -8945.74055965
  -exchange      EXHF   =         0.00000000
  -V(xc)+E(xc)   XCENC  =      1622.71873620
  PAW double counting   =     42047.87992991   -43952.81440323
  entropy T*S    EENTRO =        -0.06314873
  eigenvalues    EBANDS =      1000.11085588
  atomic energy  EATOM  =     40708.47505058
  Solvation  Ediel_sol  =         0.00000000
  ---------------------------------------------------
  free energy    TOTEN  =      -331.38981374 eV

  energy without entropy =     -331.32666501  energy(sigma->0) =     -331.35823938


--------------------------------------------------------------------------------------------------------




--------------------------------------- Iteration      1(  18)  ---------------------------------------


    POTLOK:  cpu time    0.1625: real time    0.1629
    SETDIJ:  cpu time    0.0256: real time    0.0256
     EDDAV:  cpu time  168.4890: real time  168.8882
    CHARGE:  cpu time    5.1134: real time    5.1255
    MIXING:  cpu time    0.0059: real time    0.0059
    --------------------------------------------
      LOOP:  cpu time  173.7964: real time  174.2081

 eigenvalue-minimisations  : 56464
 total energy-change (2. order) : 0.3245650E+00  (-0.1245930E+00)
 number of electron     431.9999993 magnetization      23.2960704
 augmentation part      185.3987732 magnetization      17.9022724

 Broyden mixing:
  rms(total) = 0.12155E+01    rms(broyden)= 0.12153E+01
  rms(prec ) = 0.18705E+01
  weight for this iteration     100.00

 eigenvalues of (default mixing * dielectric matrix)
  average eigenvalue GAMMA=   0.3541
  1.7478  0.8682  0.4596  0.4596  0.1753  0.1753  0.1551  0.1222  0.1222  0.0905
  0.0905  0.0732  0.0642

 Free energy of the ion-electron system (eV)
  ---------------------------------------------------
  alpha Z        PSCENC =      1714.29250713
  Ewald energy   TEWEN  =    -34526.24878182
  -Hartree energ DENC   =     -8946.68368882
  -exchange      EXHF   =         0.00000000
  -V(xc)+E(xc)   XCENC  =      1622.78402854
  PAW double counting   =     42049.42190934   -43953.55624875
  entropy T*S    EENTRO =        -0.06737926
  eigenvalues    EBANDS =      1000.51735433
  atomic energy  EATOM  =     40708.47505058
  Solvation  Ediel_sol  =         0.00000000
  ---------------------------------------------------
  free energy    TOTEN  =      -331.06524874 eV

  energy without entropy =     -330.99786948  energy(sigma->0) =     -331.03155911


--------------------------------------------------------------------------------------------------------




--------------------------------------- Iteration      1(  19)  ---------------------------------------


    POTLOK:  cpu time    0.1617: real time    0.1620
    SETDIJ:  cpu time    0.0259: real time    0.0260
     EDDAV:  cpu time  168.8207: real time  169.2205
    CHARGE:  cpu time    4.9607: real time    4.9724
    MIXING:  cpu time    0.0059: real time    0.0060
    --------------------------------------------
      LOOP:  cpu time  173.9749: real time  174.3869

 eigenvalue-minimisations  : 56592
 total energy-change (2. order) : 0.1181147E+00  (-0.3923963E-01)
 number of electron     431.9999993 magnetization      23.0656151
 augmentation part      185.3635895 magnetization      17.6819001

 Broyden mixing:
  rms(total) = 0.11272E+01    rms(broyden)= 0.11272E+01
  rms(prec ) = 0.16947E+01
  weight for this iteration     100.00

 eigenvalues of (default mixing * dielectric matrix)
  average eigenvalue GAMMA=   0.3552
  1.7490  0.8815  0.4599  0.4599  0.2904  0.2904  0.1623  0.1309  0.1309  0.0965
  0.0965  0.0785  0.0785  0.0681

 Free energy of the ion-electron system (eV)
  ---------------------------------------------------
  alpha Z        PSCENC =      1714.29250713
  Ewald energy   TEWEN  =    -34526.24878182
  -Hartree energ DENC   =     -8947.02416484
  -exchange      EXHF   =         0.00000000
  -V(xc)+E(xc)   XCENC  =      1622.84619943
  PAW double counting   =     42054.02533131   -43957.56270307
  entropy T*S    EENTRO =        -0.06325519
  eigenvalues    EBANDS =      1000.31268243
  atomic energy  EATOM  =     40708.47505058
  Solvation  Ediel_sol  =         0.00000000
  ---------------------------------------------------
  free energy    TOTEN  =      -330.94713404 eV

  energy without entropy =     -330.88387885  energy(sigma->0) =     -330.91550644


--------------------------------------------------------------------------------------------------------




--------------------------------------- Iteration      1(  20)  ---------------------------------------


    POTLOK:  cpu time    0.1620: real time    0.1623
    SETDIJ:  cpu time    0.0255: real time    0.0255
     EDDAV:  cpu time  166.8080: real time  167.2031
    CHARGE:  cpu time    5.1356: real time    5.1478
    MIXING:  cpu time    0.0063: real time    0.0063
    --------------------------------------------
      LOOP:  cpu time  172.1373: real time  172.5451

 eigenvalue-minimisations  : 55888
 total energy-change (2. order) :-0.1016024E+00  (-0.2703249E-01)
 number of electron     431.9999993 magnetization      22.8885459
 augmentation part      185.3389887 magnetization      17.5334786

 Broyden mixing:
  rms(total) = 0.11453E+01    rms(broyden)= 0.11452E+01
  rms(prec ) = 0.17085E+01
  weight for this iteration     100.00

 eigenvalues of (default mixing * dielectric matrix)
  average eigenvalue GAMMA=   0.3650
  1.7554  0.8850  0.4328  0.4328  0.4712  0.4712  0.2284  0.1306  0.1306  0.1088
  0.1088  0.0875  0.0875  0.0777  0.0665

 Free energy of the ion-electron system (eV)
  ---------------------------------------------------
  alpha Z        PSCENC =      1714.29250713
  Ewald energy   TEWEN  =    -34526.24878182
  -Hartree energ DENC   =     -8947.50438260
  -exchange      EXHF   =         0.00000000
  -V(xc)+E(xc)   XCENC  =      1622.96620331
  PAW double counting   =     42071.60048985   -43974.59189968
  entropy T*S    EENTRO =        -0.06389660
  eigenvalues    EBANDS =      1000.02597342
  atomic energy  EATOM  =     40708.47505058
  Solvation  Ediel_sol  =         0.00000000
  ---------------------------------------------------
  free energy    TOTEN  =      -331.04873641 eV

  energy without entropy =     -330.98483981  energy(sigma->0) =     -331.01678811


--------------------------------------------------------------------------------------------------------




--------------------------------------- Iteration      1(  21)  ---------------------------------------


    POTLOK:  cpu time    0.1624: real time    0.1628
    SETDIJ:  cpu time    0.0257: real time    0.0258
     EDDAV:  cpu time  172.6717: real time  173.0808
    CHARGE:  cpu time    5.0854: real time    5.0974
    MIXING:  cpu time    0.0066: real time    0.0066
    --------------------------------------------
      LOOP:  cpu time  177.9518: real time  178.3734

 eigenvalue-minimisations  : 55904
 total energy-change (2. order) :-0.9216921E-01  (-0.2822637E-01)
 number of electron     431.9999993 magnetization      22.6762350
 augmentation part      185.3298343 magnetization      17.3369190

 Broyden mixing:
  rms(total) = 0.11117E+01    rms(broyden)= 0.11116E+01
  rms(prec ) = 0.16632E+01
  weight for this iteration     100.00

 eigenvalues of (default mixing * dielectric matrix)
  average eigenvalue GAMMA=   0.3761
  1.7720  0.8766  0.6043  0.6043  0.4800  0.4800  0.2926  0.1295  0.1295  0.1205
  0.1205  0.0917  0.0917  0.0785  0.0785  0.0668

 Free energy of the ion-electron system (eV)
  ---------------------------------------------------
  alpha Z        PSCENC =      1714.29250713
  Ewald energy   TEWEN  =    -34526.24878182
  -Hartree energ DENC   =     -8947.56506811
  -exchange      EXHF   =         0.00000000
  -V(xc)+E(xc)   XCENC  =      1623.07897190
  PAW double counting   =     42086.84475757   -43989.49439204
  entropy T*S    EENTRO =        -0.06261295
  eigenvalues    EBANDS =       999.53866212
  atomic energy  EATOM  =     40708.47505058
  Solvation  Ediel_sol  =         0.00000000
  ---------------------------------------------------
  free energy    TOTEN  =      -331.14090562 eV

  energy without entropy =     -331.07829267  energy(sigma->0) =     -331.10959915


--------------------------------------------------------------------------------------------------------




--------------------------------------- Iteration      1(  22)  ---------------------------------------


    POTLOK:  cpu time    0.1629: real time    0.1633
    SETDIJ:  cpu time    0.0262: real time    0.0263
     EDDAV:  cpu time  182.7066: real time  183.1393
    CHARGE:  cpu time    5.1780: real time    5.1903
    MIXING:  cpu time    0.0067: real time    0.0067
    --------------------------------------------
      LOOP:  cpu time  188.0805: real time  188.5259

 eigenvalue-minimisations  : 58144
 total energy-change (2. order) :-0.1618086E+00  (-0.2238995E-01)
 number of electron     431.9999993 magnetization      22.5539349
 augmentation part      185.3150203 magnetization      17.1858491

 Broyden mixing:
  rms(total) = 0.11177E+01    rms(broyden)= 0.11176E+01
  rms(prec ) = 0.16754E+01
  weight for this iteration     100.00

 eigenvalues of (default mixing * dielectric matrix)
  average eigenvalue GAMMA=   0.3650
  1.7752  0.8732  0.6513  0.6513  0.4808  0.4808  0.2910  0.1266  0.1266  0.1265
  0.1265  0.0943  0.0943  0.0825  0.0825  0.0756  0.0663

 Free energy of the ion-electron system (eV)
  ---------------------------------------------------
  alpha Z        PSCENC =      1714.29250713
  Ewald energy   TEWEN  =    -34526.24878182
  -Hartree energ DENC   =     -8947.36810794
  -exchange      EXHF   =         0.00000000
  -V(xc)+E(xc)   XCENC  =      1623.27184014
  PAW double counting   =     42108.91420821   -44011.27936489
  entropy T*S    EENTRO =        -0.05996054
  eigenvalues    EBANDS =       998.69989489
  atomic energy  EATOM  =     40708.47505058
  Solvation  Ediel_sol  =         0.00000000
  ---------------------------------------------------
  free energy    TOTEN  =      -331.30271424 eV

  energy without entropy =     -331.24275369  energy(sigma->0) =     -331.27273396


--------------------------------------------------------------------------------------------------------




--------------------------------------- Iteration      1(  23)  ---------------------------------------


    POTLOK:  cpu time    0.1630: real time    0.1634
    SETDIJ:  cpu time    0.0257: real time    0.0258
     EDDAV:  cpu time  188.2099: real time  188.6557
    CHARGE:  cpu time    5.0901: real time    5.1022
    MIXING:  cpu time    0.0067: real time    0.0067
    --------------------------------------------
      LOOP:  cpu time  193.4954: real time  193.9538

[...]
  in kB      -82.1872560    -89.0812439    -85.7354885     -0.7232671     -6.5375416     -2.0151623
  external PRESSURE =     -85.6679962 kB  Pullay stress =       0.0000000 kB


 VOLUME and BASIS-vectors are now :
 -----------------------------------------------------------------------------
  energy-cutoff  :      500.00
  volume of cell :      504.57
      direct lattice vectors                 reciprocal lattice vectors
     8.940480500  0.000000000  0.000000000     0.111850812  0.064577096  0.000000000
    -4.470240250  7.742683240  0.000000000     0.000000000  0.129154192  0.000000000
     0.000000000  0.000000000  7.289051750     0.000000000  0.000000000  0.137192057

  length of vectors
     8.940480500  8.940480504  7.289051750     0.129154192  0.129154192  0.137192057


 FORCES acting on ions
    electron-ion (+dipol)            ewald-force                    non-local-force                 convergence-correction
 -----------------------------------------------------------------------------------------------
   0.574E+02 0.138E+03 0.657E+02   -.575E+02 -.138E+03 -.661E+02   -.320E+00 -.134E+01 0.235E-01   0.249E-02 -.229E-01 0.153E-01
   0.556E+01 0.133E+03 0.474E+02   -.757E+01 -.134E+03 -.465E+02   0.253E+01 0.919E+00 -.183E+01   0.196E-01 -.217E-01 -.463E-02
   0.655E+02 0.103E+03 -.107E+03   -.666E+02 -.104E+03 0.107E+03   0.384E+00 0.522E+00 0.123E+00   -.908E-03 -.180E-01 -.146E-01
   0.494E+02 0.329E+02 0.726E+02   -.500E+02 -.324E+02 -.745E+02   0.247E+00 -.653E+00 0.106E+01   -.293E-01 -.236E-02 0.189E-01
   0.235E+02 0.231E+02 0.277E+02   -.249E+02 -.240E+02 -.279E+02   0.181E+01 0.655E+00 0.106E-01   -.991E-02 0.430E-02 -.876E-02
   0.903E+02 0.420E+02 -.124E+03   -.928E+02 -.431E+02 0.125E+03   0.129E+01 0.368E+00 0.375E+00   -.247E-01 0.312E-01 -.565E-02
   0.357E+02 -.361E+02 0.306E+02   -.362E+02 0.369E+02 -.316E+02   0.181E+00 -.757E+00 0.954E+00   -.207E-02 0.108E-01 -.913E-04
   0.110E+03 -.656E+02 0.504E+02   -.112E+03 0.659E+02 -.516E+02   0.134E+01 0.202E+00 0.760E+00   -.122E-01 0.157E-01 0.573E-02
   0.106E+03 -.399E+02 -.251E+02   -.106E+03 0.389E+02 0.274E+02   -.416E+00 0.148E+01 -.209E+01   0.204E-01 -.796E-02 -.146E-02
   0.435E+02 0.549E+02 0.752E+02   -.448E+02 -.557E+02 -.754E+02   0.937E+00 0.548E+00 -.392E+00   0.113E-01 -.111E-01 -.352E-02
   -.526E+02 0.613E+02 -.175E+00   0.516E+02 -.620E+02 0.122E+01   0.166E+01 0.324E+00 -.399E+00   0.879E-03 -.566E-02 0.714E-03
   0.383E+02 0.673E+02 -.115E+03   -.379E+02 -.681E+02 0.116E+03   -.656E+00 0.601E+00 -.538E+00   0.246E-01 -.270E-01 -.654E-02
   -.248E+02 0.212E+02 0.129E+03   0.241E+02 -.210E+02 -.128E+03   0.103E+01 0.139E+00 -.176E+01   0.197E-01 -.687E-02 0.178E-01
   0.108E+02 0.153E+02 0.238E+01   -.114E+02 -.150E+02 -.268E+01   0.178E+00 -.123E+01 0.882E+00   0.159E-01 -.273E-02 -.532E-02
   0.889E-01 -.226E+02 -.624E+02   0.938E+00 0.226E+02 0.660E+02   -.104E+01 -.320E-01 -.306E+01   0.917E-02 0.228E-01 -.556E-02
   0.183E+02 -.450E+02 0.564E+02   -.176E+02 0.457E+02 -.562E+02   -.679E+00 -.721E+00 -.291E+00   -.100E-01 0.308E-01 0.181E-02
   -.841E+02 -.799E+02 0.484E+02   0.839E+02 0.809E+02 -.500E+02   0.980E+00 -.767E+00 0.105E+01   0.466E-03 0.180E-01 -.350E-02
   -.162E+02 -.729E+02 -.950E+02   0.159E+02 0.735E+02 0.966E+02   0.287E+00 -.136E-01 -.111E+01   -.159E-01 0.182E-01 0.457E-02
   -.945E+02 0.106E+03 0.915E+02   0.949E+02 -.106E+03 -.925E+02   0.223E+00 -.171E+01 -.137E+00   -.122E-01 0.232E-02 0.501E-02
   -.492E+02 0.598E+02 0.217E+02   0.494E+02 -.600E+02 -.199E+02   0.496E+00 0.105E-01 -.142E+01   -.176E-01 -.432E-02 -.102E-01
   -.102E+03 -.115E+02 -.634E+02   0.102E+03 0.107E+02 0.659E+02   0.460E+00 0.143E+01 -.158E+01   -.189E-01 -.115E-01 -.512E-02
   -.405E+02 -.455E+02 0.952E+02   0.409E+02 0.450E+02 -.969E+02   -.310E+00 0.757E+00 0.625E+00   0.823E-02 -.104E-01 0.630E-02
   -.668E+02 -.268E+02 0.351E+02   0.670E+02 0.276E+02 -.343E+02   0.299E+00 -.811E+00 -.995E+00   -.425E-02 -.935E-03 -.446E-02
   -.127E+03 -.904E+02 -.906E+02   0.127E+03 0.912E+02 0.935E+02   0.177E+01 -.101E+00 -.219E+01   0.144E-01 0.305E-02 -.265E-02
   -.273E+02 -.960E+02 0.106E+03   0.266E+02 0.989E+02 -.106E+03   0.212E+00 -.228E+01 -.935E+00   0.116E-01 0.102E-01 0.677E-02
   -.127E+03 -.124E+03 0.465E+01   0.126E+03 0.126E+03 -.570E+01   0.263E+01 -.813E+00 0.935E+00   0.947E-02 -.800E-03 -.695E-02
   -.725E+02 -.597E+02 -.687E+02   0.728E+02 0.602E+02 0.718E+02   0.124E+00 -.237E+00 -.260E+01   -.903E-02 -.288E-02 -.222E-03
   0.273E+02 0.730E+02 -.435E+02   -.282E+02 -.766E+02 0.446E+02   0.150E+00 0.323E+01 -.539E+00   0.950E-02 -.207E-01 -.189E-01
   0.397E+01 0.426E+02 -.732E+01   -.127E+01 -.429E+02 0.590E+01   -.259E+01 0.430E+00 0.135E+01   0.360E-01 -.334E-01 0.311E-02
   0.646E+02 0.543E+02 0.719E+01   -.686E+02 -.545E+02 -.236E+01   0.337E+01 0.191E+00 -.462E+01   -.705E-02 -.785E-02 0.167E-01
   0.582E+02 0.472E+02 -.296E+02   -.617E+02 -.485E+02 0.303E+02   0.323E+01 0.115E+01 -.655E+00   -.297E-01 0.747E-02 -.236E-01
   0.257E+02 0.180E+02 -.281E+02   -.266E+02 -.184E+02 0.292E+02   0.886E+00 0.239E+00 -.995E+00   -.129E-01 0.195E-01 0.981E-02
   0.736E+02 -.247E+02 0.497E+02   -.771E+02 0.257E+02 -.490E+02   0.283E+01 -.702E+00 -.161E+01   -.151E-01 -.176E-02 0.593E-02
   0.568E+02 -.407E+02 0.903E+00   -.605E+02 0.415E+02 -.157E+01   0.340E+01 -.561E+00 0.484E+00   0.222E-02 0.963E-02 0.152E-02
   0.268E+02 -.767E+01 -.717E+02   -.267E+02 0.697E+01 0.761E+02   0.891E-01 0.450E+00 -.402E+01   -.105E-01 0.213E-01 -.965E-02
   0.546E+02 0.177E+02 0.192E+02   -.578E+02 -.177E+02 -.158E+02   0.326E+01 -.175E+00 -.395E+01   0.913E-02 0.401E-02 0.749E-03
   0.225E+02 0.618E+02 -.156E+02   -.228E+02 -.662E+02 0.155E+02   -.225E-01 0.433E+01 0.267E+00   -.300E-02 -.405E-02 0.901E-02
   0.430E+01 0.477E+02 -.181E+02   -.621E+01 -.501E+02 0.168E+02   0.161E+01 0.229E+01 0.194E+01   -.432E-02 -.129E-01 -.242E-02
   0.280E+02 0.347E+02 0.434E+02   -.314E+02 -.342E+02 -.439E+02   0.336E+01 -.737E+00 0.615E+00   0.762E-02 -.163E-01 0.689E-02
   -.482E+01 0.236E+01 -.332E+02   0.711E+01 0.557E+00 0.343E+02   -.208E+01 -.233E+01 -.107E+01   0.239E-01 -.694E-02 -.217E-01
   0.996E+01 0.147E+02 -.972E+02   -.114E+02 -.172E+02 0.103E+03   0.867E+00 0.184E+01 -.520E+01   0.125E-01 -.415E-02 0.431E-02
   0.135E+02 -.552E+02 0.471E+02   -.149E+02 0.584E+02 -.471E+02   0.111E+01 -.277E+01 -.146E+00   0.136E-01 0.989E-02 0.536E-02
   -.990E+01 -.926E+01 -.192E+02   0.117E+02 0.715E+01 0.197E+02   -.136E+01 0.214E+01 -.514E+00   -.991E-02 0.168E-01 0.315E-03
   -.287E+02 -.745E+02 -.620E+02   0.299E+02 0.771E+02 0.658E+02   -.131E+01 -.244E+01 -.363E+01   0.104E-02 0.168E-01 0.418E-02
   -.709E+01 -.128E+02 0.449E+02   0.770E+01 0.132E+02 -.449E+02   -.739E+00 -.212E+00 -.413E+00   -.332E-02 0.171E-01 -.410E-02
   -.312E+02 0.148E+02 -.413E+00   0.295E+02 -.149E+02 -.103E+01   0.204E+01 -.276E+00 0.993E+00   -.771E-02 0.372E-02 0.407E-03
   -.224E+02 0.413E+02 -.963E+01   0.224E+02 -.410E+02 0.829E+01   0.299E+00 -.475E+00 0.188E+01   -.281E-01 -.102E-01 0.104E-01
   -.379E+02 -.173E+02 0.187E+02   0.390E+02 0.214E+02 -.177E+02   -.884E+00 -.346E+01 -.588E+00   0.208E-02 -.543E-02 0.518E-02
   -.393E+02 0.151E+02 -.177E+01   0.389E+02 -.155E+02 0.168E+00   0.401E+00 0.203E+00 0.122E+01   0.542E-02 -.914E-02 -.523E-02
   -.226E+02 -.217E+02 -.184E+02   0.237E+02 0.224E+02 0.171E+02   -.115E+01 -.501E+00 0.148E+01   0.523E-04 0.245E-03 0.120E-02
   -.889E+02 -.467E+02 0.736E+02   0.934E+02 0.472E+02 -.760E+02   -.342E+01 -.384E+00 0.188E+01   0.175E-02 0.202E-02 0.135E-02
   0.167E+02 -.824E+02 -.367E+02   -.210E+02 0.838E+02 0.394E+02   0.359E+01 -.835E+00 -.255E+01   0.369E-02 0.529E-02 -.961E-02
   -.373E+01 -.620E+02 -.537E+02   0.330E+01 0.634E+02 0.564E+02   0.262E+00 -.133E+01 -.269E+01   0.112E-01 0.120E-02 0.112E-02
   0.509E+01 -.663E+02 0.656E+02   -.778E+01 0.694E+02 -.685E+02   0.242E+01 -.229E+01 0.279E+01   -.531E-02 -.194E-02 -.131E-02
 -----------------------------------------------------------------------------------------------
   -.353E+02 0.648E+01 0.328E+02   -.178E-12 0.512E-12 0.284E-13   0.353E+02 -.651E+01 -.328E+02   0.393E-02 0.105E-01 -.153E-01
 
 
 POSITION                                       TOTAL-FORCE (eV/Angst)
 -----------------------------------------------------------------------------------
      0.02232      0.08346      7.27584        -0.419155     -1.128928     -0.437650
      1.40533      0.84227      2.44613         0.535564     -0.874423     -0.899917
      0.01684      1.66350      4.69894        -0.763106     -0.589625      0.732568
      7.45982      2.53896      7.28429        -0.401843     -0.230781     -0.758144
     -0.03849      3.34804      2.37924         0.410734     -0.334051     -0.175929
     -1.41691      4.23130      4.70009        -1.159119     -0.707599      1.281077
      6.00287      5.05899      7.28885        -0.316117      0.130496     -0.127573
     -1.41490      5.85057      2.40083        -1.139680      0.530427     -0.410636
     -2.89178      6.67897      4.79114        -1.039941      0.513352      0.127693
     -1.50424      7.70342      0.02519        -0.360171     -0.256480     -0.629180
      4.25077      0.85040      2.26018         0.687486     -0.384700      0.641781
      2.94085      1.65598      4.66656        -0.184073     -0.302818      1.217597
      1.37943      2.49358      0.01172         0.301089      0.262213     -1.054024
      2.90468      3.43294      2.30168        -0.425246     -0.899002      0.575620
      1.43254      4.19409      4.77761        -0.001106     -0.000946      0.487136
      0.00426      5.10491      7.25768         0.099755     -0.010559     -0.113644
      1.34428      5.93263      2.47534         0.839614      0.222155     -0.547411
     -0.00455      6.69367      4.73915        -0.095619      0.661528      0.512927
      5.81301      0.11364      0.02941         0.605930     -1.206567     -1.112884
      7.23351      0.77780      2.34315         0.723452     -0.256484      0.362872
      5.76247      1.64691      4.68892         0.930927      0.556489      0.851823
      4.40399      2.50326      7.27672         0.115575      0.279707     -1.080284
      5.79962      3.35841      2.39997         0.540708     -0.031434     -0.197551
      4.28118      4.19523      4.72118         2.148526      0.620234      0.721650
      2.99577      5.02035      7.28494        -0.506853      0.579646     -0.946385
      4.26851      5.86449      2.38329         1.315323      0.992946     -0.125277
      2.89400      6.82442      4.75598         0.374078      0.275332      0.526430
      8.91459      0.01268      3.43140        -0.776388     -0.407169      0.606161
      1.42115      0.75053      5.93775         0.145786      0.139531     -0.065557
      0.06197      1.64610      1.17192        -0.625094     -0.035857      0.223956
     -1.43434      2.52325      3.53991        -0.337140     -0.074656      0.001980
     -0.03499      3.35988      5.97274        -0.048775     -0.124799      0.136031
     -1.38077      4.11767      1.23285        -0.630949      0.330547     -0.877461
      6.04356      4.99226      3.60484        -0.279747      0.208902     -0.180621
     -1.45728      5.96416      5.92390         0.212115     -0.232743      0.382942
     -2.90516      6.76458      1.25129         0.025846     -0.145290     -0.506153
      2.95428      0.01570      3.56657        -0.277723     -0.046069      0.190160
      4.39416      0.86128      5.93886        -0.305244     -0.144543      0.642549
      2.91869      1.75150      1.10812        -0.039295     -0.229195      0.111661
      1.41862      2.50241      3.49572         0.230757      0.576086      0.016078
      2.94775      3.36651      5.78216        -0.528771     -0.716182      0.698465
      1.46866      4.16851      1.15048        -0.310859      0.421414     -0.209786
     -0.04261      5.04028      3.56011         0.397827      0.047419      0.027325
      1.52456      5.83314      5.95665        -0.138190      0.191731      0.167291
      0.02100      6.74689      1.18211        -0.138179      0.141455     -0.400894
      5.80213      0.02437      3.61139         0.399210     -0.413903     -0.451034
      7.31199      0.87779      5.94486         0.264734     -0.169336      0.552469
      5.88162      1.67271      1.16806         0.131739      0.698353      0.332279
      4.33511      2.56300      3.56566         0.050238     -0.215622     -0.386966
      5.89125      3.35649      5.94041        -0.091200      0.241423      0.196552
      4.31322      4.19755      1.22955         1.064704      0.110631     -0.553799
      2.97896      4.99293      3.52666        -0.785735      0.574907      0.081225
      4.47016      5.88132      5.88477        -0.149547      0.095319     -0.046235
      2.98250      6.66808      1.13735        -0.276852      0.767518     -0.111307
 -----------------------------------------------------------------------------------
    total drift:                                0.018567     -0.015903      0.001912


--------------------------------------------------------------------------------------------------------



  FREE ENERGIE OF THE ION-ELECTRON SYSTEM (eV)
  ---------------------------------------------------
  free  energy   TOTEN  =      -332.0876539381 eV

  energy  without entropy=     -332.0503811471  energy(sigma->0) =     -332.06901754
 


--------------------------------------------------------------------------------------------------------


    POTLOK:  cpu time    0.1883: real time    0.1998


--------------------------------------------------------------------------------------------------------


     LOOP+:  cpu time 9638.7089: real time 9661.7933
    4ORBIT:  cpu time    0.0000: real time    0.0000

volume of typ            1:    34.1 %

volume of typ            2:     8.7 %
 
total charge     
 
# of ion       s       p       d       tot
------------------------------------------
    1        0.182   0.173   7.922   8.277
    2        0.208   0.228   7.940   8.375
    3        0.197   0.204   7.911   8.312
    4        0.184   0.184   7.960   8.329
    5        0.212   0.239   7.948   8.399
    6        0.202   0.220   7.932   8.354
    7        0.171   0.154   7.931   8.256
    8        0.197   0.205   7.938   8.341
    9        0.194   0.197   7.897   8.288
   10        0.182   0.176   7.924   8.282
   11        0.194   0.202   7.949   8.346
   12        0.204   0.220   7.947   8.372
   13        0.197   0.206   7.932   8.335
   14        0.214   0.244   7.955   8.413
   15        0.201   0.213   7.935   8.349
   16        0.188   0.188   7.923   8.298
   17        0.187   0.193   7.953   8.333
   18        0.195   0.199   7.930   8.324
   19        0.185   0.184   7.951   8.320
   20        0.187   0.186   7.928   8.301
   21        0.203   0.215   7.905   8.323
   22        0.189   0.194   7.930   8.314
   23        0.187   0.191   7.955   8.333
   24        0.218   0.243   7.925   8.386
   25        0.194   0.198   7.916   8.308
   26        0.202   0.211   7.921   8.334
   27        0.180   0.169   7.917   8.266
   28        1.261   2.748   0.005   4.015
   29        1.261   2.740   0.005   4.006
   30        1.261   2.773   0.008   4.042
   31        1.265   2.748   0.006   4.019
   32        1.262   2.749   0.005   4.016
   33        1.260   2.763   0.007   4.029
   34        1.260   2.758   0.006   4.023
   35        1.255   2.766   0.006   4.027
   36        1.260   2.737   0.004   4.001
   37        1.259   2.761   0.006   4.026
   38        1.260   2.751   0.005   4.016
   39        1.254   2.786   0.007   4.047
   40        1.260   2.778   0.007   4.045
   41        1.262   2.761   0.006   4.029
   42        1.260   2.767   0.006   4.033
   43        1.254   2.800   0.009   4.063
   44        1.258   2.751   0.005   4.014
   45        1.254   2.772   0.006   4.033
   46        1.250   2.778   0.006   4.034
   47        1.263   2.726   0.004   3.993
   48        1.254   2.778   0.008   4.040
   49        1.264   2.768   0.008   4.040
   50        1.267   2.722   0.004   3.992
   51        1.253   2.787   0.008   4.048
   52        1.257   2.787   0.008   4.052
   53        1.262   2.733   0.004   3.999
   54        1.260   2.749   0.005   4.014
--------------------------------------------------
tot          39.25   79.97  214.34  333.56
 
magnetization (x)
 
# of ion       s       p       d       tot
------------------------------------------
    1        0.003   0.003   1.351   1.357
    2        0.002   0.002  -1.114  -1.109
    3        0.004   0.004   1.247   1.256
    4        0.003   0.003   0.143   0.149
    5        0.002   0.006  -1.058  -1.050
    6        0.001   0.004  -1.129  -1.123
    7        0.003   0.001   1.350   1.353
    8        0.003   0.001   1.286   1.291
    9        0.008   0.011   1.364   1.382
   10        0.005   0.004   1.362   1.371
   11        0.006   0.006   1.315   1.327
   12        0.002   0.002   0.233   0.237
   13        0.004   0.007   1.373   1.385
   14        0.003   0.006  -1.054  -1.045
   15        0.004   0.004   1.307   1.315
   16        0.006   0.006   1.347   1.360
   17        0.005   0.004   1.337   1.346
   18        0.005   0.005   1.350   1.360
   19        0.003   0.001  -1.135  -1.131
   20        0.008   0.008   1.352   1.368
   21        0.004   0.006   1.370   1.380
   22        0.007   0.005   1.373   1.384
   23        0.006   0.005   1.159   1.170
   24       -0.000   0.002  -1.038  -1.036
   25        0.005   0.007   1.308   1.320
   26        0.006   0.009   1.351   1.367
   27        0.002   0.002   1.364   1.367
   28        0.012   0.113   0.000   0.126
   29        0.017   0.161   0.000   0.178
   30        0.008   0.113   0.000   0.121
   31        0.006   0.052   0.000   0.058
   32        0.011   0.098   0.000   0.109
   33        0.009   0.107   0.000   0.116
   34        0.008   0.064   0.000   0.073
   35        0.018   0.161   0.001   0.179
   36        0.014   0.162   0.000   0.176
   37        0.013   0.102   0.000   0.115
   38        0.019   0.156   0.001   0.176
   39        0.012   0.118   0.000   0.131
   40        0.002   0.004   0.000   0.006
   41        0.008   0.075   0.000   0.084
   42        0.011   0.119   0.000   0.130
   43        0.010   0.097   0.000   0.108
   44        0.019   0.187   0.001   0.206
   45        0.018   0.162   0.000   0.180
   46        0.026   0.221   0.001   0.248
   47        0.012   0.115   0.000   0.127
   48        0.012   0.089   0.000   0.102
   49        0.002   0.059  -0.000   0.061
   50        0.007   0.076   0.000   0.083
   51        0.018   0.145   0.000   0.164
   52        0.008   0.077   0.000   0.085
   53        0.013   0.138   0.000   0.151
   54        0.018   0.199   0.000   0.217
--------------------------------------------------
tot           0.44    3.30   19.12   22.86
 

 total amount of memory used by VASP MPI-rank0   408154. kBytes
=======================================================================

   base      :      30000. kBytes
   nonlr-proj:      41052. kBytes
   fftplans  :       5725. kBytes
   grid      :      32372. kBytes
   one-center:       1679. kBytes
   wavefun   :     297326. kBytes
 
  
  
 General timing and accounting informations for this job:
 ========================================================
  
                  Total CPU time used (sec):     9717.927
                            User time (sec):     9702.930
                          System time (sec):       14.997
                         Elapsed time (sec):     9744.779
  
                   Maximum memory used (kb):      507680.
                   Average memory used (kb):           0.
  
                          Minor page faults:        67380
                          Major page faults:           28
                 Voluntary context switches:         1189
