 vasp.5.4.4.18Apr17-6-g9f103f2a35 (build May 12 2020 04:58:55) complex          
  
 MD_VERSION_INFO: Compiled 2020-05-12T11:58:55-UTC in devlin.sd.materialsdesign.
 com:/home/medea2/data/build/wwolf/vasp-gpu5.4.4/13047/x86_64/src/src/build/std 
 from svn 13047
 
 This VASP executable licensed from Materials Design, Inc.
 
 executed on                        Lin64 date 2023.03.24  13:25:50
 running on   16 total cores
 distrk:  each k-point on   16 cores,    1 groups
 distr:  one band on NCORES_PER_BAND=   1 cores,   16 groups


--------------------------------------------------------------------------------------------------------


 INCAR:
 POTCAR:    PAW_PBE Ni 02Aug2007                  
 POTCAR:    PAW_PBE O 08Apr2002                   

 ----------------------------------------------------------------------------- 
|                                                                             |
|           W    W    AA    RRRRR   N    N  II  N    N   GGGG   !!!           |
|           W    W   A  A   R    R  NN   N  II  NN   N  G    G  !!!           |
|           W    W  A    A  R    R  N N  N  II  N N  N  G       !!!           |
|           W WW W  AAAAAA  RRRRR   N  N N  II  N  N N  G  GGG   !            |
|           WW  WW  A    A  R   R   N   NN  II  N   NN  G    G                |
|           W    W  A    A  R    R  N    N  II  N    N   GGGG   !!!           |
|                                                                             |
|      For optimal performance we recommend to set                            |
|        NCORE= 4 - approx SQRT( number of cores)                             |
|      NCORE specifies how many cores store one orbital (NPAR=cpu/NCORE).     |
|      This setting can  greatly improve the performance of VASP for DFT.     |
|      The default,   NCORE=1            might be grossly inefficient         |
|      on modern multi-core architectures or massively parallel machines.     |
|      Do your own testing !!!!                                               |
|      Unfortunately you need to use the default for GW and RPA calculations. |
|      (for HF NCORE is supported but not extensively tested yet)             |
|                                                                             |
 ----------------------------------------------------------------------------- 

 POTCAR:    PAW_PBE Ni 02Aug2007                  
  local pseudopotential read in
  partial core-charges read in
  partial kinetic energy density read in
  atomic valenz-charges read in
  non local Contribution for L=           2  read in
    real space projection operators read in
  non local Contribution for L=           2  read in
    real space projection operators read in
  non local Contribution for L=           0  read in
    real space projection operators read in
  non local Contribution for L=           0  read in
    real space projection operators read in
  non local Contribution for L=           1  read in
    real space projection operators read in
  non local Contribution for L=           1  read in
    real space projection operators read in
    PAW grid and wavefunctions read in
 
   number of l-projection  operators is LMAX  =           6
   number of lm-projection operators is LMMAX =          18
 
 POTCAR:    PAW_PBE O 08Apr2002                   
  local pseudopotential read in
  partial core-charges read in
  partial kinetic energy density read in
  kinetic energy density of atom read in
  atomic valenz-charges read in
  non local Contribution for L=           0  read in
    real space projection operators read in
  non local Contribution for L=           0  read in
    real space projection operators read in
  non local Contribution for L=           1  read in
    real space projection operators read in
  non local Contribution for L=           1  read in
    real space projection operators read in
    PAW grid and wavefunctions read in
 
   number of l-projection  operators is LMAX  =           4
   number of lm-projection operators is LMMAX =           8
 
 Optimization of the real space projectors (new method)

 maximal supplied QI-value         = 16.25
 optimisation between [QCUT,QGAM] = [ 11.38, 22.75] = [ 36.24,144.96] Ry 
 Optimized for a Real-space Cutoff    1.47 Angstroem

   l    n(q)    QCUT    max X(q) W(low)/X(q) W(high)/X(q)  e(spline) 
   2      9    11.376    60.317    0.17E-03    0.16E-04    0.16E-06
   2      9    11.376    55.921    0.17E-03    0.16E-04    0.17E-06
   0     10    11.376    51.690    0.45E-04    0.60E-04    0.21E-06
   0     10    11.376    30.015    0.37E-04    0.55E-04    0.19E-06
   1     10    11.376    18.849    0.83E-04    0.11E-03    0.92E-07
   1     10    11.376    14.624    0.69E-04    0.92E-04    0.82E-07
 Optimization of the real space projectors (new method)

 maximal supplied QI-value         = 24.76
 optimisation between [QCUT,QGAM] = [ 11.39, 22.77] = [ 36.31,145.25] Ry 
 Optimized for a Real-space Cutoff    1.10 Angstroem

   l    n(q)    QCUT    max X(q) W(low)/X(q) W(high)/X(q)  e(spline) 
   0      7    11.387    20.381    0.22E-03    0.48E-03    0.18E-06
   0      7    11.387    15.268    0.22E-03    0.52E-03    0.19E-06
   1      7    11.387     5.964    0.22E-03    0.73E-03    0.24E-06
   1      7    11.387     5.382    0.19E-03    0.60E-03    0.21E-06

 ----------------------------------------------------------------------------- 
|                                                                             |
|  ADVICE TO THIS USER RUNNING 'VASP/VAMP'   (HEAR YOUR MASTER'S VOICE ...):  |
|                                                                             |
|      You enforced a specific xc-type in the INCAR file,                     |
|      a different type was found on the POTCAR file                          |
|          I HOPE YOU KNOW, WHAT YOU ARE  DOING                               |
|                                                                             |
 ----------------------------------------------------------------------------- 

  PAW_PBE Ni 02Aug2007                  :
 energy of atom  1       EATOM=-1077.6739
 kinetic energy error for atom=    0.0030 (will be added to EATOM!!)
  PAW_PBE O 08Apr2002                   :
 energy of atom  2       EATOM= -432.3788
 kinetic energy error for atom=    0.0224 (will be added to EATOM!!)
 
 
 POSCAR: NiO_C2_m_scale_1_000_disp_0_20_round_2  
  positions in direct lattice
  No initial velocities read in
 exchange correlation table for  LEXCH =       14
   RHO(1)=    0.500       N(1)  =     2000
   RHO(2)=  100.500       N(2)  =     4000
 


--------------------------------------------------------------------------------------------------------


 ion  position               nearest neighbor table
   1  0.016  0.001  0.978-  53 2.01  29 2.04  36 2.07  47 2.19  54 2.35  30 2.38   7 2.64  10 2.74
                             9 2.74  27 2.82   3 2.88   2 2.93   4 3.04  25 3.06
   2  0.253  0.130  0.304-  39 1.65  36 1.97  30 2.14  28 2.26  37 2.31  40 2.48  11 2.56  14 2.61
                            10 2.70  13 2.83   5 2.89   3 2.92   1 2.93   8 2.97  12 3.07
   3  0.088  0.192  0.629-  28 1.76  47 1.91  31 1.96  29 2.11  40 2.20  27 2.58  20 2.59   9 2.74
                             5 2.81   1 2.88   6 2.89   2 2.92  15 3.04  12 3.06
   4  0.945  0.308  0.994-  47 1.74  50 2.04  22 2.17  33 2.20  30 2.25  48 2.27  21 2.70  23 2.70
                            19 2.86   6 2.92   1 3.04
   5  0.253  0.459  0.356-  31 1.85  43 1.88  33 2.05  30 2.08  40 2.16  42 2.17  14 2.57  15 2.57
                            17 2.71   6 2.77   3 2.81  13 2.84   2 2.89   8 2.93  16 2.98
   6  0.104  0.530  0.663-  31 2.03  50 2.05  43 2.10  35 2.13  32 2.24  34 2.28   5 2.77  24 2.84
                            15 2.84   8 2.86   3 2.89  21 2.89   4 2.92  18 3.00  16 3.02  23 3.08
   7  0.944  0.671  0.017-  51 1.30  53 1.74  36 2.13  35 2.40  50 2.44  23 2.46   1 2.64  25 2.68
                            22 2.71  26 2.73  24 2.83  10 2.87
   8  0.222  0.778  0.360-  34 1.87  37 2.01  36 2.16  45 2.31  33 2.37  18 2.44  43 2.51   9 2.72
                            23 2.73  10 2.78  11 2.78   6 2.86   5 2.93   2 2.97  26 3.00
   9  0.126  0.900  0.665-  28 1.72  37 1.74  29 1.89  34 1.96  35 2.02  53 2.18  18 2.49  12 2.68
                             8 2.72   1 2.74   3 2.74  10 2.86  26 2.90  27 3.00
  10  0.304  0.957  0.017-  36 1.78  45 1.90  35 1.98  29 2.33  39 2.48  19 2.51   2 2.70  16 2.70
                             1 2.74   8 2.78   9 2.86   7 2.87  18 2.98  12 2.99  11 3.03
  11  0.531  0.107  0.367-  46 1.85  48 1.91  39 1.96  37 1.99  49 2.24  18 2.47  45 2.50   2 2.56
                            12 2.67  20 2.70  21 2.77   8 2.78  14 2.89  19 2.93  10 3.03
  12  0.439  0.201  0.686-  38 1.75  29 1.79  37 1.94  40 2.00  49 2.16  41 2.21  21 2.52  18 2.52
                            11 2.67   9 2.68  24 2.71  10 2.99  15 2.99  22 3.00  13 3.05   3 3.06
  13  0.349  0.376  0.005-  41 1.59  32 1.67  42 1.76  39 2.33  30 2.37  29 2.45  16 2.58  25 2.61
                            15 2.74  14 2.75   2 2.83   5 2.84  12 3.05
  14  0.538  0.441  0.333-  39 1.82  49 2.02  40 2.03  42 2.06  52 2.10   5 2.57   2 2.61  17 2.62
                            13 2.75  15 2.79  11 2.89  26 2.98  25 2.98  23 3.06  24 3.07
  15  0.435  0.541  0.662-  43 1.51  40 1.59  32 1.90  44 1.95  52 2.01  41 2.31   5 2.57  13 2.74
                            14 2.79  17 2.83   6 2.84  25 2.89  16 2.93  12 2.99   3 3.04  24 3.09
  16  0.345  0.669  0.002-  45 1.73  44 1.74  33 1.82  42 1.93  32 1.93  35 2.15  25 2.55  13 2.58
                            19 2.59  10 2.70  15 2.93  17 2.96   5 2.98   6 3.02
  17  0.573  0.757  0.339-  54 1.87  52 1.98  42 2.00  46 2.14  43 2.20  45 2.36  26 2.57  14 2.62
                            25 2.65   5 2.71  20 2.83  15 2.83  27 2.85  16 2.96  19 3.02
  18  0.411  0.901  0.636-  37 1.51  35 2.10  46 2.21  43 2.25   8 2.44  11 2.47   9 2.49  44 2.52
                            12 2.52  21 2.94  10 2.98   6 3.00  19 3.04
  19  0.607  0.991  0.010-  45 1.59  48 2.04  38 2.29  44 2.30  54 2.39  10 2.51  22 2.56  16 2.59
                             4 2.86  25 2.88  11 2.93  21 2.98  17 3.02  18 3.04
  20  0.844  0.115  0.378-  46 1.56  48 1.68  31 1.91  54 2.26  30 2.28   3 2.59  27 2.62  11 2.70
                            21 2.74  17 2.83  23 3.03  26 3.08
  21  0.745  0.237  0.682-  38 1.33  50 1.66  49 1.99  24 2.18  47 2.24  46 2.31  22 2.47  12 2.52
                             4 2.70  20 2.74  11 2.77   6 2.89  18 2.94  19 2.98
  22  0.703  0.320  0.003-  38 1.72  50 1.90  48 2.14   4 2.17  51 2.25  41 2.26  39 2.41  21 2.47
                            19 2.56  23 2.60  24 2.63   7 2.71  12 3.00
  23  0.905  0.480  0.289-  51 1.67  33 2.17  34 2.19  31 2.39  48 2.41  49 2.41   7 2.46  22 2.60
                             4 2.70   8 2.73  26 2.77  20 3.03  14 3.06   6 3.08
  24  0.763  0.496  0.685-  50 1.54  49 1.57  21 2.18  52 2.26  53 2.34  41 2.37  34 2.40  38 2.42
                            22 2.63  12 2.71   7 2.83   6 2.84  14 3.07  15 3.09
  25  0.643  0.680  0.000-  42 1.73  44 1.82  54 2.02  41 2.12  53 2.20  51 2.43  16 2.55  13 2.61
                            17 2.65   7 2.68  19 2.88  15 2.89  27 2.93  14 2.98   1 3.06  26 3.08
  26  0.879  0.781  0.352-  34 1.97  54 2.01  52 2.03  28 2.03  51 2.12  36 2.24  17 2.57   7 2.73
                            23 2.77  27 2.78   9 2.90  14 2.98   8 3.00  25 3.08  20 3.08
  27  0.785  0.905  0.667-  52 2.17  53 2.18  47 2.19  28 2.19  46 2.25  44 2.40   3 2.58  20 2.62
                            26 2.78   1 2.82  17 2.85  25 2.93   9 3.00
  28  0.036  0.991  0.519-   9 1.72   3 1.76  26 2.03  27 2.19   2 2.26
  29  0.230  0.113  0.804-  12 1.79   9 1.89   1 2.04   3 2.11  10 2.33  13 2.45
  30  0.094  0.234  0.198-   5 2.08   2 2.14   4 2.25  20 2.28  13 2.37   1 2.38
  31  0.031  0.338  0.466-   5 1.85  20 1.91   3 1.96   6 2.03  23 2.39
  32  0.261  0.457  0.854-  13 1.67  15 1.90  16 1.93   6 2.24
  33  0.149  0.541  0.148-  16 1.82   5 2.05  23 2.17   4 2.20   8 2.37
  34  0.013  0.694  0.497-   8 1.87   9 1.96  26 1.97  23 2.19   6 2.28  24 2.40
  35  0.205  0.763  0.830-  10 1.98   9 2.02  18 2.10   6 2.13  16 2.15   7 2.40
  36  0.122  0.902  0.170-  10 1.78   2 1.97   1 2.07   7 2.13   8 2.16  26 2.24
  37  0.321  0.987  0.535-  18 1.51   9 1.74  12 1.94  11 1.99   8 2.01   2 2.31
  38  0.613  0.196  0.803-  21 1.33  22 1.72  12 1.75  19 2.29  24 2.42
  39  0.450  0.234  0.204-   2 1.65  14 1.82  11 1.96  13 2.33  22 2.41  10 2.48
  40  0.369  0.358  0.554-  15 1.59  12 2.00  14 2.03   5 2.16   3 2.20   2 2.48
  41  0.524  0.418  0.894-  13 1.59  25 2.12  12 2.21  22 2.26  15 2.31  24 2.37
  42  0.460  0.567  0.144-  25 1.73  13 1.76  16 1.93  17 2.00  14 2.06   5 2.17
  43  0.357  0.631  0.546-  15 1.51   5 1.88   6 2.10  17 2.20  18 2.25   8 2.51
  44  0.516  0.735  0.840-  16 1.74  25 1.82  15 1.95  19 2.30  27 2.40  18 2.52
  45  0.437  0.864  0.131-  19 1.59  16 1.73  10 1.90   8 2.31  17 2.36  11 2.50
  46  0.657  0.009  0.469-  20 1.56  11 1.85  17 2.14  18 2.21  27 2.25  21 2.31
  47  0.921  0.154  0.824-   4 1.74   3 1.91  27 2.19   1 2.19  21 2.24
  48  0.737  0.169  0.219-  20 1.68  11 1.91  19 2.04  22 2.14   4 2.27  23 2.41
  49  0.667  0.368  0.515-  24 1.57  21 1.99  14 2.02  12 2.16  11 2.24  23 2.41
  50  0.865  0.425  0.800-  24 1.54  21 1.66  22 1.90   4 2.04   6 2.05   7 2.44
  51  0.830  0.584  0.150-   7 1.30  23 1.67  26 2.12  22 2.25  25 2.43
  52  0.666  0.652  0.522-  17 1.98  15 2.01  26 2.03  14 2.10  27 2.17  24 2.26
  53  0.888  0.770  0.839-   7 1.74   1 2.01   9 2.18  27 2.18  25 2.20  24 2.34
  54  0.770  0.884  0.181-  17 1.87  26 2.01  25 2.02  20 2.26   1 2.35  19 2.39
 
  LATTYP: Found a hexagonal cell.
 ALAT       =     8.7224199979
 C/A-ratio  =     0.8152863542
  
  Lattice vectors:
  
 A1 = (   8.7224200000,   0.0000000000,   0.0000000000)
 A2 = (  -4.3612100000,   7.5538373000,   0.0000000000)
 A3 = (   0.0000000000,   0.0000000000,   7.1112700000)


Analysis of symmetry for initial positions (statically):
=====================================================================
 Subroutine PRICEL returns:
 Original cell was already a primitive cell.
 

 Routine SETGRP: Setting up the symmetry group for a 
 hexagonal supercell.


 Subroutine GETGRP returns: Found  1 space group operations
 (whereof  1 operations were pure point group operations)
 out of a pool of 24 trial point group operations.


The static configuration has the point symmetry C_1 .


Analysis of symmetry for dynamics (positions and initial velocities):
=====================================================================
 Subroutine PRICEL returns:
 Original cell was already a primitive cell.
 

 Routine SETGRP: Setting up the symmetry group for a 
 hexagonal supercell.


 Subroutine GETGRP returns: Found  1 space group operations
 (whereof  1 operations were pure point group operations)
 out of a pool of 24 trial point group operations.


The dynamic configuration has the point symmetry C_1 .


Analysis of structural, dynamic, and magnetic symmetry:
=====================================================================
 Subroutine PRICEL returns:
 Original cell was already a primitive cell.
 

 Routine SETGRP: Setting up the symmetry group for a 
 hexagonal supercell.


 Subroutine GETGRP returns: Found  1 space group operations
 (whereof  1 operations were pure point group operations)
 out of a pool of 24 trial point group operations.


The magnetic configuration has the point symmetry C_1 .


 Subroutine INISYM returns: Found  1 space group operations
 (whereof  1 operations are pure point group operations),
 and found     1 'primitive' translations

 
 
 KPOINTS: Automatic mesh                          

Automatic generation of k-mesh.
Space group operators:
 irot       det(A)        alpha          n_x          n_y          n_z        tau_x        tau_y        tau_z
    1     1.000000     0.000000     1.000000     0.000000     0.000000     0.000000     0.000000     0.000000
 
 Subroutine IBZKPT returns following result:
 ===========================================
 
 Found     36 irreducible k-points:
 
 Following reciprocal coordinates:
            Coordinates               Weight
  0.000000  0.000000  0.000000      1.000000
  0.250000 -0.000000  0.000000      2.000000
  0.500000 -0.000000  0.000000      1.000000
  0.000000  0.250000  0.000000      2.000000
  0.250000  0.250000  0.000000      2.000000
  0.500000  0.250000  0.000000      2.000000
 -0.250000  0.250000  0.000000      2.000000
  0.000000  0.500000  0.000000      1.000000
  0.250000  0.500000  0.000000      2.000000
  0.500000  0.500000  0.000000      1.000000
  0.000000  0.000000  0.250000      2.000000
  0.250000 -0.000000  0.250000      2.000000
  0.500000 -0.000000  0.250000      2.000000
 -0.250000  0.000000  0.250000      2.000000
  0.000000  0.250000  0.250000      2.000000
  0.250000  0.250000  0.250000      2.000000
  0.500000  0.250000  0.250000      2.000000
 -0.250000  0.250000  0.250000      2.000000
  0.000000  0.500000  0.250000      2.000000
  0.250000  0.500000  0.250000      2.000000
  0.500000  0.500000  0.250000      2.000000
 -0.250000  0.500000  0.250000      2.000000
  0.000000 -0.250000  0.250000      2.000000
  0.250000 -0.250000  0.250000      2.000000
  0.500000 -0.250000  0.250000      2.000000
 -0.250000 -0.250000  0.250000      2.000000
  0.000000  0.000000  0.500000      1.000000
  0.250000 -0.000000  0.500000      2.000000
  0.500000 -0.000000  0.500000      1.000000
  0.000000  0.250000  0.500000      2.000000
  0.250000  0.250000  0.500000      2.000000
  0.500000  0.250000  0.500000      2.000000
 -0.250000  0.250000  0.500000      2.000000
  0.000000  0.500000  0.500000      1.000000
  0.250000  0.500000  0.500000      2.000000
  0.500000  0.500000  0.500000      1.000000
 
 Following cartesian coordinates:
            Coordinates               Weight
  0.000000  0.000000  0.000000      1.000000
  0.028662  0.016548  0.000000      2.000000
  0.057324  0.033096  0.000000      1.000000
  0.000000  0.033096  0.000000      2.000000
  0.028662  0.049644  0.000000      2.000000
  0.057324  0.066192  0.000000      2.000000
 -0.028662  0.016548  0.000000      2.000000
  0.000000  0.066192  0.000000      1.000000
  0.028662  0.082739  0.000000      2.000000
  0.057324  0.099287  0.000000      1.000000
  0.000000  0.000000  0.035155      2.000000
  0.028662  0.016548  0.035155      2.000000
  0.057324  0.033096  0.035155      2.000000
 -0.028662 -0.016548  0.035155      2.000000
  0.000000  0.033096  0.035155      2.000000
  0.028662  0.049644  0.035155      2.000000
  0.057324  0.066192  0.035155      2.000000
 -0.028662  0.016548  0.035155      2.000000
  0.000000  0.066192  0.035155      2.000000
  0.028662  0.082739  0.035155      2.000000
  0.057324  0.099287  0.035155      2.000000
 -0.028662  0.049644  0.035155      2.000000
  0.000000 -0.033096  0.035155      2.000000
  0.028662 -0.016548  0.035155      2.000000
  0.057324  0.000000  0.035155      2.000000
 -0.028662 -0.049644  0.035155      2.000000
  0.000000  0.000000  0.070311      1.000000
  0.028662  0.016548  0.070311      2.000000
  0.057324  0.033096  0.070311      1.000000
  0.000000  0.033096  0.070311      2.000000
  0.028662  0.049644  0.070311      2.000000
  0.057324  0.066192  0.070311      2.000000
 -0.028662  0.016548  0.070311      2.000000
  0.000000  0.066192  0.070311      1.000000
  0.028662  0.082739  0.070311      2.000000
  0.057324  0.099287  0.070311      1.000000
 


--------------------------------------------------------------------------------------------------------




 Dimension of arrays:
   k-points           NKPTS =     36   k-points in BZ     NKDIM =     36   number of bands    NBANDS=    304
   number of dos      NEDOS =    301   number of ions     NIONS =     54
   non local maximal  LDIM  =      6   non local SUM 2l+1 LMDIM =     18
   total plane-waves  NPLWV = 221184
   max r-space proj   IRMAX =   6387   max aug-charges    IRDMAX=  15500
   dimension x,y,z NGX =    64 NGY =   64 NGZ =   54
   dimension x,y,z NGXF=   128 NGYF=  128 NGZF=  108
   support grid    NGXF=   128 NGYF=  128 NGZF=  108
   ions per type =              27  27
   NGX,Y,Z   is equivalent  to a cutoff of  12.20, 12.20, 12.62 a.u.
   NGXF,Y,Z  is equivalent  to a cutoff of  24.40, 24.40, 25.25 a.u.

 SYSTEM =  unknown system                          
 POSCAR =  NiO_C2_m_scale_1_000_disp_0_20_round_2  

 Startparameter for this run:
   NWRITE =      1    write-flag & timer
   PREC   = accura    normal or accurate (medium, high low for compatibility)
   ISTART =      0    job   : 0-new  1-cont  2-samecut
   ICHARG =      2    charge: 1-file 2-atom 10-const
   ISPIN  =      2    spin polarized calculation?
   LNONCOLLINEAR =      F non collinear calculations
   LSORBIT =      F    spin-orbit coupling
   INIWAV =      1    electr: 0-lowe 1-rand  2-diag
   LASPH  =      F    aspherical Exc in radial PAW
   METAGGA=      F    non-selfconsistent MetaGGA calc.

 Electronic Relaxation 1
   ENCUT  =  500.0 eV  36.75 Ry    6.06 a.u.  15.90 15.90 12.97*2*pi/ulx,y,z
   ENINI  =  500.0     initial cutoff
   ENAUG  =  605.4 eV  augmentation charge cutoff
   NELM   =     80;   NELMIN=  2; NELMDL= -5     # of ELM steps 
   EDIFF  = 0.1E-04   stopping-criterion for ELM
   LREAL  =      T    real-space projection
   NLSPLINE    = F    spline interpolate recip. space projectors
   LCOMPAT=      F    compatible to vasp.4.4
   GGA_COMPAT  = T    GGA compatible to vasp.4.4-vasp.4.6
   LMAXPAW     = -100 max onsite density
   LMAXMIX     =    2 max onsite mixed and CHGCAR
   VOSKOWN=      1    Vosko Wilk Nusair interpolation
   ROPT   =   -0.00025  -0.00025
 Ionic relaxation
   EDIFFG = 0.1E-03   stopping-criterion for IOM
   NSW    =      0    number of steps for IOM
   NBLOCK =      1;   KBLOCK =      1    inner block; outer block 
   IBRION =     -1    ionic relax: 0-MD 1-quasi-New 2-CG
   NFREE  =      0    steps in history (QN), initial steepest desc. (CG)
   ISIF   =      2    stress and relaxation
   IWAVPR =     10    prediction:  0-non 1-charg 2-wave 3-comb
   ISYM   =      2    0-nonsym 1-usesym 2-fastsym
   LCORR  =      T    Harris-Foulkes like correction to forces

   POTIM  = 0.5000    time-step for ionic-motion
   TEIN   =    0.0    initial temperature
   TEBEG  =    0.0;   TEEND  =   0.0 temperature during run
   SMASS  =  -3.00    Nose mass-parameter (am)
   estimated Nose-frequenzy (Omega)   =  0.10E-29 period in steps =****** mass=  -0.174E-26a.u.
   SCALEE = 1.0000    scale energy and forces
   NPACO  =    256;   APACO  = 16.0  distance and # of slots for P.C.
   PSTRESS=    0.0 pullay stress

  Mass of Ions in am
   POMASS =  58.69 16.00
  Ionic Valenz
   ZVAL   =  10.00  6.00
  Atomic Wigner-Seitz radii
   RWIGS  =   1.15  0.73
  virtual crystal weights 
   VCA    =   1.00  1.00
   NELECT =     432.0000    total number of electrons
   NUPDOWN=      -1.0000    fix difference up-down

 DOS related values:
   EMIN   =  10.00;   EMAX   =-10.00  energy-range for DOS
   EFERMI =   0.00
   ISMEAR =     0;   SIGMA  =   0.05  broadening in eV -4-tet -1-fermi 0-gaus

 Electronic relaxation 2 (details)
   IALGO  =     38    algorithm
   LDIAG  =      T    sub-space diagonalisation (order eigenvalues)
   LSUBROT=      F    optimize rotation matrix (better conditioning)
   TURBO    =      0    0=normal 1=particle mesh
   IRESTART =      0    0=no restart 2=restart with 2 vectors
   NREBOOT  =      0    no. of reboots
   NMIN     =      0    reboot dimension
   EREF     =   0.00    reference energy to select bands
   IMIX   =      4    mixing-type and parameters
     AMIX     =   0.40;   BMIX     =  1.00
     AMIX_MAG =   1.60;   BMIX_MAG =  1.00
     AMIN     =   0.10
     WC   =   100.;   INIMIX=   1;  MIXPRE=   1;  MAXMIX= -45

 Intra band minimization:
   WEIMIN = 0.0000     energy-eigenvalue tresh-hold
   EBREAK =  0.82E-08  absolut break condition
   DEPER  =   0.30     relativ break condition  

   TIME   =   0.40     timestep for ELM

  volume/ion in A,a.u.               =       8.68        58.55
  Fermi-wavevector in a.u.,A,eV,Ry     =   1.593378  3.011048 34.543198  2.538853
  Thomas-Fermi vector in A             =   2.691617
 
 Write flags
   LWAVE        =      F    write WAVECAR
   LDOWNSAMPLE  =      F    k-point downsampling of WAVECAR
   LCHARG       =      T    write CHGCAR
   LVTOT        =      F    write LOCPOT, total local potential
   LVHAR        =      F    write LOCPOT, Hartree potential only
   LELF         =      F    write electronic localiz. function (ELF)
   LORBIT       =      0    0 simple, 1 ext, 2 COOP (PROOUT), +10 PAW based schemes


 Dipole corrections
   LMONO  =      F    monopole corrections only (constant potential shift)
   LDIPOL =      F    correct potential (dipole corrections)
   IDIPOL =      0    1-x, 2-y, 3-z, 4-all directions 
   EPSILON=  1.0000000 bulk dielectric constant

 Exchange correlation treatment:
   GGA     =    PS    GGA type
   LEXCH   =    14    internal setting for exchange type
   VOSKOWN=      1    Vosko Wilk Nusair interpolation
   LHFCALC =     F    Hartree Fock is set to
   LHFONE  =     F    Hartree Fock one center treatment
   AEXX    =    0.0000 exact exchange contribution

 Linear response parameters
   LEPSILON=     F    determine dielectric tensor
   LRPA    =     F    only Hartree local field effects (RPA)
   LNABLA  =     F    use nabla operator in PAW spheres
   LVEL    =     F    velocity operator in full k-point grid
   LINTERFAST=   F  fast interpolation
   KINTER  =     0    interpolate to denser k-point grid
   CSHIFT  =0.1000    complex shift for real part using Kramers Kronig
   OMEGAMAX=  -1.0    maximum frequency
   DEG_THRESHOLD= 0.2000000E-02 threshold for treating states as degnerate
   RTIME   =   -0.100 relaxation time in fs
  (WPLASMAI=    0.000 imaginary part of plasma frequency in eV, 0.658/RTIME)
   DFIELD  = 0.0000000 0.0000000 0.0000000 field for delta impulse in time
 
 Orbital magnetization related:
   ORBITALMAG=     F  switch on orbital magnetization
   LCHIMAG   =     F  perturbation theory with respect to B field
   DQ        =  0.001000  dq finite difference perturbation B field
   LLRAUG    =     F  two centre corrections for induced B field



--------------------------------------------------------------------------------------------------------


 Static calculation
 charge density and potential will be updated during run
 spin polarized calculation
 Variant of blocked Davidson
 Davidson routine will perform the subspace rotation
 perform sub-space diagonalisation
    after iterative eigenvector-optimisation
 modified Broyden-mixing scheme, WC =      100.0
 initial mixing is a Kerker type mixing with AMIX =  0.4000 and BMIX =      1.0000
 Hartree-type preconditioning will be used
 using additional bands           88
 real space projection scheme for non local part
 use partial core corrections
 calculate Harris-corrections to forces 
   (improved forces if not selfconsistent)
 use gradient corrections 
 use of overlap-Matrix (Vanderbilt PP)
 Gauss-broadening in eV      SIGMA  =   0.05


--------------------------------------------------------------------------------------------------------


  energy-cutoff  :      500.00
  volume of cell :      468.55
      direct lattice vectors                 reciprocal lattice vectors
     8.722420000  0.000000000  0.000000000     0.114647082  0.066191524  0.000000000
    -4.361210000  7.553837300  0.000000000     0.000000000  0.132383047  0.000000000
     0.000000000  0.000000000  7.111270000     0.000000000  0.000000000  0.140621858

  length of vectors
     8.722420000  8.722419998  7.111270000     0.132383047  0.132383047  0.140621858


 
 k-points in units of 2pi/SCALE and weight: Automatic mesh                          
   0.00000000  0.00000000  0.00000000       0.016
   0.02866177  0.01654788  0.00000000       0.031
   0.05732354  0.03309576  0.00000000       0.016
   0.00000000  0.03309576  0.00000000       0.031
   0.02866177  0.04964364  0.00000000       0.031
   0.05732354  0.06619152  0.00000000       0.031
  -0.02866177  0.01654788  0.00000000       0.031
   0.00000000  0.06619152  0.00000000       0.016
   0.02866177  0.08273940  0.00000000       0.031
   0.05732354  0.09928729  0.00000000       0.016
   0.00000000  0.00000000  0.03515546       0.031
   0.02866177  0.01654788  0.03515546       0.031
   0.05732354  0.03309576  0.03515546       0.031
  -0.02866177 -0.01654788  0.03515546       0.031
   0.00000000  0.03309576  0.03515546       0.031
   0.02866177  0.04964364  0.03515546       0.031
   0.05732354  0.06619152  0.03515546       0.031
  -0.02866177  0.01654788  0.03515546       0.031
   0.00000000  0.06619152  0.03515546       0.031
   0.02866177  0.08273940  0.03515546       0.031
   0.05732354  0.09928729  0.03515546       0.031
  -0.02866177  0.04964364  0.03515546       0.031
   0.00000000 -0.03309576  0.03515546       0.031
   0.02866177 -0.01654788  0.03515546       0.031
   0.05732354  0.00000000  0.03515546       0.031
  -0.02866177 -0.04964364  0.03515546       0.031
   0.00000000  0.00000000  0.07031093       0.016
   0.02866177  0.01654788  0.07031093       0.031
   0.05732354  0.03309576  0.07031093       0.016
   0.00000000  0.03309576  0.07031093       0.031
   0.02866177  0.04964364  0.07031093       0.031
   0.05732354  0.06619152  0.07031093       0.031
  -0.02866177  0.01654788  0.07031093       0.031
   0.00000000  0.06619152  0.07031093       0.016
   0.02866177  0.08273940  0.07031093       0.031
   0.05732354  0.09928729  0.07031093       0.016
 
 k-points in reciprocal lattice and weights: Automatic mesh                          
   0.00000000  0.00000000  0.00000000       0.016
   0.25000000 -0.00000000  0.00000000       0.031
   0.50000000 -0.00000000  0.00000000       0.016
   0.00000000  0.25000000  0.00000000       0.031
   0.25000000  0.25000000  0.00000000       0.031
   0.50000000  0.25000000  0.00000000       0.031
  -0.25000000  0.25000000  0.00000000       0.031
   0.00000000  0.50000000  0.00000000       0.016
   0.25000000  0.50000000  0.00000000       0.031
   0.50000000  0.50000000  0.00000000       0.016
   0.00000000  0.00000000  0.25000000       0.031
   0.25000000 -0.00000000  0.25000000       0.031
   0.50000000 -0.00000000  0.25000000       0.031
  -0.25000000  0.00000000  0.25000000       0.031
   0.00000000  0.25000000  0.25000000       0.031
   0.25000000  0.25000000  0.25000000       0.031
   0.50000000  0.25000000  0.25000000       0.031
  -0.25000000  0.25000000  0.25000000       0.031
   0.00000000  0.50000000  0.25000000       0.031
   0.25000000  0.50000000  0.25000000       0.031
   0.50000000  0.50000000  0.25000000       0.031
  -0.25000000  0.50000000  0.25000000       0.031
   0.00000000 -0.25000000  0.25000000       0.031
   0.25000000 -0.25000000  0.25000000       0.031
   0.50000000 -0.25000000  0.25000000       0.031
  -0.25000000 -0.25000000  0.25000000       0.031
   0.00000000  0.00000000  0.50000000       0.016
   0.25000000 -0.00000000  0.50000000       0.031
   0.50000000 -0.00000000  0.50000000       0.016
   0.00000000  0.25000000  0.50000000       0.031
   0.25000000  0.25000000  0.50000000       0.031
   0.50000000  0.25000000  0.50000000       0.031
  -0.25000000  0.25000000  0.50000000       0.031
   0.00000000  0.50000000  0.50000000       0.016
   0.25000000  0.50000000  0.50000000       0.031
   0.50000000  0.50000000  0.50000000       0.016
 
 position of ions in fractional coordinates (direct lattice) 
   0.01563537  0.00068344  0.97812994
   0.25326056  0.12968789  0.30376899
   0.08762430  0.19210392  0.62948543
   0.94542647  0.30847459  0.99432336
   0.25331411  0.45868870  0.35617033
   0.10402882  0.53034078  0.66283758
   0.94447911  0.67056102  0.01704887
   0.22188088  0.77813538  0.35965286
   0.12620378  0.89978829  0.66466406
   0.30411619  0.95677995  0.01741219
   0.53066491  0.10683809  0.36686562
   0.43941834  0.20067820  0.68645897
   0.34866147  0.37551017  0.00480414
   0.53753620  0.44091796  0.33284185
   0.43465507  0.54062614  0.66163474
   0.34469079  0.66931033  0.00183950
   0.57344729  0.75740363  0.33873325
   0.41103310  0.90110258  0.63614474
   0.60745979  0.99117603  0.00966119
   0.84413206  0.11458946  0.37841995
   0.74482487  0.23721910  0.68210432
   0.70298291  0.32005315  0.00253384
   0.90474642  0.48046103  0.28917917
   0.76342542  0.49583177  0.68505254
   0.64265935  0.67980393  0.00037107
   0.87929782  0.78084681  0.35203539
   0.78542145  0.90539073  0.66656477
   0.03603708  0.99080046  0.51884727
   0.23040834  0.11270768  0.80398362
   0.09380046  0.23391568  0.19841895
   0.03135588  0.33792723  0.46559673
   0.26073178  0.45655863  0.85382918
   0.14899327  0.54105643  0.14756179
   0.01273771  0.69422913  0.49735533
   0.20526290  0.76316521  0.82992421
   0.12224966  0.90244966  0.17036944
   0.32079339  0.98722346  0.53500389
   0.61327714  0.19550426  0.80293980
   0.45047067  0.23381225  0.20401319
   0.36870541  0.35771485  0.55436694
   0.52393177  0.41765798  0.89381933
   0.46002831  0.56724020  0.14368003
   0.35749415  0.63138029  0.54605060
   0.51553424  0.73546749  0.83970050
   0.43726353  0.86381076  0.13118896
   0.65684851  0.00856639  0.46897338
   0.92063423  0.15393465  0.82370120
   0.73681118  0.16887471  0.21928772
   0.66686854  0.36792919  0.51544900
   0.86509852  0.42493092  0.79971126
   0.83045271  0.58376878  0.14963890
   0.66573572  0.65232924  0.52232495
   0.88843493  0.76971529  0.83866957
   0.76993885  0.88384996  0.18144610
 
 position of ions in cartesian coordinates  (Angst):
   0.13339764  0.00516259  6.95574610
   1.64344885  0.97964122  2.16018331
  -0.07350959  1.45112176  4.47644085
   6.90108428  2.33016686  7.07090188
   0.20907431  3.46485981  2.53282338
  -1.40554445  4.00610797  4.71361700
   5.31368605  5.06530884  0.12123912
  -1.45827358  5.87790806  2.55758859
  -2.82336331  6.79685435  4.72660559
  -1.52008915  7.22736007  0.12382278
   4.16273888  0.80703755  2.60888048
   2.95759154  1.51589047  4.88159508
   1.40349307  2.83654273  0.03416354
   2.76568069  3.33062253  2.36692826
   1.43345995  4.08380190  4.70506328
   0.08753494  5.05586134  0.01308118
   1.69865183  5.72130379  2.40882360
  -0.34469425  6.80678228  4.52379701
   0.97579261  7.48718247  0.06870333
   6.86312566  0.86559014  2.69104644
   5.46211303  1.79191449  4.85062799
   4.73589320  2.41762942  0.01801882
   5.79618682  3.62932445  2.05643116
   4.49649068  3.74543252  4.87159358
   2.64077707  5.13512828  0.00263878
   4.26416797  5.89838976  2.50341871
   2.90217666  6.83917427  4.74012205
  -4.00675833  7.48434547  3.68966303
   1.51817645  0.85137548  5.71734460
  -0.20198839  1.76696099  1.41101073
  -1.20027246  2.55264731  3.31098406
   0.28306403  3.44876961  6.07180983
  -1.06007883  4.08705224  1.04935173
  -2.91657537  5.24409390  3.53682804
  -1.53793452  5.76482583  5.90181514
  -2.86945960  6.81695790  1.21154309
  -1.50739415  7.45732540  3.80455711
   4.49662566  1.47680737  5.70992171
   2.90949006  1.76617970  1.45079288
   1.65593386  2.70211978  3.94225299
   2.74845879  3.15492043  6.35619059
   1.53870650  4.28484018  1.02174749
   0.36463209  4.76934399  3.88311325
   1.28917799  5.55560176  5.97133697
   0.04673603  6.52508594  0.93292012
   5.69194875  0.06470912  3.33499633
   7.35881709  1.16279730  5.85756163
   5.69027850  1.27565208  1.55941418
   4.21209103  2.77927724  3.66549701
   5.69253966  3.20985903  5.68696269
   4.69761909  4.40969438  1.06412262
   2.96188175  4.92758894  3.71439375
   4.39241258  5.81430407  5.96400575
   2.86107474  6.67645880  1.29031221
 


--------------------------------------------------------------------------------------------------------


 k-point  1 :   0.0000 0.0000 0.0000  plane waves:   11929
 k-point  2 :   0.2500-0.0000 0.0000  plane waves:   11890
 k-point  3 :   0.5000-0.0000 0.0000  plane waves:   11840
 k-point  4 :   0.0000 0.2500 0.0000  plane waves:   11890
 k-point  5 :   0.2500 0.2500 0.0000  plane waves:   11886
 k-point  6 :   0.5000 0.2500 0.0000  plane waves:   11886
 k-point  7 :  -0.2500 0.2500 0.0000  plane waves:   11890
 k-point  8 :   0.0000 0.5000 0.0000  plane waves:   11840
 k-point  9 :   0.2500 0.5000 0.0000  plane waves:   11886
 k-point 10 :   0.5000 0.5000 0.0000  plane waves:   11840
 k-point 11 :   0.0000 0.0000 0.2500  plane waves:   11906
 k-point 12 :   0.2500-0.0000 0.2500  plane waves:   11877
 k-point 13 :   0.5000-0.0000 0.2500  plane waves:   11916
 k-point 14 :  -0.2500 0.0000 0.2500  plane waves:   11877
 k-point 15 :   0.0000 0.2500 0.2500  plane waves:   11877
 k-point 16 :   0.2500 0.2500 0.2500  plane waves:   11890
 k-point 17 :   0.5000 0.2500 0.2500  plane waves:   11890
 k-point 18 :  -0.2500 0.2500 0.2500  plane waves:   11877
 k-point 19 :   0.0000 0.5000 0.2500  plane waves:   11916
 k-point 20 :   0.2500 0.5000 0.2500  plane waves:   11890
 k-point 21 :   0.5000 0.5000 0.2500  plane waves:   11916
 k-point 22 :  -0.2500 0.5000 0.2500  plane waves:   11890
 k-point 23 :   0.0000-0.2500 0.2500  plane waves:   11877
 k-point 24 :   0.2500-0.2500 0.2500  plane waves:   11877
 k-point 25 :   0.5000-0.2500 0.2500  plane waves:   11890
 k-point 26 :  -0.2500-0.2500 0.2500  plane waves:   11890
 k-point 27 :   0.0000 0.0000 0.5000  plane waves:   11858
 k-point 28 :   0.2500-0.0000 0.5000  plane waves:   11896
 k-point 29 :   0.5000-0.0000 0.5000  plane waves:   11908
 k-point 30 :   0.0000 0.2500 0.5000  plane waves:   11896
 k-point 31 :   0.2500 0.2500 0.5000  plane waves:   11928
 k-point 32 :   0.5000 0.2500 0.5000  plane waves:   11928
 k-point 33 :  -0.2500 0.2500 0.5000  plane waves:   11896
 k-point 34 :   0.0000 0.5000 0.5000  plane waves:   11908
 k-point 35 :   0.2500 0.5000 0.5000  plane waves:   11928
 k-point 36 :   0.5000 0.5000 0.5000  plane waves:   11908

 maximum and minimum number of plane-waves per node :     11929    11840

 maximum number of plane-waves:     11929
 maximum index in each direction: 
   IXMAX=   16   IYMAX=   16   IZMAX=   12
   IXMIN=  -16   IYMIN=  -16   IZMIN=  -13

 The following grids will avoid any aliasing or wrap around errors in the Hartre
 e energy
  - symmetry arguments have not been applied
  - exchange correlation energies might require even more grid points
  - we recommend to set PREC=Normal or Accurate and rely on VASP defaults
 WARNING: aliasing errors must be expected set NGX to    70 to avoid them
 WARNING: aliasing errors must be expected set NGY to    70 to avoid them
 NGZ is ok and might be reduce to    54

 serial   3D FFT for wavefunctions
 parallel 3D FFT for charge:
    minimum data exchange during FFTs selected (reduces bandwidth)


 total amount of memory used by VASP MPI-rank0   376788. kBytes
=======================================================================

   base      :      30000. kBytes
   nonlr-proj:      36953. kBytes
   fftplans  :       4688. kBytes
   grid      :      26804. kBytes
   one-center:       1679. kBytes
   wavefun   :     276664. kBytes
 
     INWAV:  cpu time    0.0000: real time    0.0000
 Broyden mixing: mesh for mixing (old mesh)
   NGX = 31   NGY = 31   NGZ = 25
  (NGX  =128   NGY  =128   NGZ  =108)
  gives a total of  24025 points

 initial charge density was supplied:
 charge density of overlapping atoms calculated
 number of electron     432.0000000 magnetization      67.5000000
 keeping initial charge density in first step


--------------------------------------------------------------------------------------------------------


 Maximum index for non-local projection operator         6163
 Maximum index for augmentation-charges         1030 (set IRDMAX)


--------------------------------------------------------------------------------------------------------


 First call to EWALD:  gamma=   0.228
 Maximum number of real-space cells 3x 3x 3
 Maximum number of reciprocal cells 3x 3x 3

    FEWALD:  cpu time    0.0025: real time    0.0025


--------------------------------------- Iteration      1(   1)  ---------------------------------------


    POTLOK:  cpu time    0.1435: real time    0.1868
    SETDIJ:  cpu time    0.0225: real time    0.0226
     EDDAV:  cpu time   95.4208: real time   95.6622
    --------------------------------------------
      LOOP:  cpu time   95.5907: real time   95.8755

 eigenvalue-minimisations  : 43776
 total energy-change (2. order) : 0.5376318E+04  (-0.1740833E+05)
 number of electron     432.0000000 magnetization      67.5000000
 augmentation part      432.0000000 magnetization      67.5000000

 Free energy of the ion-electron system (eV)
  ---------------------------------------------------
  alpha Z        PSCENC =      1846.10553122
  Ewald energy   TEWEN  =    -34152.57298882
  -Hartree energ DENC   =     -9865.41802522
  -exchange      EXHF   =         0.00000000
  -V(xc)+E(xc)   XCENC  =      1663.22391071
  PAW double counting   =     35307.98069315   -37155.18892105
  entropy T*S    EENTRO =        -0.00943866
  eigenvalues    EBANDS =      7023.72252220
  atomic energy  EATOM  =     40708.47505058
  Solvation  Ediel_sol  =         0.00000000
  ---------------------------------------------------
  free energy    TOTEN  =      5376.31833413 eV

  energy without entropy =     5376.32777279  energy(sigma->0) =     5376.32305346


--------------------------------------------------------------------------------------------------------




--------------------------------------- Iteration      1(   2)  ---------------------------------------


     EDDAV:  cpu time   89.0671: real time   89.2782
    --------------------------------------------
      LOOP:  cpu time   89.0667: real time   89.2778

 eigenvalue-minimisations  : 43776
 total energy-change (2. order) :-0.4560933E+04  (-0.4106351E+04)
 number of electron     432.0000000 magnetization      67.5000000
 augmentation part      432.0000000 magnetization      67.5000000

 Free energy of the ion-electron system (eV)
  ---------------------------------------------------
  alpha Z        PSCENC =      1846.10553122
  Ewald energy   TEWEN  =    -34152.57298882
  -Hartree energ DENC   =     -9865.41802522
  -exchange      EXHF   =         0.00000000
  -V(xc)+E(xc)   XCENC  =      1663.22391071
  PAW double counting   =     35307.98069315   -37155.18892105
  entropy T*S    EENTRO =        -0.02490960
  eigenvalues    EBANDS =      2462.80491745
  atomic energy  EATOM  =     40708.47505058
  Solvation  Ediel_sol  =         0.00000000
  ---------------------------------------------------
  free energy    TOTEN  =       815.38525845 eV

  energy without entropy =      815.41016804  energy(sigma->0) =      815.39771324


--------------------------------------------------------------------------------------------------------




--------------------------------------- Iteration      1(   3)  ---------------------------------------


     EDDAV:  cpu time   93.1354: real time   93.3759
    --------------------------------------------
      LOOP:  cpu time   93.1361: real time   93.3766

 eigenvalue-minimisations  : 44768
 total energy-change (2. order) :-0.1063718E+04  (-0.9437692E+03)
 number of electron     432.0000000 magnetization      67.5000000
 augmentation part      432.0000000 magnetization      67.5000000

 Free energy of the ion-electron system (eV)
  ---------------------------------------------------
  alpha Z        PSCENC =      1846.10553122
  Ewald energy   TEWEN  =    -34152.57298882
  -Hartree energ DENC   =     -9865.41802522
  -exchange      EXHF   =         0.00000000
  -V(xc)+E(xc)   XCENC  =      1663.22391071
  PAW double counting   =     35307.98069315   -37155.18892105
  entropy T*S    EENTRO =        -0.08358093
  eigenvalues    EBANDS =      1399.14566306
  atomic energy  EATOM  =     40708.47505058
  Solvation  Ediel_sol  =         0.00000000
  ---------------------------------------------------
  free energy    TOTEN  =      -248.33266727 eV

  energy without entropy =     -248.24908635  energy(sigma->0) =     -248.29087681


--------------------------------------------------------------------------------------------------------




--------------------------------------- Iteration      1(   4)  ---------------------------------------


     EDDAV:  cpu time  105.4021: real time  105.6542
    --------------------------------------------
      LOOP:  cpu time  105.4021: real time  105.6542

 eigenvalue-minimisations  : 50016
 total energy-change (2. order) :-0.1162245E+03  (-0.1102429E+03)
 number of electron     432.0000000 magnetization      67.5000000
 augmentation part      432.0000000 magnetization      67.5000000

 Free energy of the ion-electron system (eV)
  ---------------------------------------------------
  alpha Z        PSCENC =      1846.10553122
  Ewald energy   TEWEN  =    -34152.57298882
  -Hartree energ DENC   =     -9865.41802522
  -exchange      EXHF   =         0.00000000
  -V(xc)+E(xc)   XCENC  =      1663.22391071
  PAW double counting   =     35307.98069315   -37155.18892105
  entropy T*S    EENTRO =        -0.09001605
  eigenvalues    EBANDS =      1282.92758613
  atomic energy  EATOM  =     40708.47505058
  Solvation  Ediel_sol  =         0.00000000
  ---------------------------------------------------
  free energy    TOTEN  =      -364.55717933 eV

  energy without entropy =     -364.46716328  energy(sigma->0) =     -364.51217131


--------------------------------------------------------------------------------------------------------




--------------------------------------- Iteration      1(   5)  ---------------------------------------


     EDDAV:  cpu time  104.0405: real time  104.2869
    CHARGE:  cpu time    3.1872: real time    3.2242
    MIXING:  cpu time    0.0058: real time    0.0161
    --------------------------------------------
      LOOP:  cpu time  107.2292: real time  107.5229

 eigenvalue-minimisations  : 49184
 total energy-change (2. order) :-0.2787614E+01  (-0.2768826E+01)
 number of electron     432.0000005 magnetization      58.0781327
 augmentation part      171.5871835 magnetization      45.8602692

 Broyden mixing:
  rms(total) = 0.13215E+02    rms(broyden)= 0.13214E+02
  rms(prec ) = 0.15312E+02
  weight for this iteration     100.00

 Free energy of the ion-electron system (eV)
  ---------------------------------------------------
  alpha Z        PSCENC =      1846.10553122
  Ewald energy   TEWEN  =    -34152.57298882
  -Hartree energ DENC   =     -9865.41802522
  -exchange      EXHF   =         0.00000000
  -V(xc)+E(xc)   XCENC  =      1663.22391071
  PAW double counting   =     35307.98069315   -37155.18892105
  entropy T*S    EENTRO =        -0.09081927
  eigenvalues    EBANDS =      1280.14077539
  atomic energy  EATOM  =     40708.47505058
  Solvation  Ediel_sol  =         0.00000000
  ---------------------------------------------------
  free energy    TOTEN  =      -367.34479329 eV

  energy without entropy =     -367.25397401  energy(sigma->0) =     -367.29938365


--------------------------------------------------------------------------------------------------------




--------------------------------------- Iteration      1(   6)  ---------------------------------------


    POTLOK:  cpu time    0.1143: real time    0.1146
    SETDIJ:  cpu time    0.0229: real time    0.0230
     EDDAV:  cpu time  128.5201: real time  128.8261
    CHARGE:  cpu time    3.1582: real time    3.1657
    MIXING:  cpu time    0.0068: real time    0.2702
    --------------------------------------------
      LOOP:  cpu time  131.8224: real time  132.3997

 eigenvalue-minimisations  : 63728
 total energy-change (2. order) :-0.1297890E+02  (-0.4139888E+02)
 number of electron     432.0000000 magnetization      46.2899076
 augmentation part      196.1217086 magnetization      41.8607717

 Broyden mixing:
  rms(total) = 0.14553E+02    rms(broyden)= 0.14552E+02
  rms(prec ) = 0.18541E+02
  weight for this iteration     100.00

 eigenvalues of (default mixing * dielectric matrix)
  average eigenvalue GAMMA=   0.3595
  0.3595

 Free energy of the ion-electron system (eV)
  ---------------------------------------------------
  alpha Z        PSCENC =      1846.10553122
  Ewald energy   TEWEN  =    -34152.57298882
  -Hartree energ DENC   =     -9503.50694375
  -exchange      EXHF   =         0.00000000
  -V(xc)+E(xc)   XCENC  =      1655.77467806
  PAW double counting   =     39901.76593155   -41609.18366386
  entropy T*S    EENTRO =        -0.03556740
  eigenvalues    EBANDS =       772.85427907
  atomic energy  EATOM  =     40708.47505058
  Solvation  Ediel_sol  =         0.00000000
  ---------------------------------------------------
  free energy    TOTEN  =      -380.32369334 eV

  energy without entropy =     -380.28812594  energy(sigma->0) =     -380.30590964


--------------------------------------------------------------------------------------------------------




--------------------------------------- Iteration      1(   7)  ---------------------------------------


    POTLOK:  cpu time    0.1391: real time    0.1396
    SETDIJ:  cpu time    0.0229: real time    0.0229
     EDDAV:  cpu time  105.6693: real time  105.9192
    CHARGE:  cpu time    3.1729: real time    3.1804
    MIXING:  cpu time    0.0036: real time    0.2396
    --------------------------------------------
      LOOP:  cpu time  109.0077: real time  109.5016

 eigenvalue-minimisations  : 49872
 total energy-change (2. order) : 0.3400357E+02  (-0.2550455E+02)
 number of electron     431.9999999 magnetization      39.4556683
 augmentation part      186.4544612 magnetization      32.4101248

 Broyden mixing:
  rms(total) = 0.13667E+02    rms(broyden)= 0.13666E+02
  rms(prec ) = 0.16864E+02
  weight for this iteration     100.00

 eigenvalues of (default mixing * dielectric matrix)
  average eigenvalue GAMMA=   0.3700
  0.4645  0.2755

 Free energy of the ion-electron system (eV)
  ---------------------------------------------------
  alpha Z        PSCENC =      1846.10553122
  Ewald energy   TEWEN  =    -34152.57298882
  -Hartree energ DENC   =     -9603.48700460
  -exchange      EXHF   =         0.00000000
  -V(xc)+E(xc)   XCENC  =      1648.35629631
  PAW double counting   =     41664.35504012   -43487.11604484
  entropy T*S    EENTRO =        -0.05981141
  eigenvalues    EBANDS =      1029.62380380
  atomic energy  EATOM  =     40708.47505058
  Solvation  Ediel_sol  =         0.00000000
  ---------------------------------------------------
  free energy    TOTEN  =      -346.32012763 eV

  energy without entropy =     -346.26031622  energy(sigma->0) =     -346.29022192


--------------------------------------------------------------------------------------------------------




--------------------------------------- Iteration      1(   8)  ---------------------------------------


    POTLOK:  cpu time    0.1151: real time    0.1154
    SETDIJ:  cpu time    0.0228: real time    0.0228
     EDDAV:  cpu time  116.3088: real time  116.5838
    CHARGE:  cpu time    3.1484: real time    3.1558
    MIXING:  cpu time    0.0033: real time    0.0045
    --------------------------------------------
      LOOP:  cpu time  119.5984: real time  119.8825

 eigenvalue-minimisations  : 56320
 total energy-change (2. order) : 0.5202743E+01  (-0.1506958E+02)
 number of electron     432.0000007 magnetization      34.2470900
 augmentation part      182.8828020 magnetization      28.5832034

 Broyden mixing:
  rms(total) = 0.12253E+02    rms(broyden)= 0.12252E+02
  rms(prec ) = 0.18605E+02
  weight for this iteration     100.00

 eigenvalues of (default mixing * dielectric matrix)
  average eigenvalue GAMMA=   0.4016
  0.6355  0.3792  0.1900

 Free energy of the ion-electron system (eV)
  ---------------------------------------------------
  alpha Z        PSCENC =      1846.10553122
  Ewald energy   TEWEN  =    -34152.57298882
  -Hartree energ DENC   =     -9650.96559684
  -exchange      EXHF   =         0.00000000
  -V(xc)+E(xc)   XCENC  =      1647.03980611
  PAW double counting   =     43075.09228707   -44955.51894768
  entropy T*S    EENTRO =        -0.05168887
  eigenvalues    EBANDS =      1141.27916254
  atomic energy  EATOM  =     40708.47505058
  Solvation  Ediel_sol  =         0.00000000
  ---------------------------------------------------
  free energy    TOTEN  =      -341.11738469 eV

  energy without entropy =     -341.06569582  energy(sigma->0) =     -341.09154026


--------------------------------------------------------------------------------------------------------




--------------------------------------- Iteration      1(   9)  ---------------------------------------


    POTLOK:  cpu time    0.1140: real time    0.1142
    SETDIJ:  cpu time    0.0228: real time    0.0228
     EDDAV:  cpu time  111.0635: real time  111.3267
    CHARGE:  cpu time    2.5563: real time    2.5624
    MIXING:  cpu time    0.0027: real time    0.0027
    --------------------------------------------
      LOOP:  cpu time  113.7593: real time  114.0289

 eigenvalue-minimisations  : 54240
 total energy-change (2. order) : 0.1603883E+02  (-0.1003913E+02)
 number of electron     431.9999999 magnetization      25.2094999
 augmentation part      183.0164179 magnetization      19.4320771

 Broyden mixing:
  rms(total) = 0.70140E+01    rms(broyden)= 0.70131E+01
  rms(prec ) = 0.10537E+02
  weight for this iteration     100.00

 eigenvalues of (default mixing * dielectric matrix)
  average eigenvalue GAMMA=   0.5291
  1.1608  0.5860  0.2443  0.1254

 Free energy of the ion-electron system (eV)
  ---------------------------------------------------
  alpha Z        PSCENC =      1846.10553122
  Ewald energy   TEWEN  =    -34152.57298882
  -Hartree energ DENC   =     -9674.20514862
  -exchange      EXHF   =         0.00000000
  -V(xc)+E(xc)   XCENC  =      1645.85208061
  PAW double counting   =     44057.24682726   -45966.44760584
  entropy T*S    EENTRO =        -0.06128315
  eigenvalues    EBANDS =      1210.52898492
  atomic energy  EATOM  =     40708.47505058
  Solvation  Ediel_sol  =         0.00000000
  ---------------------------------------------------
  free energy    TOTEN  =      -325.07855182 eV

  energy without entropy =     -325.01726868  energy(sigma->0) =     -325.04791025


--------------------------------------------------------------------------------------------------------




--------------------------------------- Iteration      1(  10)  ---------------------------------------


    POTLOK:  cpu time    0.0983: real time    0.0985
    SETDIJ:  cpu time    0.0192: real time    0.0193
     EDDAV:  cpu time  104.4326: real time  104.6879
    CHARGE:  cpu time    3.0269: real time    3.0886
    MIXING:  cpu time    0.0033: real time    0.0033
    --------------------------------------------
      LOOP:  cpu time  107.5803: real time  107.8976

 eigenvalue-minimisations  : 53344
 total energy-change (2. order) :-0.1060427E+03  (-0.1185541E+02)
 number of electron     432.0000002 magnetization      12.7116658
 augmentation part      181.7972132 magnetization      10.2350086

 Broyden mixing:
  rms(total) = 0.14779E+02    rms(broyden)= 0.14778E+02
  rms(prec ) = 0.23884E+02
  weight for this iteration     100.00

 eigenvalues of (default mixing * dielectric matrix)
  average eigenvalue GAMMA=   0.5465
  1.6637  0.5617  0.2293  0.1389  0.1389

 Free energy of the ion-electron system (eV)
  ---------------------------------------------------
  alpha Z        PSCENC =      1846.10553122
  Ewald energy   TEWEN  =    -34152.57298882
  -Hartree energ DENC   =     -9646.24139416
  -exchange      EXHF   =         0.00000000
  -V(xc)+E(xc)   XCENC  =      1643.84795244
  PAW double counting   =     45708.38661150   -47643.63429572
  entropy T*S    EENTRO =        -0.04514244
  eigenvalues    EBANDS =      1104.55746897
  atomic energy  EATOM  =     40708.47505058
  Solvation  Ediel_sol  =         0.00000000
  ---------------------------------------------------
  free energy    TOTEN  =      -431.12120642 eV

  energy without entropy =     -431.07606398  energy(sigma->0) =     -431.09863520


--------------------------------------------------------------------------------------------------------




--------------------------------------- Iteration      1(  11)  ---------------------------------------


    POTLOK:  cpu time    0.1142: real time    0.1145
    SETDIJ:  cpu time    0.0233: real time    0.0233
     EDDAV:  cpu time  114.8206: real time  115.0927
    CHARGE:  cpu time    3.1221: real time    3.1295
    MIXING:  cpu time    0.0034: real time    0.0034
    --------------------------------------------
      LOOP:  cpu time  118.0836: real time  118.3634

 eigenvalue-minimisations  : 55488
 total energy-change (2. order) : 0.6407144E+02  (-0.2596063E+02)
 number of electron     432.0000011 magnetization       9.6883629
 augmentation part      183.0505519 magnetization       7.4179837

 Broyden mixing:
  rms(total) = 0.10093E+02    rms(broyden)= 0.10092E+02
  rms(prec ) = 0.17085E+02
  weight for this iteration     100.00

 eigenvalues of (default mixing * dielectric matrix)
  average eigenvalue GAMMA=   0.5186
  1.8343  0.5400  0.2449  0.2449  0.1238  0.1238

 Free energy of the ion-electron system (eV)
  ---------------------------------------------------
  alpha Z        PSCENC =      1846.10553122
  Ewald energy   TEWEN  =    -34152.57298882
  -Hartree energ DENC   =     -9622.20689925
  -exchange      EXHF   =         0.00000000
  -V(xc)+E(xc)   XCENC  =      1642.53821022
  PAW double counting   =     47834.22341258   -49799.83547580
  entropy T*S    EENTRO =        -0.05958973
  eigenvalues    EBANDS =      1176.28298590
  atomic energy  EATOM  =     40708.47505058
  Solvation  Ediel_sol  =         0.00000000
  ---------------------------------------------------
  free energy    TOTEN  =      -367.04976308 eV

  energy without entropy =     -366.99017335  energy(sigma->0) =     -367.01996822


--------------------------------------------------------------------------------------------------------




--------------------------------------- Iteration      1(  12)  ---------------------------------------


    POTLOK:  cpu time    0.1140: real time    0.1143
    SETDIJ:  cpu time    0.0229: real time    0.0230
     EDDAV:  cpu time  112.8411: real time  113.1085
    CHARGE:  cpu time    3.1119: real time    3.1193
    MIXING:  cpu time    0.0035: real time    0.0035
    --------------------------------------------
      LOOP:  cpu time  116.0935: real time  116.3686

 eigenvalue-minimisations  : 54096
 total energy-change (2. order) : 0.3455252E+02  (-0.1673301E+02)
 number of electron     431.9999996 magnetization       8.1671610
 augmentation part      184.7120263 magnetization       6.5379414

 Broyden mixing:
  rms(total) = 0.62399E+01    rms(broyden)= 0.62388E+01
  rms(prec ) = 0.10576E+02
  weight for this iteration     100.00

 eigenvalues of (default mixing * dielectric matrix)
  average eigenvalue GAMMA=   0.4900
  1.8760  0.5565  0.3099  0.3099  0.1368  0.1368  0.1039

 Free energy of the ion-electron system (eV)
  ---------------------------------------------------
  alpha Z        PSCENC =      1846.10553122
  Ewald energy   TEWEN  =    -34152.57298882
  -Hartree energ DENC   =     -9610.73028888
  -exchange      EXHF   =         0.00000000
  -V(xc)+E(xc)   XCENC  =      1641.96926563
  PAW double counting   =     48386.16233292   -50361.06925698
  entropy T*S    EENTRO =        -0.05712243
  eigenvalues    EBANDS =      1209.22022970
  atomic energy  EATOM  =     40708.47505058
  Solvation  Ediel_sol  =         0.00000000
  ---------------------------------------------------
  free energy    TOTEN  =      -332.49724706 eV

  energy without entropy =     -332.44012462  energy(sigma->0) =     -332.46868584


--------------------------------------------------------------------------------------------------------




--------------------------------------- Iteration      1(  13)  ---------------------------------------


    POTLOK:  cpu time    0.1141: real time    0.1143
    SETDIJ:  cpu time    0.0233: real time    0.0233
     EDDAV:  cpu time  109.2314: real time  109.4909
    CHARGE:  cpu time    3.1660: real time    3.1735
    MIXING:  cpu time    0.0037: real time    0.0037
    --------------------------------------------
      LOOP:  cpu time  112.5384: real time  112.8057

 eigenvalue-minimisations  : 51952
 total energy-change (2. order) : 0.2119242E+02  (-0.4564209E+01)
 number of electron     432.0000003 magnetization       7.6869181
 augmentation part      185.6699360 magnetization       6.6146283

 Broyden mixing:
  rms(total) = 0.49241E+01    rms(broyden)= 0.49230E+01
  rms(prec ) = 0.81301E+01
  weight for this iteration     100.00

 eigenvalues of (default mixing * dielectric matrix)
  average eigenvalue GAMMA=   0.4582
  1.8521  0.5825  0.3264  0.3264  0.2199  0.1272  0.1272  0.1035

 Free energy of the ion-electron system (eV)
  ---------------------------------------------------
  alpha Z        PSCENC =      1846.10553122
  Ewald energy   TEWEN  =    -34152.57298882
  -Hartree energ DENC   =     -9595.59079076
  -exchange      EXHF   =         0.00000000
  -V(xc)+E(xc)   XCENC  =      1641.16336916
  PAW double counting   =     48650.34209552   -50627.41369247
  entropy T*S    EENTRO =        -0.05295210
  eigenvalues    EBANDS =      1218.23955221
  atomic energy  EATOM  =     40708.47505058
  Solvation  Ediel_sol  =         0.00000000
  ---------------------------------------------------
  free energy    TOTEN  =      -311.30482545 eV

  energy without entropy =     -311.25187334  energy(sigma->0) =     -311.27834940


--------------------------------------------------------------------------------------------------------




--------------------------------------- Iteration      1(  14)  ---------------------------------------


    POTLOK:  cpu time    0.1140: real time    0.1143
    SETDIJ:  cpu time    0.0230: real time    0.0231
     EDDAV:  cpu time  118.9649: real time  119.2462
    CHARGE:  cpu time    3.1013: real time    3.1087
    MIXING:  cpu time    0.0037: real time    0.0037
    --------------------------------------------
      LOOP:  cpu time  122.2071: real time  122.4961

 eigenvalue-minimisations  : 57808
 total energy-change (2. order) : 0.4730947E+01  (-0.4683460E+01)
 number of electron     431.9999998 magnetization       7.4978766
 augmentation part      185.1291120 magnetization       6.2694766

 Broyden mixing:
  rms(total) = 0.42629E+01    rms(broyden)= 0.42621E+01
  rms(prec ) = 0.66237E+01
  weight for this iteration     100.00

 eigenvalues of (default mixing * dielectric matrix)
  average eigenvalue GAMMA=   0.4331
  1.8263  0.5988  0.4120  0.2971  0.2971  0.1294  0.1294  0.1041  0.1041

 Free energy of the ion-electron system (eV)
  ---------------------------------------------------
  alpha Z        PSCENC =      1846.10553122
  Ewald energy   TEWEN  =    -34152.57298882
  -Hartree energ DENC   =     -9593.20156096
  -exchange      EXHF   =         0.00000000
  -V(xc)+E(xc)   XCENC  =      1640.67778196
  PAW double counting   =     48666.99656773   -50643.43129094
  entropy T*S    EENTRO =        -0.06358948
  eigenvalues    EBANDS =      1220.44062000
  atomic energy  EATOM  =     40708.47505058
  Solvation  Ediel_sol  =         0.00000000
  ---------------------------------------------------
  free energy    TOTEN  =      -306.57387871 eV

  energy without entropy =     -306.51028922  energy(sigma->0) =     -306.54208397


--------------------------------------------------------------------------------------------------------




--------------------------------------- Iteration      1(  15)  ---------------------------------------


    POTLOK:  cpu time    0.1137: real time    0.1140
    SETDIJ:  cpu time    0.0230: real time    0.0230
     EDDAV:  cpu time  115.8085: real time  116.0825
    CHARGE:  cpu time    3.0988: real time    3.1061
    MIXING:  cpu time    0.0040: real time    0.0040
    --------------------------------------------
      LOOP:  cpu time  119.0479: real time  119.3296

 eigenvalue-minimisations  : 55952
 total energy-change (2. order) : 0.3412983E+01  (-0.2553893E+01)
 number of electron     431.9999997 magnetization       7.3787305
 augmentation part      184.6561694 magnetization       6.0354342

 Broyden mixing:
  rms(total) = 0.33727E+01    rms(broyden)= 0.33721E+01
  rms(prec ) = 0.56155E+01
  weight for this iteration     100.00

 eigenvalues of (default mixing * dielectric matrix)
  average eigenvalue GAMMA=   0.4064
  1.8048  0.5870  0.4924  0.2894  0.2894  0.1371  0.1371  0.1213  0.1026  0.1026

 Free energy of the ion-electron system (eV)
  ---------------------------------------------------
  alpha Z        PSCENC =      1846.10553122
  Ewald energy   TEWEN  =    -34152.57298882
  -Hartree energ DENC   =     -9593.47029162
  -exchange      EXHF   =         0.00000000
  -V(xc)+E(xc)   XCENC  =      1640.28101442
  PAW double counting   =     48573.28947810   -50547.28337660
  entropy T*S    EENTRO =        -0.06659192
  eigenvalues    EBANDS =      1222.08127919
  atomic energy  EATOM  =     40708.47505058
  Solvation  Ediel_sol  =         0.00000000
  ---------------------------------------------------
  free energy    TOTEN  =      -303.16089545 eV

  energy without entropy =     -303.09430353  energy(sigma->0) =     -303.12759949


--------------------------------------------------------------------------------------------------------




--------------------------------------- Iteration      1(  16)  ---------------------------------------


    POTLOK:  cpu time    0.1138: real time    0.1141
    SETDIJ:  cpu time    0.0229: real time    0.0230
     EDDAV:  cpu time  115.1010: real time  115.3734
    CHARGE:  cpu time    2.5875: real time    2.5936
    MIXING:  cpu time    0.0071: real time    0.1056
    --------------------------------------------
      LOOP:  cpu time  117.8324: real time  118.2097

 eigenvalue-minimisations  : 56656
 total energy-change (2. order) : 0.2618698E+01  (-0.1163072E+01)
 number of electron     431.9999999 magnetization       7.2217885
 augmentation part      184.6633719 magnetization       5.7985935

 Broyden mixing:
  rms(total) = 0.22337E+01    rms(broyden)= 0.22333E+01
  rms(prec ) = 0.35508E+01
  weight for this iteration     100.00

 eigenvalues of (default mixing * dielectric matrix)
  average eigenvalue GAMMA=   0.4014
  1.7312  0.5611  0.5611  0.3280  0.3280  0.3355  0.1322  0.1322  0.1080  0.1080
  0.0901

 Free energy of the ion-electron system (eV)
  ---------------------------------------------------
  alpha Z        PSCENC =      1846.10553122
  Ewald energy   TEWEN  =    -34152.57298882
  -Hartree energ DENC   =     -9595.24465429
  -exchange      EXHF   =         0.00000000
  -V(xc)+E(xc)   XCENC  =      1640.19974032
  PAW double counting   =     48527.98825625   -50500.23517149
  entropy T*S    EENTRO =        -0.06694010
  eigenvalues    EBANDS =      1224.80897899
  atomic energy  EATOM  =     40708.47505058
  Solvation  Ediel_sol  =         0.00000000
  ---------------------------------------------------
  free energy    TOTEN  =      -300.54219732 eV

  energy without entropy =     -300.47525722  energy(sigma->0) =     -300.50872727


--------------------------------------------------------------------------------------------------------




--------------------------------------- Iteration      1(  17)  ---------------------------------------


    POTLOK:  cpu time    0.1089: real time    0.1091
    SETDIJ:  cpu time    0.0201: real time    0.0201
     EDDAV:  cpu time  106.8120: real time  107.0753
    CHARGE:  cpu time    3.0830: real time    3.1131
    MIXING:  cpu time    0.0049: real time    0.0158
    --------------------------------------------
      LOOP:  cpu time  110.0289: real time  110.3335

 eigenvalue-minimisations  : 54896
 total energy-change (2. order) : 0.1273416E+01  (-0.3669026E+00)
 number of electron     432.0000000 magnetization       6.8679129
 augmentation part      184.6796653 magnetization       5.5108954

 Broyden mixing:
  rms(total) = 0.21759E+01    rms(broyden)= 0.21757E+01
  rms(prec ) = 0.33736E+01
  weight for this iteration     100.00

 eigenvalues of (default mixing * dielectric matrix)
  average eigenvalue GAMMA=   0.4007
  1.6672  0.6533  0.6533  0.4459  0.3425  0.3425  0.1490  0.1283  0.1283  0.1075
  0.1075  0.0826

 Free energy of the ion-electron system (eV)
  ---------------------------------------------------
  alpha Z        PSCENC =      1846.10553122
  Ewald energy   TEWEN  =    -34152.57298882
  -Hartree energ DENC   =     -9595.46669593
  -exchange      EXHF   =         0.00000000
  -V(xc)+E(xc)   XCENC  =      1640.11172080
  PAW double counting   =     48473.68501338   -50441.51683136
  entropy T*S    EENTRO =        -0.06154937
  eigenvalues    EBANDS =      1221.97196841
  atomic energy  EATOM  =     40708.47505058
  Solvation  Ediel_sol  =         0.00000000
  ---------------------------------------------------
  free energy    TOTEN  =      -299.26878108 eV

  energy without entropy =     -299.20723171  energy(sigma->0) =     -299.23800640


--------------------------------------------------------------------------------------------------------




--------------------------------------- Iteration      1(  18)  ---------------------------------------


    POTLOK:  cpu time    0.1149: real time    0.1152
    SETDIJ:  cpu time    0.0227: real time    0.0228
     EDDAV:  cpu time  119.0923: real time  119.3741
    CHARGE:  cpu time    3.1485: real time    3.1559
    MIXING:  cpu time    0.0044: real time    0.0044
    --------------------------------------------
      LOOP:  cpu time  122.3828: real time  122.6724

 eigenvalue-minimisations  : 58144
 total energy-change (2. order) : 0.1137975E+01  (-0.2577500E+00)
 number of electron     432.0000000 magnetization       6.3743455
 augmentation part      184.6755714 magnetization       5.0228902

 Broyden mixing:
  rms(total) = 0.17377E+01    rms(broyden)= 0.17375E+01
  rms(prec ) = 0.25472E+01
  weight for this iteration     100.00

 eigenvalues of (default mixing * dielectric matrix)
  average eigenvalue GAMMA=   0.4053
  1.6330  0.7678  0.7678  0.4929  0.3447  0.3447  0.2310  0.1316  0.1316  0.1280
  0.1052  0.1052  0.0859

 Free energy of the ion-electron system (eV)
  ---------------------------------------------------
  alpha Z        PSCENC =      1846.10553122
  Ewald energy   TEWEN  =    -34152.57298882
  -Hartree energ DENC   =     -9595.16958524
  -exchange      EXHF   =         0.00000000
  -V(xc)+E(xc)   XCENC  =      1640.05449634
  PAW double counting   =     48470.15893726   -50433.96346559
  entropy T*S    EENTRO =        -0.06662142
  eigenvalues    EBANDS =      1218.84783947
  atomic energy  EATOM  =     40708.47505058
  Solvation  Ediel_sol  =         0.00000000
  ---------------------------------------------------
  free energy    TOTEN  =      -298.13080620 eV

  energy without entropy =     -298.06418478  energy(sigma->0) =     -298.09749549


--------------------------------------------------------------------------------------------------------




--------------------------------------- Iteration      1(  19)  ---------------------------------------


    POTLOK:  cpu time    0.1137: real time    0.1140
    SETDIJ:  cpu time    0.0229: real time    0.0230
     EDDAV:  cpu time  121.7737: real time  122.0617
    CHARGE:  cpu time    3.2045: real time    3.2121
    MIXING:  cpu time    0.0045: real time    0.0045
    --------------------------------------------
      LOOP:  cpu time  125.1194: real time  125.4153

 eigenvalue-minimisations  : 59616
 total energy-change (2. order) : 0.2607752E+00  (-0.3140670E+00)
 number of electron     432.0000000 magnetization       5.6889361
 augmentation part      184.5457611 magnetization       4.3354671

 Broyden mixing:
  rms(total) = 0.15322E+01    rms(broyden)= 0.15319E+01
  rms(prec ) = 0.23276E+01
  weight for this iteration     100.00

 eigenvalues of (default mixing * dielectric matrix)
  average eigenvalue GAMMA=   0.4555
  1.6225  1.1239  1.1239  0.5807  0.4700  0.3131  0.3131  0.1649  0.1317  0.1317
  0.1095  0.1095  0.0980  0.0842

 Free energy of the ion-electron system (eV)
  ---------------------------------------------------
  alpha Z        PSCENC =      1846.10553122
  Ewald energy   TEWEN  =    -34152.57298882
  -Hartree energ DENC   =     -9595.28379557
  -exchange      EXHF   =         0.00000000
  -V(xc)+E(xc)   XCENC  =      1640.07314315
  PAW double counting   =     48513.82120886   -50474.30991503
  entropy T*S    EENTRO =        -0.06637786
  eigenvalues    EBANDS =      1215.88811241
  atomic energy  EATOM  =     40708.47505058
  Solvation  Ediel_sol  =         0.00000000
  ---------------------------------------------------
  free energy    TOTEN  =      -297.87003105 eV

  energy without entropy =     -297.80365319  energy(sigma->0) =     -297.83684212


--------------------------------------------------------------------------------------------------------




--------------------------------------- Iteration      1(  20)  ---------------------------------------


    POTLOK:  cpu time    0.1140: real time    0.1143
    SETDIJ:  cpu time    0.0230: real time    0.0230
     EDDAV:  cpu time  118.6666: real time  118.9473
    CHARGE:  cpu time    3.1760: real time    3.1835
    MIXING:  cpu time    0.0047: real time    0.0047
    --------------------------------------------
      LOOP:  cpu time  121.9843: real time  122.2728

 eigenvalue-minimisations  : 57792
 total energy-change (2. order) :-0.5071629E+00  (-0.5049505E+00)
 number of electron     432.0000001 magnetization       4.5088479
 augmentation part      184.2951458 magnetization       3.2849564

 Broyden mixing:
  rms(total) = 0.18146E+01    rms(broyden)= 0.18141E+01
  rms(prec ) = 0.30226E+01
  weight for this iteration     100.00

 eigenvalues of (default mixing * dielectric matrix)
  average eigenvalue GAMMA=   0.4794
  1.6916  1.3879  1.3879  0.6484  0.4874  0.3154  0.3154  0.1871  0.1314  0.1314
  0.1223  0.1080  0.1080  0.0846  0.0846

 Free energy of the ion-electron system (eV)
  ---------------------------------------------------
  alpha Z        PSCENC =      1846.10553122
  Ewald energy   TEWEN  =    -34152.57298882
  -Hartree energ DENC   =     -9598.33232155
  -exchange      EXHF   =         0.00000000
  -V(xc)+E(xc)   XCENC  =      1640.13800718
  PAW double counting   =     48585.15990975   -50541.76757136
  entropy T*S    EENTRO =        -0.06545878
  eigenvalues    EBANDS =      1214.48264779
  atomic energy  EATOM  =     40708.47505058
  Solvation  Ediel_sol  =         0.00000000
  ---------------------------------------------------
  free energy    TOTEN  =      -298.37719398 eV

  energy without entropy =     -298.31173520  energy(sigma->0) =     -298.34446459


--------------------------------------------------------------------------------------------------------




--------------------------------------- Iteration      1(  21)  ---------------------------------------


    POTLOK:  cpu time    0.1144: real time    0.1147
    SETDIJ:  cpu time    0.0229: real time    0.0230
     EDDAV:  cpu time  116.3608: real time  116.6360
    CHARGE:  cpu time    3.1351: real time    3.1425
    MIXING:  cpu time    0.0051: real time    0.0076
    --------------------------------------------
      LOOP:  cpu time  119.6383: real time  119.9238

 eigenvalue-minimisations  : 56656
 total energy-change (2. order) : 0.4762433E+00  (-0.5445555E+00)
 number of electron     432.0000002 magnetization       3.8714018
 augmentation part      184.2546036 magnetization       2.9014990

 Broyden mixing:
  rms(total) = 0.13359E+01    rms(broyden)= 0.13352E+01
  rms(prec ) = 0.22034E+01
  weight for this iteration     100.00

 eigenvalues of (default mixing * dielectric matrix)
  average eigenvalue GAMMA=   0.4852
  1.7681  1.4851  1.4851  0.5942  0.5942  0.3166  0.3166  0.2927  0.1544  0.1312
  0.1312  0.1160  0.1056  0.1056  0.0837  0.0837

 Free energy of the ion-electron system (eV)
  ---------------------------------------------------
  alpha Z        PSCENC =      1846.10553122
  Ewald energy   TEWEN  =    -34152.57298882
  -Hartree energ DENC   =     -9602.08804480
  -exchange      EXHF   =         0.00000000
  -V(xc)+E(xc)   XCENC  =      1640.26970834
  PAW double counting   =     48722.53106973   -50673.00059290
  entropy T*S    EENTRO =        -0.06905565
  eigenvalues    EBANDS =      1212.44837158
  atomic energy  EATOM  =     40708.47505058
  Solvation  Ediel_sol  =         0.00000000
  ---------------------------------------------------
  free energy    TOTEN  =      -297.90095071 eV

  energy without entropy =     -297.83189506  energy(sigma->0) =     -297.86642288


--------------------------------------------------------------------------------------------------------




--------------------------------------- Iteration      1(  22)  ---------------------------------------


    POTLOK:  cpu time    0.1138: real time    0.1141
    SETDIJ:  cpu time    0.0230: real time    0.0230
     EDDAV:  cpu time  116.8449: real time  117.1212
    CHARGE:  cpu time    3.1779: real time    3.1854
    MIXING:  cpu time    0.0043: real time    0.0043
    --------------------------------------------
      LOOP:  cpu time  120.1639: real time  120.4481

 eigenvalue-minimisations  : 56960
 total energy-change (2. order) :-0.9703885E-01  (-0.4484209E+00)
 number of electron     432.0000002 magnetization       3.2059562
 augmentation part      184.2422271 magnetization       2.2789022

 Broyden mixing:
  rms(total) = 0.13612E+01    rms(broyden)= 0.13607E+01
  rms(prec ) = 0.22359E+01
  weight for this iteration     100.00

 eigenvalues of (default mixing * dielectric matrix)
  average eigenvalue GAMMA=   0.4963
  1.8971  1.5593  1.5593  0.6707  0.6707  0.4012  0.3200  0.3200  0.1683  0.1315
  0.1315  0.1257  0.1082  0.1082  0.1021  0.0820  0.0820

 Free energy of the ion-electron system (eV)
  ---------------------------------------------------
  alpha Z        PSCENC =      1846.10553122
  Ewald energy   TEWEN  =    -34152.57298882
  -Hartree energ DENC   =     -9602.69409693
  -exchange      EXHF   =         0.00000000
  -V(xc)+E(xc)   XCENC  =      1640.33689633
  PAW double counting   =     48800.20472721   -50748.14790348
  entropy T*S    EENTRO =        -0.06715569
  eigenvalues    EBANDS =      1210.36195001
  atomic energy  EATOM  =     40708.47505058
  Solvation  Ediel_sol  =         0.00000000
  ---------------------------------------------------
  free energy    TOTEN  =      -297.99798956 eV

  energy without entropy =     -297.93083387  energy(sigma->0) =     -297.96441171


--------------------------------------------------------------------------------------------------------




--------------------------------------- Iteration      1(  23)  ---------------------------------------


    POTLOK:  cpu time    0.1046: real time    0.1048
    SETDIJ:  cpu time    0.0213: real time    0.0214
     EDDAV:  cpu time  114.0562: real time  114.3260
    CHARGE:  cpu time    2.5872: real time    2.5933
    MIXING:  cpu time    0.0045: real time    0.0045
    --------------------------------------------
      LOOP:  cpu time  116.7737: real time  117.0500

 eigenvalue-minimisations  : 56256
 total energy-change (2. order) : 0.2502833E+00  (-0.3683794E+00)
 number of electron     432.0000002 magnetization       2.9002615
[...]
  in kB      477.2937563    359.0501993    462.0591656     52.1846263   -111.6843770    -93.4650916
  external PRESSURE =     432.8010404 kB  Pullay stress =       0.0000000 kB


 VOLUME and BASIS-vectors are now :
 -----------------------------------------------------------------------------
  energy-cutoff  :      500.00
  volume of cell :      468.55
      direct lattice vectors                 reciprocal lattice vectors
     8.722420000  0.000000000  0.000000000     0.114647082  0.066191524  0.000000000
    -4.361210000  7.553837300  0.000000000     0.000000000  0.132383047  0.000000000
     0.000000000  0.000000000  7.111270000     0.000000000  0.000000000  0.140621858

  length of vectors
     8.722420000  8.722419998  7.111270000     0.132383047  0.132383047  0.140621858


 FORCES acting on ions
    electron-ion (+dipol)            ewald-force                    non-local-force                 convergence-correction
 -----------------------------------------------------------------------------------------------
   0.147E+03 -.113E+03 -.107E+03   -.148E+03 0.114E+03 0.107E+03   -.590E-01 -.153E+00 0.423E+00   0.328E-01 -.283E-01 0.276E+00
   0.220E+03 0.521E+02 0.227E+02   -.226E+03 -.538E+02 -.249E+02   0.150E+01 -.485E-01 0.341E+01   -.556E-01 -.189E+00 0.355E-01
   0.624E+02 -.678E+02 -.568E+02   -.633E+02 0.685E+02 0.576E+02   0.569E+00 0.119E+01 0.319E-01   0.475E-01 0.110E+00 -.444E-02
   -.213E+03 0.139E+01 -.136E+03   0.220E+03 -.175E+01 0.139E+03   -.305E+01 0.197E+01 -.418E+00   -.198E+00 0.357E-01 -.414E-01
   0.940E+02 0.420E+02 0.105E+03   -.997E+02 -.445E+02 -.109E+03   0.490E+01 0.141E+01 0.118E+01   -.128E+00 -.366E-01 0.953E-01
   0.474E+02 -.468E+01 -.248E+02   -.471E+02 0.566E+01 0.248E+02   -.368E+00 -.424E+00 0.237E+00   -.182E+00 -.706E-01 0.269E-01
   -.253E+03 -.127E+03 0.183E+03   0.272E+03 0.147E+03 -.211E+03   -.142E+00 -.280E+01 0.358E+01   -.234E-01 -.159E-01 0.993E-01
   -.753E+02 0.115E+03 0.131E+03   0.728E+02 -.118E+03 -.131E+03   0.303E+01 0.236E+01 -.129E+01   -.151E+00 0.365E-01 -.123E-01
   0.125E+03 0.167E+03 -.140E+03   -.128E+03 -.172E+03 0.143E+03   0.222E+01 0.893E-01 0.455E+00   0.668E-01 0.241E-01 0.517E-01
   0.156E+02 -.124E+03 0.451E+02   -.160E+02 0.121E+03 -.455E+02   0.140E+01 0.298E+01 -.360E+00   -.133E+00 0.115E+00 -.195E-01
   0.363E+01 -.462E+01 0.127E+03   -.160E+01 0.633E+01 -.131E+03   -.293E+01 -.130E+01 0.298E+01   -.209E-01 0.817E-01 0.413E-01
   0.101E+03 -.189E+02 -.453E+02   -.107E+03 0.217E+02 0.469E+02   0.455E+01 -.863E+00 -.270E+01   0.167E+00 -.515E-01 -.158E-01
   0.124E+03 0.375E+03 -.115E+03   -.128E+03 -.381E+03 0.116E+03   -.503E-01 -.682E+00 0.328E+01   0.404E-01 -.181E+00 -.502E-01
   -.119E+03 -.585E+02 0.763E+02   0.121E+03 0.572E+02 -.743E+02   -.999E+00 0.210E+01 -.155E+01   0.183E+00 -.294E-01 0.759E-01
   -.135E+03 -.877E+02 -.115E+03   0.143E+03 0.889E+02 0.126E+03   0.996E+00 -.754E-01 0.551E+00   -.986E-01 -.423E-01 -.103E+00
   0.229E+03 0.911E+00 0.184E+02   -.235E+03 -.431E+01 -.196E+02   0.258E+01 0.843E-01 0.106E+00   -.135E+00 0.889E-01 0.875E-02
   0.758E+02 -.107E+03 -.661E+02   -.744E+02 0.109E+03 0.667E+02   -.295E+01 -.162E+01 0.240E+00   0.870E-01 0.162E+00 -.768E-01
   -.315E+03 0.162E+03 -.174E+03   0.324E+03 -.170E+03 0.181E+03   -.348E+00 0.234E+01 -.984E+00   -.467E-01 0.191E+00 0.162E-01
   -.218E+03 -.901E+02 0.170E+03   0.220E+03 0.930E+02 -.169E+03   0.148E+01 0.126E+01 -.409E+01   -.433E-01 0.199E+00 0.115E+00
   -.285E+03 -.204E+02 0.718E+02   0.293E+03 0.254E+02 -.763E+02   0.918E+00 -.131E+01 0.297E+01   -.287E-01 0.183E-01 -.148E+00
   -.425E+03 0.217E+03 0.298E+03   0.453E+03 -.219E+03 -.322E+03   -.239E+01 0.258E+01 0.336E+00   -.141E+00 0.177E+00 0.415E-01
   0.123E+03 -.918E+01 -.298E+03   -.127E+03 0.886E+01 0.303E+03   0.169E+01 0.128E+01 -.150E+01   0.535E-01 0.343E-01 -.515E-01
   -.127E+03 0.113E+03 -.139E+03   0.131E+03 -.115E+03 0.141E+03   -.159E+01 0.619E-01 -.332E+00   -.141E+00 0.136E-01 -.303E-01
   0.110E+03 -.424E+03 0.240E+02   -.119E+03 0.439E+03 -.269E+02   0.198E+01 -.280E+01 0.289E+01   0.204E+00 -.154E+00 0.622E-01
   -.249E+03 -.164E+03 0.801E+02   0.250E+03 0.167E+03 -.831E+02   0.295E+01 -.181E+01 0.130E+01   0.245E+00 0.115E+00 0.217E+00
   0.143E+02 -.714E+02 0.238E+02   -.145E+02 0.731E+02 -.218E+02   0.497E+00 -.120E+01 -.208E+01   0.517E-01 0.148E-01 -.243E+00
   0.767E+02 0.942E+01 -.102E+03   -.762E+02 -.107E+02 0.102E+03   -.464E+00 0.103E+01 -.443E+00   0.912E-01 0.529E-01 -.786E-01
   0.103E+03 0.405E+01 0.132E+03   -.106E+03 -.617E+01 -.146E+03   0.144E+01 0.184E+01 0.113E+02   0.401E-01 0.723E-01 -.275E+00
   0.773E+02 -.447E+02 -.165E+03   -.816E+02 0.524E+02 0.172E+03   0.252E+01 -.805E+01 -.540E+01   0.709E-01 0.222E-01 0.466E-01
   0.397E+02 0.919E+02 0.682E+02   -.454E+02 -.929E+02 -.682E+02   0.666E+01 0.454E+00 -.128E+01   0.608E-01 -.196E+00 0.574E-02
   0.939E+02 -.130E+02 0.192E+02   -.100E+03 0.146E+02 -.250E+02   0.482E+01 -.656E+00 0.785E+01   -.605E-01 0.104E+00 0.123E+00
   0.209E+03 0.119E+03 0.373E+02   -.225E+03 -.124E+03 -.452E+02   0.125E+02 0.571E+01 0.584E+01   -.285E+00 -.500E-01 -.105E+00
   0.103E+03 0.314E+02 -.830E+01   -.108E+03 -.361E+02 0.917E+01   0.352E+01 0.509E+01 0.583E+00   -.165E+00 -.395E-01 -.117E-01
   0.324E+02 0.102E+03 -.309E+02   -.370E+02 -.110E+03 0.383E+02   0.456E+01 0.794E+01 -.709E+01   -.161E+00 -.151E+00 -.730E-01
   0.277E+02 0.894E+02 -.395E+02   -.278E+02 -.971E+02 0.421E+02   -.183E+00 0.734E+01 -.317E+01   -.593E-01 -.881E-01 0.125E-01
   0.753E+02 0.717E+01 -.308E+02   -.826E+02 -.139E+02 0.389E+02   0.620E+01 0.670E+01 -.716E+01   -.228E+00 0.755E-01 -.347E-01
   0.796E+02 -.446E+02 0.136E+03   -.984E+02 0.572E+02 -.154E+03   0.133E+02 -.791E+01 0.111E+02   0.964E-01 0.305E+00 -.325E-01
   0.130E+03 0.252E+03 -.195E+03   -.164E+03 -.274E+03 0.227E+03   0.118E+02 0.105E+02 -.110E+02   -.767E-01 0.132E+00 -.358E-01
   -.766E+02 0.722E+01 0.167E+03   0.893E+02 -.382E+01 -.187E+03   -.910E+01 -.169E+01 0.181E+02   0.487E-01 -.301E+00 0.196E-01
   0.285E+02 0.146E+03 0.520E+02   -.264E+02 -.164E+03 -.584E+02   -.204E+01 0.127E+02 0.262E+01   0.428E-02 -.327E+00 0.234E-01
   -.135E+03 -.320E+01 0.226E+02   0.153E+03 0.319E+01 -.320E+02   -.132E+02 0.208E+01 0.583E+01   0.304E+00 -.135E+00 -.101E+00
   0.156E+02 0.904E+01 -.119E+03   -.210E+02 -.877E+01 0.129E+03   0.459E+01 -.524E+00 -.540E+01   0.191E-01 0.222E+00 0.143E+00
   0.147E+03 -.174E+03 0.706E+02   -.164E+03 0.195E+03 -.777E+02   0.947E+01 -.150E+02 0.207E+00   -.190E+00 0.564E-01 -.106E+00
   -.519E+02 -.204E+03 0.143E+03   0.526E+02 0.213E+03 -.157E+03   0.749E+00 -.656E+01 0.112E+02   -.777E-01 0.705E-01 0.539E-01
   0.543E+02 -.626E+01 -.164E+03   -.590E+02 0.236E+01 0.186E+03   0.109E+01 0.150E+01 -.178E+02   0.296E-01 0.124E+00 0.464E-01
   0.960E+01 0.133E+03 -.119E+03   -.193E+02 -.149E+03 0.130E+03   0.477E+01 0.993E+01 -.507E+01   -.193E+00 0.353E-02 -.127E+00
   -.187E+02 0.102E+03 -.415E+02   0.171E+02 -.106E+03 0.388E+02   0.195E+01 0.188E+01 0.174E+01   0.564E-01 0.129E+00 0.657E-01
   -.309E+02 -.641E+02 0.855E+02   0.272E+02 0.688E+02 -.937E+02   0.116E+01 -.288E+01 0.426E+01   -.131E+00 0.670E-01 -.380E-01
   -.285E+02 -.716E+01 0.223E+03   0.235E+02 -.184E+01 -.245E+03   0.326E+01 0.511E+01 0.136E+02   0.112E+00 -.119E+00 0.871E-01
   -.237E+03 -.177E+03 -.942E+02   0.259E+03 0.191E+03 0.111E+03   -.118E+02 -.107E+02 -.109E+02   -.999E-02 0.412E-02 -.478E-04
   0.194E+03 0.959E+02 -.145E+03   -.234E+03 -.120E+03 0.178E+03   0.208E+02 0.753E+01 -.804E+01   0.130E+00 0.118E+00 -.192E-01
   -.823E+02 -.668E+02 -.671E+02   0.883E+02 0.636E+02 0.750E+02   -.607E+01 0.344E+01 -.745E+01   0.182E+00 0.962E-01 -.240E+00
   0.764E+02 -.247E+02 0.928E+02   -.825E+02 0.236E+02 -.107E+03   0.410E+01 0.270E+01 0.118E+02   0.163E+00 -.589E-01 0.247E+00
   -.811E+02 -.153E+03 0.823E+02   0.827E+02 0.167E+03 -.885E+02   -.443E+00 -.148E+02 0.560E+01   0.150E+00 -.653E-01 0.115E+00
 -----------------------------------------------------------------------------------------------
   -.919E+02 -.301E+02 -.303E+02   0.568E-13 -.853E-13 -.128E-12   0.923E+02 0.293E+02 0.302E+02   -.424E+00 0.741E+00 0.794E-01
 
 
 POSITION                                       TOTAL-FORCE (eV/Angst)
 -----------------------------------------------------------------------------------
      0.13340      0.00516      6.95575        -0.871555      0.960295      0.930075
      1.64345      0.97964      2.16018        -4.507898     -1.969403      1.254192
     -0.07351      1.45112      4.47644        -0.281259      2.039824      0.821553
      6.90108      2.33017      7.07090         2.862176      1.656451      2.612454
      0.20907      3.46486      2.53282        -0.855988     -1.097427     -2.454440
     -1.40554      4.00611      4.71362        -0.233035      0.491338      0.293378
      5.31369      5.06531      0.12124        18.798753     17.074243    -24.459733
     -1.45827      5.87791      2.55759         0.414934     -0.305333     -1.394310
     -2.82336      6.79685      4.72661        -1.237666     -4.321786      3.278583
     -1.52009      7.22736      0.12382         0.858794      0.750913     -0.813841
      4.16274      0.80704      2.60888        -0.908220      0.483684     -0.827870
      2.95759      1.51589      4.88160        -0.816634      1.884183     -1.131435
      1.40349      2.83654      0.03416        -3.443222     -7.039614      4.674406
      2.76568      3.33062      2.36693         0.658271      0.822369      0.517681
      1.43346      4.08380      4.70506         8.758304      1.147697     11.019343
      0.08753      5.05586      0.01308        -3.479311     -3.229056     -1.175269
      1.69865      5.72130      2.40882        -1.440478      0.677454      0.749122
     -0.34469      6.80678      4.52380         8.460390     -5.411302      5.535791
      0.97579      7.48718      0.06870         3.966563      4.332424     -3.344806
      6.86313      0.86559      2.69105         9.308707      3.746036     -1.642972
      5.46211      1.79191      4.85063        25.177645      0.713229    -23.810529
      4.73589      2.41763      0.01802        -2.449436      0.996335      4.243931
      5.79619      3.62932      2.05643         2.523586     -1.748248      1.647004
      4.49649      3.74543      4.87159        -6.957624     11.623524      0.016239
      2.64078      5.13513      0.00264         4.424063      1.801816     -1.502380
      4.26417      5.89839      2.50342         0.320143      0.488269     -0.320208
      2.90218      6.83917      4.74012         0.139860     -0.157318      0.098203
     -4.00676      7.48435      3.68966        -1.557926     -0.218058     -3.013802
      1.51818      0.85138      5.71734        -1.742679     -0.341797      2.237085
     -0.20199      1.76696      1.41101         1.052610     -0.713910     -1.196181
     -1.20027      2.55265      3.31098        -1.345355      1.075491      2.120025
      0.28306      3.44877      6.07181        -3.942845      0.598352     -2.219795
     -1.06008      4.08705      1.04935        -1.257679      0.357731      1.435556
     -2.91658      5.24409      3.53683        -0.145144     -0.531286      0.250445
     -1.53793      5.76483      5.90182        -0.302011     -0.371500     -0.541574
     -2.86946      6.81696      1.21154        -1.358496      0.004798      0.913745
     -1.50739      7.45733      3.80456        -5.447665      5.077476     -7.017319
      4.49663      1.47681      5.70992       -22.482929    -11.516896     20.659039
      2.90949      1.76618      1.45079         3.635969      1.406306     -2.052578
      1.65593      2.70212      3.94225         0.060038     -6.380338     -3.791014
      2.74846      3.15492      6.35619         5.617917      1.937115     -3.691875
      1.53871      4.28484      1.02175        -0.791521     -0.027782      4.827597
      0.36463      4.76934      3.88311        -8.560632      5.684950     -6.975849
      1.28918      5.55560      5.97134         1.366520      2.894517     -3.275862
      0.04674      6.52509      0.93292        -3.590230     -2.275533      4.935019
      5.69195      0.06471      3.33500        -5.166557     -5.989463      5.325186
      7.35882      1.16280      5.85756         0.409044     -2.687925     -0.842565
      5.69028      1.27565      1.55941        -2.634873      1.829362     -3.976017
      4.21209      2.77928      3.66550        -1.631449     -4.006485     -7.418522
      5.69254      3.20986      5.68696        10.099619      3.068584      5.823897
      4.69762      4.40969      1.06412       -19.100321    -16.892991     25.096509
      2.96188      4.92759      3.71439         0.120934      0.407638      0.216488
      4.39241      5.81430      5.96401        -1.865803      1.548857     -2.190173
      2.86107      6.67646      1.29031         1.371605     -0.347810     -0.451625
 -----------------------------------------------------------------------------------
    total drift:                                0.002402      0.003244      0.003635


--------------------------------------------------------------------------------------------------------



  FREE ENERGIE OF THE ION-ELECTRON SYSTEM (eV)
  ---------------------------------------------------
  free  energy   TOTEN  =      -297.3832791981 eV

  energy  without entropy=     -297.3180182095  energy(sigma->0) =     -297.35064870
 


--------------------------------------------------------------------------------------------------------


    POTLOK:  cpu time    0.1361: real time    0.1364


--------------------------------------------------------------------------------------------------------


     LOOP+:  cpu time 9765.2332: real time 9790.0343
    4ORBIT:  cpu time    0.0000: real time    0.0000

volume of typ            1:    36.7 %

volume of typ            2:     9.4 %
 
total charge     
 
# of ion       s       p       d       tot
------------------------------------------
    1        0.183   0.183   7.976   8.342
    2        0.250   0.274   8.020   8.544
    3        0.239   0.280   7.993   8.512
    4        0.235   0.245   8.023   8.503
    5        0.234   0.269   7.975   8.478
    6        0.186   0.180   8.000   8.366
    7        0.427   0.549   8.235   9.211
    8        0.203   0.197   8.049   8.448
    9        0.282   0.379   8.005   8.665
   10        0.230   0.251   8.031   8.512
   11        0.236   0.264   8.050   8.550
   12        0.256   0.327   8.028   8.611
   13        0.324   0.411   8.067   8.801
   14        0.225   0.248   8.046   8.519
   15        0.372   0.516   8.067   8.955
   16        0.297   0.413   7.991   8.701
   17        0.214   0.231   8.018   8.463
   18        0.285   0.321   8.151   8.757
   19        0.259   0.270   8.089   8.618
   20        0.317   0.403   8.063   8.783
   21        0.406   0.560   8.291   9.257
   22        0.248   0.280   8.095   8.622
   23        0.211   0.227   8.081   8.519
   24        0.346   0.430   8.148   8.924
   25        0.250   0.297   8.016   8.564
   26        0.208   0.224   7.988   8.420
   27        0.160   0.148   8.070   8.378
   28        1.270   2.802   0.013   4.086
   29        1.274   2.776   0.010   4.060
   30        1.286   2.687   0.004   3.977
   31        1.274   2.763   0.010   4.046
   32        1.280   2.797   0.013   4.090
   33        1.278   2.733   0.006   4.018
   34        1.274   2.756   0.008   4.039
   35        1.274   2.740   0.006   4.020
   36        1.277   2.762   0.010   4.050
   37        1.275   2.878   0.029   4.182
   38        1.297   2.966   0.047   4.310
   39        1.268   2.805   0.015   4.088
   40        1.280   2.819   0.015   4.113
   41        1.285   2.792   0.013   4.089
   42        1.271   2.836   0.018   4.125
   43        1.281   2.837   0.020   4.138
   44        1.270   2.811   0.012   4.092
   45        1.271   2.840   0.020   4.131
   46        1.275   2.828   0.019   4.121
   47        1.273   2.760   0.010   4.043
   48        1.285   2.773   0.013   4.071
   49        1.286   2.812   0.017   4.115
   50        1.272   2.899   0.029   4.200
   51        1.299   2.938   0.047   4.284
   52        1.276   2.744   0.008   4.028
   53        1.269   2.772   0.009   4.051
   54        1.272   2.746   0.007   4.026
--------------------------------------------------
tot          41.58   84.05  217.99  343.62
 
magnetization (x)
 
# of ion       s       p       d       tot
------------------------------------------
    1       -0.003  -0.004  -0.956  -0.963
    2       -0.005  -0.008  -0.770  -0.784
    3        0.000  -0.001  -0.187  -0.188
    4        0.001   0.001   0.504   0.506
    5       -0.001  -0.000  -0.718  -0.719
    6        0.002   0.000   0.801   0.803
    7        0.015   0.009   0.077   0.100
    8       -0.002  -0.005  -0.758  -0.765
    9        0.000   0.001  -0.086  -0.085
   10       -0.002  -0.007  -0.645  -0.654
   11        0.000   0.001   0.007   0.008
   12        0.000   0.000   0.465   0.465
   13        0.001   0.003   0.037   0.041
   14       -0.001  -0.001   0.040   0.039
   15        0.000  -0.001   0.021   0.021
   16       -0.001  -0.000  -0.049  -0.050
   17       -0.003  -0.006  -0.781  -0.789
   18       -0.003  -0.001  -0.037  -0.041
   19        0.003   0.007   0.449   0.458
   20        0.000   0.003   0.065   0.068
   21        0.002   0.000   0.154   0.156
   22        0.001   0.001   0.346   0.348
   23        0.001   0.002   0.333   0.336
   24        0.014   0.001   0.255   0.270
   25        0.002   0.016   0.965   0.983
   26       -0.000  -0.000  -0.093  -0.093
   27        0.001   0.000   0.045   0.047
   28       -0.002  -0.025  -0.000  -0.028
   29       -0.001  -0.030   0.000  -0.031
   30       -0.004  -0.109  -0.000  -0.113
   31       -0.002   0.003  -0.000   0.001
   32        0.000   0.018  -0.000   0.018
   33       -0.002  -0.054  -0.000  -0.055
   34       -0.003  -0.023  -0.000  -0.026
   35       -0.002  -0.040  -0.000  -0.042
   36       -0.007  -0.148  -0.000  -0.155
   37       -0.003  -0.019  -0.000  -0.022
   38        0.004   0.087  -0.000   0.091
   39       -0.003  -0.062  -0.000  -0.065
   40       -0.002  -0.021  -0.000  -0.024
   41        0.002   0.059   0.000   0.061
   42        0.004   0.020   0.000   0.024
   43        0.000  -0.013   0.000  -0.013
   44        0.006   0.092   0.000   0.098
   45       -0.003  -0.004   0.000  -0.007
   46       -0.001  -0.004   0.000  -0.005
   47        0.000   0.028  -0.000   0.028
   48        0.002   0.063  -0.000   0.064
   49        0.003   0.051   0.000   0.053
   50        0.009   0.062  -0.000   0.070
   51        0.003   0.066   0.000   0.068
   52       -0.003  -0.043  -0.000  -0.047
   53       -0.001  -0.025   0.000  -0.026
   54       -0.003  -0.001  -0.000  -0.004
--------------------------------------------------
tot           0.01   -0.06   -0.52   -0.56
 

 total amount of memory used by VASP MPI-rank0   376788. kBytes
=======================================================================

   base      :      30000. kBytes
   nonlr-proj:      36953. kBytes
   fftplans  :       4688. kBytes
   grid      :      26804. kBytes
   one-center:       1679. kBytes
   wavefun   :     276664. kBytes
 
  
  
 General timing and accounting informations for this job:
 ========================================================
  
                  Total CPU time used (sec):     9827.597
                            User time (sec):     9816.236
                          System time (sec):       11.361
                         Elapsed time (sec):     9856.978
  
                   Maximum memory used (kb):      479292.
                   Average memory used (kb):           0.
  
                          Minor page faults:        45826
                          Major page faults:           97
                 Voluntary context switches:         1355
