 vasp.5.4.4.18Apr17-6-g9f103f2a35 (build May 12 2020 04:58:55) complex          
  
 MD_VERSION_INFO: Compiled 2020-05-12T11:58:55-UTC in devlin.sd.materialsdesign.
 com:/home/medea2/data/build/wwolf/vasp-gpu5.4.4/13047/x86_64/src/src/build/std 
 from svn 13047
 
 This VASP executable licensed from Materials Design, Inc.
 
 executed on                        Lin64 date 2023.03.24  15:15:33
 running on   16 total cores
 distrk:  each k-point on   16 cores,    1 groups
 distr:  one band on NCORES_PER_BAND=   1 cores,   16 groups


--------------------------------------------------------------------------------------------------------


 INCAR:
 POTCAR:    PAW_PBE Ni 02Aug2007                  
 POTCAR:    PAW_PBE O 08Apr2002                   

 ----------------------------------------------------------------------------- 
|                                                                             |
|           W    W    AA    RRRRR   N    N  II  N    N   GGGG   !!!           |
|           W    W   A  A   R    R  NN   N  II  NN   N  G    G  !!!           |
|           W    W  A    A  R    R  N N  N  II  N N  N  G       !!!           |
|           W WW W  AAAAAA  RRRRR   N  N N  II  N  N N  G  GGG   !            |
|           WW  WW  A    A  R   R   N   NN  II  N   NN  G    G                |
|           W    W  A    A  R    R  N    N  II  N    N   GGGG   !!!           |
|                                                                             |
|      For optimal performance we recommend to set                            |
|        NCORE= 4 - approx SQRT( number of cores)                             |
|      NCORE specifies how many cores store one orbital (NPAR=cpu/NCORE).     |
|      This setting can  greatly improve the performance of VASP for DFT.     |
|      The default,   NCORE=1            might be grossly inefficient         |
|      on modern multi-core architectures or massively parallel machines.     |
|      Do your own testing !!!!                                               |
|      Unfortunately you need to use the default for GW and RPA calculations. |
|      (for HF NCORE is supported but not extensively tested yet)             |
|                                                                             |
 ----------------------------------------------------------------------------- 

 POTCAR:    PAW_PBE Ni 02Aug2007                  
  local pseudopotential read in
  partial core-charges read in
  partial kinetic energy density read in
  atomic valenz-charges read in
  non local Contribution for L=           2  read in
    real space projection operators read in
  non local Contribution for L=           2  read in
    real space projection operators read in
  non local Contribution for L=           0  read in
    real space projection operators read in
  non local Contribution for L=           0  read in
    real space projection operators read in
  non local Contribution for L=           1  read in
    real space projection operators read in
  non local Contribution for L=           1  read in
    real space projection operators read in
    PAW grid and wavefunctions read in
 
   number of l-projection  operators is LMAX  =           6
   number of lm-projection operators is LMMAX =          18
 
 POTCAR:    PAW_PBE O 08Apr2002                   
  local pseudopotential read in
  partial core-charges read in
  partial kinetic energy density read in
  kinetic energy density of atom read in
  atomic valenz-charges read in
  non local Contribution for L=           0  read in
    real space projection operators read in
  non local Contribution for L=           0  read in
    real space projection operators read in
  non local Contribution for L=           1  read in
    real space projection operators read in
  non local Contribution for L=           1  read in
    real space projection operators read in
    PAW grid and wavefunctions read in
 
   number of l-projection  operators is LMAX  =           4
   number of lm-projection operators is LMMAX =           8
 
 Optimization of the real space projectors (new method)

 maximal supplied QI-value         = 16.25
 optimisation between [QCUT,QGAM] = [ 11.38, 22.75] = [ 36.24,144.96] Ry 
 Optimized for a Real-space Cutoff    1.47 Angstroem

   l    n(q)    QCUT    max X(q) W(low)/X(q) W(high)/X(q)  e(spline) 
   2      9    11.376    60.317    0.17E-03    0.16E-04    0.16E-06
   2      9    11.376    55.921    0.17E-03    0.16E-04    0.17E-06
   0     10    11.376    51.690    0.45E-04    0.60E-04    0.21E-06
   0     10    11.376    30.015    0.37E-04    0.55E-04    0.19E-06
   1     10    11.376    18.849    0.83E-04    0.11E-03    0.92E-07
   1     10    11.376    14.624    0.69E-04    0.92E-04    0.82E-07
 Optimization of the real space projectors (new method)

 maximal supplied QI-value         = 24.76
 optimisation between [QCUT,QGAM] = [ 11.39, 22.77] = [ 36.31,145.25] Ry 
 Optimized for a Real-space Cutoff    1.10 Angstroem

   l    n(q)    QCUT    max X(q) W(low)/X(q) W(high)/X(q)  e(spline) 
   0      7    11.387    20.381    0.22E-03    0.48E-03    0.18E-06
   0      7    11.387    15.268    0.22E-03    0.52E-03    0.19E-06
   1      7    11.387     5.964    0.22E-03    0.73E-03    0.24E-06
   1      7    11.387     5.382    0.19E-03    0.60E-03    0.21E-06

 ----------------------------------------------------------------------------- 
|                                                                             |
|  ADVICE TO THIS USER RUNNING 'VASP/VAMP'   (HEAR YOUR MASTER'S VOICE ...):  |
|                                                                             |
|      You enforced a specific xc-type in the INCAR file,                     |
|      a different type was found on the POTCAR file                          |
|          I HOPE YOU KNOW, WHAT YOU ARE  DOING                               |
|                                                                             |
 ----------------------------------------------------------------------------- 

  PAW_PBE Ni 02Aug2007                  :
 energy of atom  1       EATOM=-1077.6739
 kinetic energy error for atom=    0.0030 (will be added to EATOM!!)
  PAW_PBE O 08Apr2002                   :
 energy of atom  2       EATOM= -432.3788
 kinetic energy error for atom=    0.0224 (will be added to EATOM!!)
 
 
 POSCAR: NiO_C2_m_scale_0_975_disp_0_20_round_1  
  positions in direct lattice
  No initial velocities read in
 exchange correlation table for  LEXCH =       14
   RHO(1)=    0.500       N(1)  =     2000
   RHO(2)=  100.500       N(2)  =     4000
 


--------------------------------------------------------------------------------------------------------


 ion  position               nearest neighbor table
   1  0.037  0.992  0.986-  53 1.79  36 1.83  29 1.98   9 2.19   7 2.26  47 2.29  54 2.33   2 2.63
                            19 2.64  10 2.66   3 2.74  27 2.77  13 2.94  26 3.00   4 3.05
   2  0.165  0.114  0.333-  30 1.72  36 1.72  28 1.91  37 2.28  39 2.36  40 2.47  26 2.55  20 2.60
                             1 2.63  13 2.77   5 2.87   3 2.87  12 3.03  10 3.03   9 3.05
   3  0.106  0.236  0.696-  40 1.77  32 1.86  47 2.02  29 2.05  31 2.15  28 2.36  15 2.51  21 2.64
                            12 2.72   1 2.74  27 2.74   6 2.76   4 2.77   9 2.77   5 2.78   2 2.87
   4  0.990  0.323  0.032-  48 1.60  30 1.86  47 1.91  33 2.08  32 2.09  50 2.24  19 2.52  23 2.62
                            21 2.70   3 2.77  22 2.77   6 2.92  16 2.94  13 3.04  20 3.04   5 3.04
   5  0.230  0.476  0.387-  40 1.88  43 1.93  31 1.98  30 2.06  33 2.20  42 2.33  23 2.58  15 2.61
                             6 2.64   8 2.65  17 2.74   3 2.78  16 2.84   2 2.87   4 3.04  13 3.05
   6  0.130  0.572  0.705-  50 1.85  32 1.89  35 1.90  43 2.18  31 2.27  34 2.38   7 2.56   5 2.64
                            15 2.67  24 2.68  18 2.71  16 2.72   3 2.76  21 2.80   4 2.92  23 2.95
   7  0.026  0.722  0.955-  35 1.25  53 1.64  51 2.16   9 2.19  50 2.23   1 2.26  36 2.28  33 2.29
                             6 2.56  24 2.61  10 2.67  16 2.82   8 2.99  25 3.07  26 3.08
   8  0.255  0.791  0.306-  45 1.60  33 1.89  43 2.03  36 2.09  16 2.32  37 2.35  10 2.45  17 2.47
                            34 2.53  11 2.63   5 2.65  26 2.92  23 2.94   7 2.99
   9  0.111  0.914  0.715-  53 1.54  29 1.76  35 1.93  34 2.16  28 2.18   1 2.19   7 2.19  37 2.47
                            27 2.49   3 2.77  10 2.86  12 2.90  26 2.90  24 2.94   6 2.99   2 3.05
  10  0.353  0.003  0.035-  36 1.89  45 1.95  39 2.05  35 2.15  38 2.24  29 2.26   8 2.45  11 2.63
                             1 2.66   7 2.67  16 2.67  22 2.79  18 2.80   9 2.86  13 2.93   2 3.03
  11  0.548  0.110  0.353-  37 1.65  45 1.73  39 2.05  46 2.08  49 2.23  48 2.44   8 2.63  10 2.63
                            17 2.64  22 2.70  20 2.71  14 2.88  12 2.90  23 2.98  19 3.03  21 3.03
  12  0.437  0.264  0.661-  29 1.78  41 1.79  40 1.80  37 1.95  38 2.16  15 2.29  49 2.44   3 2.72
                            24 2.82  14 2.85  13 2.89  11 2.90   9 2.90   2 3.03
  13  0.361  0.352  0.039-  42 1.69  39 1.80  41 1.88  32 2.19  29 2.25  30 2.31  25 2.55  15 2.64
                            14 2.65  22 2.71   2 2.77  12 2.89  16 2.92  10 2.93   1 2.94   3 3.03
  14  0.602  0.472  0.322-  42 1.92  51 1.93  39 1.97  52 2.03  49 2.18  22 2.44  25 2.60  13 2.65
                            26 2.65  23 2.79  12 2.85  24 2.87  11 2.88  17 3.05
  15  0.413  0.518  0.704-  40 1.49  32 1.78  41 1.78  52 2.09  43 2.27  44 2.29  12 2.29   3 2.51
                             5 2.61  13 2.64   6 2.67  25 2.76  18 2.88  16 2.95
  16  0.326  0.677  0.037-  44 1.82  33 1.87  35 2.14  45 2.15  32 2.16  42 2.17   8 2.32  10 2.67
                            18 2.69  17 2.72   6 2.72  25 2.76   7 2.82   5 2.84  13 2.92   4 2.94
  17  0.548  0.800  0.350-  45 1.74  43 1.78  46 2.01  54 2.11  52 2.24  42 2.28  20 2.34   8 2.47
                            19 2.62  11 2.64  16 2.72   5 2.74  18 2.82  25 2.88  27 2.95  14 3.05
  18  0.459  0.877  0.716-  44 1.64  43 1.87  38 2.19  46 2.21  35 2.39  16 2.69   6 2.71  10 2.80
                            17 2.82  15 2.88  27 2.94  21 3.01  11 3.05
  19  0.735  0.999  0.056-  54 1.19  48 1.67  47 1.77  44 2.21  20 2.29  45 2.40   4 2.52  25 2.56
                            17 2.62   1 2.64  27 3.00  11 3.03
  20  0.837  0.058  0.367-  46 1.52  28 1.80  54 1.81  48 1.83  31 2.24  30 2.24  19 2.29  17 2.34
                            27 2.46   2 2.60  26 2.70  11 2.71  21 2.89  23 3.00   4 3.04   3 3.04
  21  0.799  0.244  0.699-  50 1.72  38 1.85  47 1.88  49 1.92  31 1.95  46 2.08  24 2.54   3 2.64
                             4 2.70   6 2.80  23 2.85  20 2.89  22 2.93  18 3.01  11 3.03  27 3.04
  22  0.672  0.338  0.048-  39 1.87  51 2.00  38 2.05  41 2.26  48 2.33  50 2.35  14 2.44  11 2.70
                            13 2.71  23 2.74   4 2.77  10 2.79  25 2.91  21 2.93  24 2.99
  23  0.914  0.443  0.346-  31 1.66  49 1.77  33 1.88  51 2.05  48 2.20  34 2.22   5 2.58   4 2.62
                            22 2.74  24 2.77  14 2.79  21 2.85  26 2.91   8 2.94   6 2.95  11 2.98
  24  0.802  0.543  0.676-  50 1.66  49 1.74  34 1.78  52 2.18  53 2.19  41 2.28  21 2.54   7 2.61
                             6 2.68  23 2.77  12 2.82  26 2.84  14 2.87   9 2.94  27 2.95  22 2.99
  25  0.644  0.664  0.015-  42 1.71  44 1.99  41 2.06  54 2.07  51 2.29  53 2.49  13 2.55  19 2.56
                            14 2.60  15 2.76  16 2.76  17 2.88  22 2.91  27 2.97   7 3.07  26 3.08
  26  0.911  0.784  0.356-  34 1.63  28 1.76  51 1.97  36 2.12  52 2.30  54 2.38   2 2.55  14 2.65
                            27 2.66  20 2.70  24 2.84   9 2.90  23 2.91   8 2.92   1 3.00   7 3.08
  27  0.811  0.893  0.668-  28 1.62  53 1.84  52 2.03  46 2.09  47 2.17  20 2.46   9 2.49  26 2.66
                             3 2.74   1 2.77  18 2.94  24 2.95  17 2.95  25 2.97  19 3.00  21 3.04
  28  0.963  0.976  0.499-  27 1.62  26 1.76  20 1.80   2 1.91   9 2.18   3 2.36
  29  0.252  0.129  0.817-   9 1.76  12 1.78   1 1.98   3 2.05  13 2.25  10 2.26
  30  0.098  0.248  0.216-   2 1.72   4 1.86   5 2.06  20 2.24  13 2.31
  31  0.982  0.337  0.496-  23 1.66  21 1.95   5 1.98   3 2.15  20 2.24   6 2.27
  32  0.217  0.443  0.849-  15 1.78   3 1.86   6 1.89   4 2.09  16 2.16  13 2.19
  33  0.106  0.572  0.173-  16 1.87  23 1.88   8 1.89   4 2.08   5 2.20   7 2.29
  34  0.978  0.690  0.516-  26 1.63  24 1.78   9 2.16  23 2.22   6 2.38   8 2.53
  35  0.172  0.766  0.872-   7 1.25   6 1.90   9 1.93  16 2.14  10 2.15  18 2.39
  36  0.145  0.941  0.186-   2 1.72   1 1.83  10 1.89   8 2.09  26 2.12   7 2.28
  37  0.369  0.059  0.489-  11 1.65  12 1.95   2 2.28   8 2.35   9 2.47
  38  0.579  0.156  0.824-  21 1.85  22 2.05  12 2.16  18 2.19  10 2.24
  39  0.453  0.242  0.184-  13 1.80  22 1.87  14 1.97  10 2.05  11 2.05   2 2.36
  40  0.311  0.366  0.566-  15 1.49   3 1.77  12 1.80   5 1.88   2 2.47
  41  0.536  0.437  0.841-  15 1.78  12 1.79  13 1.88  25 2.06  22 2.26  24 2.28
  42  0.464  0.546  0.167-  13 1.69  25 1.71  14 1.92  16 2.17  17 2.28   5 2.33
  43  0.364  0.708  0.515-  17 1.78  18 1.87   5 1.93   8 2.03   6 2.18  15 2.27
  44  0.522  0.780  0.878-  18 1.64  16 1.82  25 1.99  19 2.21  15 2.29
  45  0.456  0.910  0.223-   8 1.60  11 1.73  17 1.74  10 1.95  16 2.15  19 2.40
  46  0.691  0.019  0.517-  20 1.52  17 2.01  11 2.08  21 2.08  27 2.09  18 2.21
  47  0.879  0.120  0.860-  19 1.77  21 1.88   4 1.91   3 2.02  27 2.17   1 2.29
  48  0.825  0.197  0.171-   4 1.60  19 1.67  20 1.83  23 2.20  22 2.33  11 2.44
  49  0.732  0.365  0.512-  24 1.74  23 1.77  21 1.92  14 2.18  11 2.23  12 2.44
  50  0.898  0.452  0.810-  24 1.66  21 1.72   6 1.85   7 2.23   4 2.24  22 2.35
  51  0.825  0.579  0.175-  14 1.93  26 1.97  22 2.00  23 2.05   7 2.16  25 2.29
  52  0.648  0.652  0.536-  14 2.03  27 2.03  15 2.09  24 2.18  17 2.24  26 2.30
  53  0.928  0.807  0.821-   9 1.54   7 1.64   1 1.79  27 1.84  24 2.19  25 2.49
  54  0.772  0.910  0.159-  19 1.19  20 1.81  25 2.07  17 2.11   1 2.33  26 2.38
 
  LATTYP: Found a hexagonal cell.
 ALAT       =     8.5043595001
 C/A-ratio  =     0.8152863540
  
  Lattice vectors:
  
 A1 = (   8.5043595000,   0.0000000000,   0.0000000000)
 A2 = (  -4.2521797500,   7.3649913700,   0.0000000000)
 A3 = (   0.0000000000,   0.0000000000,   6.9334882500)


Analysis of symmetry for initial positions (statically):
=====================================================================
 Subroutine PRICEL returns:
 Original cell was already a primitive cell.
 

 Routine SETGRP: Setting up the symmetry group for a 
 hexagonal supercell.


 Subroutine GETGRP returns: Found  1 space group operations
 (whereof  1 operations were pure point group operations)
 out of a pool of 24 trial point group operations.


The static configuration has the point symmetry C_1 .


Analysis of symmetry for dynamics (positions and initial velocities):
=====================================================================
 Subroutine PRICEL returns:
 Original cell was already a primitive cell.
 

 Routine SETGRP: Setting up the symmetry group for a 
 hexagonal supercell.


 Subroutine GETGRP returns: Found  1 space group operations
 (whereof  1 operations were pure point group operations)
 out of a pool of 24 trial point group operations.


The dynamic configuration has the point symmetry C_1 .


Analysis of structural, dynamic, and magnetic symmetry:
=====================================================================
 Subroutine PRICEL returns:
 Original cell was already a primitive cell.
 

 Routine SETGRP: Setting up the symmetry group for a 
 hexagonal supercell.


 Subroutine GETGRP returns: Found  1 space group operations
 (whereof  1 operations were pure point group operations)
 out of a pool of 24 trial point group operations.


The magnetic configuration has the point symmetry C_1 .


 Subroutine INISYM returns: Found  1 space group operations
 (whereof  1 operations are pure point group operations),
 and found     1 'primitive' translations

 
 
 KPOINTS: Automatic mesh                          

Automatic generation of k-mesh.
Space group operators:
 irot       det(A)        alpha          n_x          n_y          n_z        tau_x        tau_y        tau_z
    1     1.000000     0.000000     1.000000     0.000000     0.000000     0.000000     0.000000     0.000000
 
 Subroutine IBZKPT returns following result:
 ===========================================
 
 Found     36 irreducible k-points:
 
 Following reciprocal coordinates:
            Coordinates               Weight
  0.000000  0.000000  0.000000      1.000000
  0.250000  0.000000  0.000000      2.000000
  0.500000  0.000000  0.000000      1.000000
  0.000000  0.250000  0.000000      2.000000
  0.250000  0.250000  0.000000      2.000000
  0.500000  0.250000  0.000000      2.000000
 -0.250000  0.250000  0.000000      2.000000
  0.000000  0.500000  0.000000      1.000000
  0.250000  0.500000  0.000000      2.000000
  0.500000  0.500000  0.000000      1.000000
  0.000000  0.000000  0.250000      2.000000
  0.250000  0.000000  0.250000      2.000000
  0.500000  0.000000  0.250000      2.000000
 -0.250000 -0.000000  0.250000      2.000000
  0.000000  0.250000  0.250000      2.000000
  0.250000  0.250000  0.250000      2.000000
  0.500000  0.250000  0.250000      2.000000
 -0.250000  0.250000  0.250000      2.000000
  0.000000  0.500000  0.250000      2.000000
  0.250000  0.500000  0.250000      2.000000
  0.500000  0.500000  0.250000      2.000000
 -0.250000  0.500000  0.250000      2.000000
  0.000000 -0.250000  0.250000      2.000000
  0.250000 -0.250000  0.250000      2.000000
  0.500000 -0.250000  0.250000      2.000000
 -0.250000 -0.250000  0.250000      2.000000
  0.000000  0.000000  0.500000      1.000000
  0.250000  0.000000  0.500000      2.000000
  0.500000  0.000000  0.500000      1.000000
  0.000000  0.250000  0.500000      2.000000
  0.250000  0.250000  0.500000      2.000000
  0.500000  0.250000  0.500000      2.000000
 -0.250000  0.250000  0.500000      2.000000
  0.000000  0.500000  0.500000      1.000000
  0.250000  0.500000  0.500000      2.000000
  0.500000  0.500000  0.500000      1.000000
 
 Following cartesian coordinates:
            Coordinates               Weight
  0.000000  0.000000  0.000000      1.000000
  0.029397  0.016972  0.000000      2.000000
  0.058793  0.033944  0.000000      1.000000
  0.000000  0.033944  0.000000      2.000000
  0.029397  0.050917  0.000000      2.000000
  0.058793  0.067889  0.000000      2.000000
 -0.029397  0.016972  0.000000      2.000000
  0.000000  0.067889  0.000000      1.000000
  0.029397  0.084861  0.000000      2.000000
  0.058793  0.101833  0.000000      1.000000
  0.000000  0.000000  0.036057      2.000000
  0.029397  0.016972  0.036057      2.000000
  0.058793  0.033944  0.036057      2.000000
 -0.029397 -0.016972  0.036057      2.000000
  0.000000  0.033944  0.036057      2.000000
  0.029397  0.050917  0.036057      2.000000
  0.058793  0.067889  0.036057      2.000000
 -0.029397  0.016972  0.036057      2.000000
  0.000000  0.067889  0.036057      2.000000
  0.029397  0.084861  0.036057      2.000000
  0.058793  0.101833  0.036057      2.000000
 -0.029397  0.050917  0.036057      2.000000
  0.000000 -0.033944  0.036057      2.000000
  0.029397 -0.016972  0.036057      2.000000
  0.058793  0.000000  0.036057      2.000000
 -0.029397 -0.050917  0.036057      2.000000
  0.000000  0.000000  0.072114      1.000000
  0.029397  0.016972  0.072114      2.000000
  0.058793  0.033944  0.072114      1.000000
  0.000000  0.033944  0.072114      2.000000
  0.029397  0.050917  0.072114      2.000000
  0.058793  0.067889  0.072114      2.000000
 -0.029397  0.016972  0.072114      2.000000
  0.000000  0.067889  0.072114      1.000000
  0.029397  0.084861  0.072114      2.000000
  0.058793  0.101833  0.072114      1.000000
 


--------------------------------------------------------------------------------------------------------




 Dimension of arrays:
   k-points           NKPTS =     36   k-points in BZ     NKDIM =     36   number of bands    NBANDS=    304
   number of dos      NEDOS =    301   number of ions     NIONS =     54
   non local maximal  LDIM  =      6   non local SUM 2l+1 LMDIM =     18
   total plane-waves  NPLWV = 221184
   max r-space proj   IRMAX =   6887   max aug-charges    IRDMAX=  16707
   dimension x,y,z NGX =    64 NGY =   64 NGZ =   54
   dimension x,y,z NGXF=   128 NGYF=  128 NGZF=  108
   support grid    NGXF=   128 NGYF=  128 NGZF=  108
   ions per type =              27  27
   NGX,Y,Z   is equivalent  to a cutoff of  12.51, 12.51, 12.95 a.u.
   NGXF,Y,Z  is equivalent  to a cutoff of  25.02, 25.02, 25.90 a.u.

 SYSTEM =  unknown system                          
 POSCAR =  NiO_C2_m_scale_0_975_disp_0_20_round_1  

 Startparameter for this run:
   NWRITE =      1    write-flag & timer
   PREC   = accura    normal or accurate (medium, high low for compatibility)
   ISTART =      0    job   : 0-new  1-cont  2-samecut
   ICHARG =      2    charge: 1-file 2-atom 10-const
   ISPIN  =      2    spin polarized calculation?
   LNONCOLLINEAR =      F non collinear calculations
   LSORBIT =      F    spin-orbit coupling
   INIWAV =      1    electr: 0-lowe 1-rand  2-diag
   LASPH  =      F    aspherical Exc in radial PAW
   METAGGA=      F    non-selfconsistent MetaGGA calc.

 Electronic Relaxation 1
   ENCUT  =  500.0 eV  36.75 Ry    6.06 a.u.  15.51 15.51 12.64*2*pi/ulx,y,z
   ENINI  =  500.0     initial cutoff
   ENAUG  =  605.4 eV  augmentation charge cutoff
   NELM   =     80;   NELMIN=  2; NELMDL= -5     # of ELM steps 
   EDIFF  = 0.1E-04   stopping-criterion for ELM
   LREAL  =      T    real-space projection
   NLSPLINE    = F    spline interpolate recip. space projectors
   LCOMPAT=      F    compatible to vasp.4.4
   GGA_COMPAT  = T    GGA compatible to vasp.4.4-vasp.4.6
   LMAXPAW     = -100 max onsite density
   LMAXMIX     =    2 max onsite mixed and CHGCAR
   VOSKOWN=      1    Vosko Wilk Nusair interpolation
   ROPT   =   -0.00025  -0.00025
 Ionic relaxation
   EDIFFG = 0.1E-03   stopping-criterion for IOM
   NSW    =      0    number of steps for IOM
   NBLOCK =      1;   KBLOCK =      1    inner block; outer block 
   IBRION =     -1    ionic relax: 0-MD 1-quasi-New 2-CG
   NFREE  =      0    steps in history (QN), initial steepest desc. (CG)
   ISIF   =      2    stress and relaxation
   IWAVPR =     10    prediction:  0-non 1-charg 2-wave 3-comb
   ISYM   =      2    0-nonsym 1-usesym 2-fastsym
   LCORR  =      T    Harris-Foulkes like correction to forces

   POTIM  = 0.5000    time-step for ionic-motion
   TEIN   =    0.0    initial temperature
   TEBEG  =    0.0;   TEEND  =   0.0 temperature during run
   SMASS  =  -3.00    Nose mass-parameter (am)
   estimated Nose-frequenzy (Omega)   =  0.10E-29 period in steps =****** mass=  -0.165E-26a.u.
   SCALEE = 1.0000    scale energy and forces
   NPACO  =    256;   APACO  = 16.0  distance and # of slots for P.C.
   PSTRESS=    0.0 pullay stress

  Mass of Ions in am
   POMASS =  58.69 16.00
  Ionic Valenz
   ZVAL   =  10.00  6.00
  Atomic Wigner-Seitz radii
   RWIGS  =   1.15  0.73
  virtual crystal weights 
   VCA    =   1.00  1.00
   NELECT =     432.0000    total number of electrons
   NUPDOWN=      -1.0000    fix difference up-down

 DOS related values:
   EMIN   =  10.00;   EMAX   =-10.00  energy-range for DOS
   EFERMI =   0.00
   ISMEAR =     0;   SIGMA  =   0.05  broadening in eV -4-tet -1-fermi 0-gaus

 Electronic relaxation 2 (details)
   IALGO  =     38    algorithm
   LDIAG  =      T    sub-space diagonalisation (order eigenvalues)
   LSUBROT=      F    optimize rotation matrix (better conditioning)
   TURBO    =      0    0=normal 1=particle mesh
   IRESTART =      0    0=no restart 2=restart with 2 vectors
   NREBOOT  =      0    no. of reboots
   NMIN     =      0    reboot dimension
   EREF     =   0.00    reference energy to select bands
   IMIX   =      4    mixing-type and parameters
     AMIX     =   0.40;   BMIX     =  1.00
     AMIX_MAG =   1.60;   BMIX_MAG =  1.00
     AMIN     =   0.10
     WC   =   100.;   INIMIX=   1;  MIXPRE=   1;  MAXMIX= -45

 Intra band minimization:
   WEIMIN = 0.0000     energy-eigenvalue tresh-hold
   EBREAK =  0.82E-08  absolut break condition
   DEPER  =   0.30     relativ break condition  

   TIME   =   0.40     timestep for ELM

  volume/ion in A,a.u.               =       8.04        54.27
  Fermi-wavevector in a.u.,A,eV,Ry     =   1.634234  3.088254 36.337355  2.670720
  Thomas-Fermi vector in A             =   2.725907
 
 Write flags
   LWAVE        =      F    write WAVECAR
   LDOWNSAMPLE  =      F    k-point downsampling of WAVECAR
   LCHARG       =      T    write CHGCAR
   LVTOT        =      F    write LOCPOT, total local potential
   LVHAR        =      F    write LOCPOT, Hartree potential only
   LELF         =      F    write electronic localiz. function (ELF)
   LORBIT       =      0    0 simple, 1 ext, 2 COOP (PROOUT), +10 PAW based schemes


 Dipole corrections
   LMONO  =      F    monopole corrections only (constant potential shift)
   LDIPOL =      F    correct potential (dipole corrections)
   IDIPOL =      0    1-x, 2-y, 3-z, 4-all directions 
   EPSILON=  1.0000000 bulk dielectric constant

 Exchange correlation treatment:
   GGA     =    PS    GGA type
   LEXCH   =    14    internal setting for exchange type
   VOSKOWN=      1    Vosko Wilk Nusair interpolation
   LHFCALC =     F    Hartree Fock is set to
   LHFONE  =     F    Hartree Fock one center treatment
   AEXX    =    0.0000 exact exchange contribution

 Linear response parameters
   LEPSILON=     F    determine dielectric tensor
   LRPA    =     F    only Hartree local field effects (RPA)
   LNABLA  =     F    use nabla operator in PAW spheres
   LVEL    =     F    velocity operator in full k-point grid
   LINTERFAST=   F  fast interpolation
   KINTER  =     0    interpolate to denser k-point grid
   CSHIFT  =0.1000    complex shift for real part using Kramers Kronig
   OMEGAMAX=  -1.0    maximum frequency
   DEG_THRESHOLD= 0.2000000E-02 threshold for treating states as degnerate
   RTIME   =   -0.100 relaxation time in fs
  (WPLASMAI=    0.000 imaginary part of plasma frequency in eV, 0.658/RTIME)
   DFIELD  = 0.0000000 0.0000000 0.0000000 field for delta impulse in time
 
 Orbital magnetization related:
   ORBITALMAG=     F  switch on orbital magnetization
   LCHIMAG   =     F  perturbation theory with respect to B field
   DQ        =  0.001000  dq finite difference perturbation B field
   LLRAUG    =     F  two centre corrections for induced B field



--------------------------------------------------------------------------------------------------------


 Static calculation
 charge density and potential will be updated during run
 spin polarized calculation
 Variant of blocked Davidson
 Davidson routine will perform the subspace rotation
 perform sub-space diagonalisation
    after iterative eigenvector-optimisation
 modified Broyden-mixing scheme, WC =      100.0
 initial mixing is a Kerker type mixing with AMIX =  0.4000 and BMIX =      1.0000
 Hartree-type preconditioning will be used
 using additional bands           88
 real space projection scheme for non local part
 use partial core corrections
 calculate Harris-corrections to forces 
   (improved forces if not selfconsistent)
 use gradient corrections 
 use of overlap-Matrix (Vanderbilt PP)
 Gauss-broadening in eV      SIGMA  =   0.05


--------------------------------------------------------------------------------------------------------


  energy-cutoff  :      500.00
  volume of cell :      434.28
      direct lattice vectors                 reciprocal lattice vectors
     8.504359500  0.000000000  0.000000000     0.117586751  0.067888742  0.000000000
    -4.252179750  7.364991370  0.000000000     0.000000000  0.135777484  0.000000000
     0.000000000  0.000000000  6.933488250     0.000000000  0.000000000  0.144227547

  length of vectors
     8.504359500  8.504359500  6.933488250     0.135777484  0.135777484  0.144227547


 
 k-points in units of 2pi/SCALE and weight: Automatic mesh                          
   0.00000000  0.00000000  0.00000000       0.016
   0.02939669  0.01697219  0.00000000       0.031
   0.05879338  0.03394437  0.00000000       0.016
   0.00000000  0.03394437  0.00000000       0.031
   0.02939669  0.05091656  0.00000000       0.031
   0.05879338  0.06788874  0.00000000       0.031
  -0.02939669  0.01697219  0.00000000       0.031
   0.00000000  0.06788874  0.00000000       0.016
   0.02939669  0.08486093  0.00000000       0.031
   0.05879338  0.10183311  0.00000000       0.016
   0.00000000  0.00000000  0.03605689       0.031
   0.02939669  0.01697219  0.03605689       0.031
   0.05879338  0.03394437  0.03605689       0.031
  -0.02939669 -0.01697219  0.03605689       0.031
   0.00000000  0.03394437  0.03605689       0.031
   0.02939669  0.05091656  0.03605689       0.031
   0.05879338  0.06788874  0.03605689       0.031
  -0.02939669  0.01697219  0.03605689       0.031
   0.00000000  0.06788874  0.03605689       0.031
   0.02939669  0.08486093  0.03605689       0.031
   0.05879338  0.10183311  0.03605689       0.031
  -0.02939669  0.05091656  0.03605689       0.031
   0.00000000 -0.03394437  0.03605689       0.031
   0.02939669 -0.01697219  0.03605689       0.031
   0.05879338  0.00000000  0.03605689       0.031
  -0.02939669 -0.05091656  0.03605689       0.031
   0.00000000  0.00000000  0.07211377       0.016
   0.02939669  0.01697219  0.07211377       0.031
   0.05879338  0.03394437  0.07211377       0.016
   0.00000000  0.03394437  0.07211377       0.031
   0.02939669  0.05091656  0.07211377       0.031
   0.05879338  0.06788874  0.07211377       0.031
  -0.02939669  0.01697219  0.07211377       0.031
   0.00000000  0.06788874  0.07211377       0.016
   0.02939669  0.08486093  0.07211377       0.031
   0.05879338  0.10183311  0.07211377       0.016
 
 k-points in reciprocal lattice and weights: Automatic mesh                          
   0.00000000  0.00000000  0.00000000       0.016
   0.25000000  0.00000000  0.00000000       0.031
   0.50000000  0.00000000  0.00000000       0.016
   0.00000000  0.25000000  0.00000000       0.031
   0.25000000  0.25000000  0.00000000       0.031
   0.50000000  0.25000000  0.00000000       0.031
  -0.25000000  0.25000000  0.00000000       0.031
   0.00000000  0.50000000  0.00000000       0.016
   0.25000000  0.50000000  0.00000000       0.031
   0.50000000  0.50000000  0.00000000       0.016
   0.00000000  0.00000000  0.25000000       0.031
   0.25000000  0.00000000  0.25000000       0.031
   0.50000000  0.00000000  0.25000000       0.031
  -0.25000000 -0.00000000  0.25000000       0.031
   0.00000000  0.25000000  0.25000000       0.031
   0.25000000  0.25000000  0.25000000       0.031
   0.50000000  0.25000000  0.25000000       0.031
  -0.25000000  0.25000000  0.25000000       0.031
   0.00000000  0.50000000  0.25000000       0.031
   0.25000000  0.50000000  0.25000000       0.031
   0.50000000  0.50000000  0.25000000       0.031
  -0.25000000  0.50000000  0.25000000       0.031
   0.00000000 -0.25000000  0.25000000       0.031
   0.25000000 -0.25000000  0.25000000       0.031
   0.50000000 -0.25000000  0.25000000       0.031
  -0.25000000 -0.25000000  0.25000000       0.031
   0.00000000  0.00000000  0.50000000       0.016
   0.25000000  0.00000000  0.50000000       0.031
   0.50000000  0.00000000  0.50000000       0.016
   0.00000000  0.25000000  0.50000000       0.031
   0.25000000  0.25000000  0.50000000       0.031
   0.50000000  0.25000000  0.50000000       0.031
  -0.25000000  0.25000000  0.50000000       0.031
   0.00000000  0.50000000  0.50000000       0.016
   0.25000000  0.50000000  0.50000000       0.031
   0.50000000  0.50000000  0.50000000       0.016
 
 position of ions in fractional coordinates (direct lattice) 
   0.03725831  0.99223155  0.98602247
   0.16540644  0.11373400  0.33265699
   0.10562133  0.23648286  0.69590952
   0.98998953  0.32331759  0.03160400
   0.23049161  0.47554406  0.38656068
   0.12977465  0.57180087  0.70488684
   0.02601577  0.72185705  0.95537996
   0.25516614  0.79128042  0.30632927
   0.11115108  0.91417597  0.71455837
   0.35283953  0.00333653  0.03487715
   0.54805185  0.11010578  0.35299266
   0.43653707  0.26351727  0.66089351
   0.36086949  0.35193821  0.03880812
   0.60177994  0.47200098  0.32218116
   0.41314458  0.51798458  0.70358998
   0.32616351  0.67694055  0.03724748
   0.54810392  0.79967175  0.34971155
   0.45886620  0.87735550  0.71592310
   0.73504264  0.99899343  0.05575564
   0.83697695  0.05831581  0.36688757
   0.79942357  0.24364020  0.69866432
   0.67197804  0.33826769  0.04786060
   0.91427892  0.44322038  0.34631455
   0.80224449  0.54281181  0.67613901
   0.64354458  0.66434894  0.01484043
   0.91099838  0.78423411  0.35644454
   0.81063551  0.89335154  0.66845123
   0.96290670  0.97593372  0.49909774
   0.25175718  0.12919843  0.81703822
   0.09763648  0.24792713  0.21636471
   0.98247023  0.33704071  0.49626450
   0.21650607  0.44262488  0.84933865
   0.10621788  0.57222136  0.17278023
   0.97798427  0.68966630  0.51621908
   0.17221224  0.76552330  0.87200768
   0.14508554  0.94121938  0.18634195
   0.36947235  0.05856557  0.48889497
   0.57856012  0.15636781  0.82353869
   0.45268231  0.24193247  0.18407963
   0.31094095  0.36574970  0.56607985
   0.53554407  0.43724838  0.84096079
   0.46364022  0.54636036  0.16717805
   0.36397238  0.70750541  0.51488735
   0.52247006  0.78014525  0.87828642
   0.45603994  0.91035951  0.22262122
   0.69092335  0.01852357  0.51716817
   0.87862186  0.11990246  0.86005299
   0.82549728  0.19726226  0.17143387
   0.73165739  0.36512616  0.51152816
   0.89836091  0.45165217  0.80995576
   0.82453288  0.57906932  0.17493215
   0.64762137  0.65239233  0.53580092
   0.92827553  0.80692102  0.82088704
   0.77220590  0.90984448  0.15902434
 
 position of ions in cartesian coordinates  (Angst):
  -3.90228884  7.30777680  6.83657521
   0.92305842  0.83764993  2.30647333
  -0.10732587  1.74169422  4.82508048
   7.04442236  2.38123126  0.21912596
  -0.06191531  3.50237790  2.68021393
  -1.32774980  4.21130847  4.88732462
  -2.84821847  5.31647094  6.62411573
  -1.19464199  5.82777346  2.12393039
  -2.94197180  6.73289813  4.95438206
   2.98648668  0.02457351  0.24182031
   4.19264039  0.81092812  2.44747046
   2.59194538  1.94080242  4.58229739
   1.57245935  2.59202188  0.26907564
   3.11071994  3.47628314  2.23383929
   1.31096649  3.81495196  4.87833286
  -0.10466115  4.98566131  0.25825496
   1.26092476  5.88957554  2.42472092
   0.17168984  6.46171569  4.96384440
   2.00316722  7.35757799  0.38658107
   6.86998357  0.42949544  2.54381066
   5.76258351  1.79440797  4.84418085
   4.27636781  2.49133862  0.33184091
   5.89070389  3.26431427  2.40116786
   4.51444216  3.99780430  4.68800188
   2.64800335  4.89292421  0.10289595
   4.41275333  5.77587745  2.47140403
   3.09524447  6.57952638  4.63469875
   4.03905914  7.18774343  3.46048832
   1.59165862  0.95154532  5.66492490
  -0.22389500  1.82598117  1.50016217
   6.92212235  2.48230192  3.44084408
  -0.04087510  3.25992842  5.88887955
  -1.52987304  4.21440538  1.19796969
   5.38454474  5.07938635  3.57919893
  -1.79058788  5.63807250  6.04605500
  -2.76837440  6.93207261  1.29199972
   2.89309436  0.43133492  3.38974753
   4.25537922  1.15164757  5.70999583
   2.82103275  1.78183055  1.27631395
   1.08912015  2.69374338  3.92490799
   2.69520059  3.22033055  5.83079176
   1.61974065  4.02393934  1.15912705
   0.08691179  5.21077124  3.56996539
   1.12595538  5.74576303  6.08958857
   0.00731532  6.70478993  1.54354161
   5.79709501  0.13642593  3.58577943
   6.96226935  0.88308058  5.96316730
   6.18153105  1.45283484  1.18863472
   4.66969541  2.68915102  3.54667449
   5.71947793  3.32641433  5.61581874
   4.54981719  4.26484054  1.21289001
   2.73351550  4.80486388  3.71496938
   4.46321560  5.94296635  5.69161065
   2.69829431  6.70099674  1.10259339
 


--------------------------------------------------------------------------------------------------------


 k-point  1 :   0.0000 0.0000 0.0000  plane waves:   11029
 k-point  2 :   0.2500 0.0000 0.0000  plane waves:   11041
 k-point  3 :   0.5000 0.0000 0.0000  plane waves:   11030
 k-point  4 :   0.0000 0.2500 0.0000  plane waves:   11041
 k-point  5 :   0.2500 0.2500 0.0000  plane waves:   11024
 k-point  6 :   0.5000 0.2500 0.0000  plane waves:   11024
 k-point  7 :  -0.2500 0.2500 0.0000  plane waves:   11041
 k-point  8 :   0.0000 0.5000 0.0000  plane waves:   11030
 k-point  9 :   0.2500 0.5000 0.0000  plane waves:   11024
 k-point 10 :   0.5000 0.5000 0.0000  plane waves:   11030
 k-point 11 :   0.0000 0.0000 0.2500  plane waves:   11035
 k-point 12 :   0.2500 0.0000 0.2500  plane waves:   11030
 k-point 13 :   0.5000 0.0000 0.2500  plane waves:   11030
 k-point 14 :  -0.2500-0.0000 0.2500  plane waves:   11030
 k-point 15 :   0.0000 0.2500 0.2500  plane waves:   11030
 k-point 16 :   0.2500 0.2500 0.2500  plane waves:   11019
 k-point 17 :   0.5000 0.2500 0.2500  plane waves:   11019
 k-point 18 :  -0.2500 0.2500 0.2500  plane waves:   11030
 k-point 19 :   0.0000 0.5000 0.2500  plane waves:   11030
 k-point 20 :   0.2500 0.5000 0.2500  plane waves:   11019
 k-point 21 :   0.5000 0.5000 0.2500  plane waves:   11030
 k-point 22 :  -0.2500 0.5000 0.2500  plane waves:   11019
 k-point 23 :   0.0000-0.2500 0.2500  plane waves:   11030
 k-point 24 :   0.2500-0.2500 0.2500  plane waves:   11030
 k-point 25 :   0.5000-0.2500 0.2500  plane waves:   11019
 k-point 26 :  -0.2500-0.2500 0.2500  plane waves:   11019
 k-point 27 :   0.0000 0.0000 0.5000  plane waves:   11018
 k-point 28 :   0.2500 0.0000 0.5000  plane waves:   11052
 k-point 29 :   0.5000 0.0000 0.5000  plane waves:   10980
 k-point 30 :   0.0000 0.2500 0.5000  plane waves:   11052
 k-point 31 :   0.2500 0.2500 0.5000  plane waves:   10974
 k-point 32 :   0.5000 0.2500 0.5000  plane waves:   10974
 k-point 33 :  -0.2500 0.2500 0.5000  plane waves:   11052
 k-point 34 :   0.0000 0.5000 0.5000  plane waves:   10980
 k-point 35 :   0.2500 0.5000 0.5000  plane waves:   10974
 k-point 36 :   0.5000 0.5000 0.5000  plane waves:   10980

 maximum and minimum number of plane-waves per node :     11052    10974

 maximum number of plane-waves:     11052
 maximum index in each direction: 
   IXMAX=   15   IYMAX=   15   IZMAX=   12
   IXMIN=  -16   IYMIN=  -16   IZMIN=  -13

 The following grids will avoid any aliasing or wrap around errors in the Hartre
 e energy
  - symmetry arguments have not been applied
  - exchange correlation energies might require even more grid points
  - we recommend to set PREC=Normal or Accurate and rely on VASP defaults
 NGX is ok and might be reduce to    64
 NGY is ok and might be reduce to    64
 NGZ is ok and might be reduce to    54

 serial   3D FFT for wavefunctions
 parallel 3D FFT for charge:
    minimum data exchange during FFTs selected (reduces bandwidth)


 total amount of memory used by VASP MPI-rank0   360458. kBytes
=======================================================================

   base      :      30000. kBytes
   nonlr-proj:      39885. kBytes
   fftplans  :       4688. kBytes
   grid      :      26804. kBytes
   one-center:       1679. kBytes
   wavefun   :     257402. kBytes
 
     INWAV:  cpu time    0.0000: real time    0.0000
 Broyden mixing: mesh for mixing (old mesh)
   NGX = 31   NGY = 31   NGZ = 25
  (NGX  =128   NGY  =128   NGZ  =108)
  gives a total of  24025 points

 initial charge density was supplied:
 charge density of overlapping atoms calculated
 number of electron     432.0000000 magnetization      67.5000000
 keeping initial charge density in first step


--------------------------------------------------------------------------------------------------------


 Maximum index for non-local projection operator         6653
 Maximum index for augmentation-charges         1102 (set IRDMAX)


--------------------------------------------------------------------------------------------------------


 First call to EWALD:  gamma=   0.234
 Maximum number of real-space cells 3x 3x 3
 Maximum number of reciprocal cells 3x 3x 3

    FEWALD:  cpu time    0.0026: real time    0.0026


--------------------------------------- Iteration      1(   1)  ---------------------------------------


    POTLOK:  cpu time    0.1638: real time    0.1657
    SETDIJ:  cpu time    0.0253: real time    0.0253
     EDDAV:  cpu time  185.5898: real time  186.0298
    --------------------------------------------
      LOOP:  cpu time  185.7828: real time  186.2249

 eigenvalue-minimisations  : 43776
 total energy-change (2. order) : 0.5509912E+04  (-0.1721172E+05)
 number of electron     432.0000000 magnetization      67.5000000
 augmentation part      432.0000000 magnetization      67.5000000

 Free energy of the ion-electron system (eV)
  ---------------------------------------------------
  alpha Z        PSCENC =      1991.78600378
  Ewald energy   TEWEN  =    -35083.27707556
  -Hartree energ DENC   =     -9411.68659728
  -exchange      EXHF   =         0.00000000
  -V(xc)+E(xc)   XCENC  =      1675.11610208
  PAW double counting   =     35307.98069315   -37155.18892105
  entropy T*S    EENTRO =        -0.00706851
  eigenvalues    EBANDS =      7476.71371228
  atomic energy  EATOM  =     40708.47505058
  Solvation  Ediel_sol  =         0.00000000
  ---------------------------------------------------
  free energy    TOTEN  =      5509.91189948 eV

  energy without entropy =     5509.91896799  energy(sigma->0) =     5509.91543373


--------------------------------------------------------------------------------------------------------




--------------------------------------- Iteration      1(   2)  ---------------------------------------


     EDDAV:  cpu time  185.7892: real time  186.2295
    --------------------------------------------
      LOOP:  cpu time  185.7902: real time  186.2305

 eigenvalue-minimisations  : 43776
 total energy-change (2. order) :-0.4652165E+04  (-0.4180058E+04)
 number of electron     432.0000000 magnetization      67.5000000
 augmentation part      432.0000000 magnetization      67.5000000

 Free energy of the ion-electron system (eV)
  ---------------------------------------------------
  alpha Z        PSCENC =      1991.78600378
  Ewald energy   TEWEN  =    -35083.27707556
  -Hartree energ DENC   =     -9411.68659728
  -exchange      EXHF   =         0.00000000
  -V(xc)+E(xc)   XCENC  =      1675.11610208
  PAW double counting   =     35307.98069315   -37155.18892105
  entropy T*S    EENTRO =        -0.02213630
  eigenvalues    EBANDS =      2824.56406159
  atomic energy  EATOM  =     40708.47505058
  Solvation  Ediel_sol  =         0.00000000
  ---------------------------------------------------
  free energy    TOTEN  =       857.74718100 eV

  energy without entropy =      857.76931729  energy(sigma->0) =      857.75824915


--------------------------------------------------------------------------------------------------------




--------------------------------------- Iteration      1(   3)  ---------------------------------------


     EDDAV:  cpu time  188.5449: real time  188.9917
    --------------------------------------------
      LOOP:  cpu time  188.5443: real time  188.9911

 eigenvalue-minimisations  : 44800
 total energy-change (2. order) :-0.1088317E+04  (-0.9680467E+03)
 number of electron     432.0000000 magnetization      67.5000000
 augmentation part      432.0000000 magnetization      67.5000000

 Free energy of the ion-electron system (eV)
  ---------------------------------------------------
  alpha Z        PSCENC =      1991.78600378
  Ewald energy   TEWEN  =    -35083.27707556
  -Hartree energ DENC   =     -9411.68659728
  -exchange      EXHF   =         0.00000000
  -V(xc)+E(xc)   XCENC  =      1675.11610208
  PAW double counting   =     35307.98069315   -37155.18892105
  entropy T*S    EENTRO =        -0.07412776
  eigenvalues    EBANDS =      1736.29924791
  atomic energy  EATOM  =     40708.47505058
  Solvation  Ediel_sol  =         0.00000000
  ---------------------------------------------------
  free energy    TOTEN  =      -230.56962414 eV

  energy without entropy =     -230.49549638  energy(sigma->0) =     -230.53256026


--------------------------------------------------------------------------------------------------------




--------------------------------------- Iteration      1(   4)  ---------------------------------------


     EDDAV:  cpu time  204.0714: real time  204.5550
    --------------------------------------------
      LOOP:  cpu time  204.0713: real time  204.5548

 eigenvalue-minimisations  : 49904
 total energy-change (2. order) :-0.1151393E+03  (-0.1094667E+03)
 number of electron     432.0000000 magnetization      67.5000000
 augmentation part      432.0000000 magnetization      67.5000000

 Free energy of the ion-electron system (eV)
  ---------------------------------------------------
  alpha Z        PSCENC =      1991.78600378
  Ewald energy   TEWEN  =    -35083.27707556
  -Hartree energ DENC   =     -9411.68659728
  -exchange      EXHF   =         0.00000000
  -V(xc)+E(xc)   XCENC  =      1675.11610208
  PAW double counting   =     35307.98069315   -37155.18892105
  entropy T*S    EENTRO =        -0.08325877
  eigenvalues    EBANDS =      1621.16906842
  atomic energy  EATOM  =     40708.47505058
  Solvation  Ediel_sol  =         0.00000000
  ---------------------------------------------------
  free energy    TOTEN  =      -345.70893465 eV

  energy without entropy =     -345.62567588  energy(sigma->0) =     -345.66730526


--------------------------------------------------------------------------------------------------------




--------------------------------------- Iteration      1(   5)  ---------------------------------------


     EDDAV:  cpu time  201.9377: real time  202.4163
    CHARGE:  cpu time    4.7471: real time    4.7583
    MIXING:  cpu time    0.0043: real time    0.0044
    --------------------------------------------
      LOOP:  cpu time  206.6850: real time  207.1748

 eigenvalue-minimisations  : 49280
 total energy-change (2. order) :-0.2649964E+01  (-0.2633798E+01)
 number of electron     432.0000040 magnetization      57.9267062
 augmentation part      173.5369225 magnetization      45.5229032

 Broyden mixing:
  rms(total) = 0.15169E+02    rms(broyden)= 0.15168E+02
  rms(prec ) = 0.16916E+02
  weight for this iteration     100.00

 Free energy of the ion-electron system (eV)
  ---------------------------------------------------
  alpha Z        PSCENC =      1991.78600378
  Ewald energy   TEWEN  =    -35083.27707556
  -Hartree energ DENC   =     -9411.68659728
  -exchange      EXHF   =         0.00000000
  -V(xc)+E(xc)   XCENC  =      1675.11610208
  PAW double counting   =     35307.98069315   -37155.18892105
  entropy T*S    EENTRO =        -0.08297515
  eigenvalues    EBANDS =      1618.51882096
  atomic energy  EATOM  =     40708.47505058
  Solvation  Ediel_sol  =         0.00000000
  ---------------------------------------------------
  free energy    TOTEN  =      -348.35889849 eV

  energy without entropy =     -348.27592333  energy(sigma->0) =     -348.31741091


--------------------------------------------------------------------------------------------------------




--------------------------------------- Iteration      1(   6)  ---------------------------------------


    POTLOK:  cpu time    0.1454: real time    0.1458
    SETDIJ:  cpu time    0.0253: real time    0.0254
     EDDAV:  cpu time  248.2061: real time  248.7943
    CHARGE:  cpu time    4.8022: real time    4.8136
    MIXING:  cpu time    0.0036: real time    0.0037
    --------------------------------------------
      LOOP:  cpu time  253.1827: real time  253.7827

 eigenvalue-minimisations  : 63760
 total energy-change (2. order) :-0.3087519E+01  (-0.3581631E+02)
 number of electron     432.0000038 magnetization      46.2099566
 augmentation part      194.2333640 magnetization      40.4807757

 Broyden mixing:
  rms(total) = 0.14552E+02    rms(broyden)= 0.14551E+02
  rms(prec ) = 0.19004E+02
  weight for this iteration     100.00

 eigenvalues of (default mixing * dielectric matrix)
  average eigenvalue GAMMA=   0.4304
  0.4304

 Free energy of the ion-electron system (eV)
  ---------------------------------------------------
  alpha Z        PSCENC =      1991.78600378
  Ewald energy   TEWEN  =    -35083.27707556
  -Hartree energ DENC   =     -9110.75274724
  -exchange      EXHF   =         0.00000000
  -V(xc)+E(xc)   XCENC  =      1669.76991399
  PAW double counting   =     40950.92151352   -42683.55502689
  entropy T*S    EENTRO =        -0.03721375
  eigenvalues    EBANDS =      1205.22316386
  atomic energy  EATOM  =     40708.47505058
  Solvation  Ediel_sol  =         0.00000000
  ---------------------------------------------------
  free energy    TOTEN  =      -351.44641772 eV

  energy without entropy =     -351.40920397  energy(sigma->0) =     -351.42781084


--------------------------------------------------------------------------------------------------------




--------------------------------------- Iteration      1(   7)  ---------------------------------------


    POTLOK:  cpu time    0.1493: real time    0.1497
    SETDIJ:  cpu time    0.0266: real time    0.0267
     EDDAV:  cpu time  205.7983: real time  206.2861
    CHARGE:  cpu time    4.7552: real time    4.7665
    MIXING:  cpu time    0.0040: real time    0.0040
    --------------------------------------------
      LOOP:  cpu time  210.7333: real time  211.2328

 eigenvalue-minimisations  : 50464
 total energy-change (2. order) :-0.2744719E+01  (-0.3014884E+02)
 number of electron     432.0000036 magnetization      38.2991509
 augmentation part      186.3999528 magnetization      31.6201787

 Broyden mixing:
  rms(total) = 0.17839E+02    rms(broyden)= 0.17839E+02
  rms(prec ) = 0.20863E+02
  weight for this iteration     100.00

 eigenvalues of (default mixing * dielectric matrix)
  average eigenvalue GAMMA=   0.3592
  0.5468  0.1716

 Free energy of the ion-electron system (eV)
  ---------------------------------------------------
  alpha Z        PSCENC =      1991.78600378
  Ewald energy   TEWEN  =    -35083.27707556
  -Hartree energ DENC   =     -9180.48995303
  -exchange      EXHF   =         0.00000000
  -V(xc)+E(xc)   XCENC  =      1662.78459253
  PAW double counting   =     43045.37495642   -44886.56996002
  entropy T*S    EENTRO =        -0.05376370
  eigenvalues    EBANDS =      1387.77901188
  atomic energy  EATOM  =     40708.47505058
  Solvation  Ediel_sol  =         0.00000000
  ---------------------------------------------------
  free energy    TOTEN  =      -354.19113712 eV

  energy without entropy =     -354.13737342  energy(sigma->0) =     -354.16425527


--------------------------------------------------------------------------------------------------------




--------------------------------------- Iteration      1(   8)  ---------------------------------------


    POTLOK:  cpu time    0.1471: real time    0.1474
    SETDIJ:  cpu time    0.0252: real time    0.0252
     EDDAV:  cpu time  237.1340: real time  237.6960
    CHARGE:  cpu time    4.9407: real time    4.9525
    MIXING:  cpu time    0.0045: real time    0.0045
    --------------------------------------------
      LOOP:  cpu time  242.2514: real time  242.8256

 eigenvalue-minimisations  : 60320
 total energy-change (2. order) : 0.1913334E+02  (-0.1443322E+02)
 number of electron     432.0000042 magnetization      33.0129178
 augmentation part      183.1865838 magnetization      26.5010520

 Broyden mixing:
  rms(total) = 0.12800E+02    rms(broyden)= 0.12800E+02
  rms(prec ) = 0.16186E+02
  weight for this iteration     100.00

 eigenvalues of (default mixing * dielectric matrix)
  average eigenvalue GAMMA=   0.4400
  0.6210  0.3744  0.3245

 Free energy of the ion-electron system (eV)
  ---------------------------------------------------
  alpha Z        PSCENC =      1991.78600378
  Ewald energy   TEWEN  =    -35083.27707556
  -Hartree energ DENC   =     -9233.10913918
  -exchange      EXHF   =         0.00000000
  -V(xc)+E(xc)   XCENC  =      1661.14092947
  PAW double counting   =     44927.86354574   -46835.32898990
  entropy T*S    EENTRO =        -0.06295502
  eigenvalues    EBANDS =      1527.45483660
  atomic energy  EATOM  =     40708.47505058
  Solvation  Ediel_sol  =         0.00000000
  ---------------------------------------------------
  free energy    TOTEN  =      -335.05779350 eV

  energy without entropy =     -334.99483848  energy(sigma->0) =     -335.02631599


--------------------------------------------------------------------------------------------------------




--------------------------------------- Iteration      1(   9)  ---------------------------------------


    POTLOK:  cpu time    0.1494: real time    0.1498
    SETDIJ:  cpu time    0.0262: real time    0.0263
     EDDAV:  cpu time  216.3793: real time  216.8921
    CHARGE:  cpu time    4.8651: real time    4.8766
    MIXING:  cpu time    0.0046: real time    0.0046
    --------------------------------------------
      LOOP:  cpu time  221.4247: real time  221.9494

 eigenvalue-minimisations  : 53456
 total energy-change (2. order) :-0.2481423E+02  (-0.1539071E+02)
 number of electron     432.0000035 magnetization      18.3367212
 augmentation part      181.3795147 magnetization      13.9098762

 Broyden mixing:
  rms(total) = 0.14008E+02    rms(broyden)= 0.14008E+02
  rms(prec ) = 0.22011E+02
  weight for this iteration     100.00

 eigenvalues of (default mixing * dielectric matrix)
  average eigenvalue GAMMA=   0.6102
  1.4045  0.6166  0.2988  0.1208

 Free energy of the ion-electron system (eV)
  ---------------------------------------------------
  alpha Z        PSCENC =      1991.78600378
  Ewald energy   TEWEN  =    -35083.27707556
  -Hartree energ DENC   =     -9233.32066846
  -exchange      EXHF   =         0.00000000
  -V(xc)+E(xc)   XCENC  =      1659.80869977
  PAW double counting   =     46242.66659166   -48177.82214226
  entropy T*S    EENTRO =        -0.05458322
  eigenvalues    EBANDS =      1531.86609576
  atomic energy  EATOM  =     40708.47505058
  Solvation  Ediel_sol  =         0.00000000
  ---------------------------------------------------
  free energy    TOTEN  =      -359.87202795 eV

  energy without entropy =     -359.81744473  energy(sigma->0) =     -359.84473634


--------------------------------------------------------------------------------------------------------




--------------------------------------- Iteration      1(  10)  ---------------------------------------


    POTLOK:  cpu time    0.1482: real time    0.1485
    SETDIJ:  cpu time    0.0261: real time    0.0261
     EDDAV:  cpu time  210.0015: real time  210.4993
    CHARGE:  cpu time    4.8197: real time    4.8312
    MIXING:  cpu time    0.0045: real time    0.0045
    --------------------------------------------
      LOOP:  cpu time  215.0000: real time  215.5096

 eigenvalue-minimisations  : 51520
 total energy-change (2. order) :-0.7259560E+02  (-0.1573391E+02)
 number of electron     432.0000033 magnetization      12.2258901
 augmentation part      181.5585906 magnetization       9.8445924

 Broyden mixing:
  rms(total) = 0.14722E+02    rms(broyden)= 0.14722E+02
  rms(prec ) = 0.23654E+02
  weight for this iteration     100.00

 eigenvalues of (default mixing * dielectric matrix)
  average eigenvalue GAMMA=   0.5647
  1.6672  0.5786  0.2700  0.1905  0.1172

 Free energy of the ion-electron system (eV)
  ---------------------------------------------------
  alpha Z        PSCENC =      1991.78600378
  Ewald energy   TEWEN  =    -35083.27707556
  -Hartree energ DENC   =     -9199.95522531
  -exchange      EXHF   =         0.00000000
  -V(xc)+E(xc)   XCENC  =      1656.88985784
  PAW double counting   =     49367.03832965   -51341.04132716
  entropy T*S    EENTRO =        -0.04007512
  eigenvalues    EBANDS =      1467.65682979
  atomic energy  EATOM  =     40708.47505058
  Solvation  Ediel_sol  =         0.00000000
  ---------------------------------------------------
  free energy    TOTEN  =      -432.46763151 eV

  energy without entropy =     -432.42755639  energy(sigma->0) =     -432.44759395


--------------------------------------------------------------------------------------------------------




--------------------------------------- Iteration      1(  11)  ---------------------------------------


    POTLOK:  cpu time    0.1475: real time    0.1479
    SETDIJ:  cpu time    0.0260: real time    0.0260
     EDDAV:  cpu time  235.3457: real time  235.9030
    CHARGE:  cpu time    4.7986: real time    4.8100
    MIXING:  cpu time    0.0051: real time    0.0051
    --------------------------------------------
      LOOP:  cpu time  240.3228: real time  240.8919

 eigenvalue-minimisations  : 59648
 total energy-change (2. order) : 0.6845052E+02  (-0.2069119E+02)
 number of electron     432.0000038 magnetization       9.4868988
 augmentation part      183.0514725 magnetization       7.8469815

 Broyden mixing:
  rms(total) = 0.10582E+02    rms(broyden)= 0.10581E+02
  rms(prec ) = 0.16997E+02
  weight for this iteration     100.00

 eigenvalues of (default mixing * dielectric matrix)
  average eigenvalue GAMMA=   0.5262
  1.7816  0.5686  0.2706  0.2706  0.1520  0.1137

 Free energy of the ion-electron system (eV)
  ---------------------------------------------------
  alpha Z        PSCENC =      1991.78600378
  Ewald energy   TEWEN  =    -35083.27707556
  -Hartree energ DENC   =     -9181.79243540
  -exchange      EXHF   =         0.00000000
  -V(xc)+E(xc)   XCENC  =      1655.94906644
  PAW double counting   =     50644.77019916   -52637.53324561
  entropy T*S    EENTRO =        -0.05526842
  eigenvalues    EBANDS =      1537.66059261
  atomic energy  EATOM  =     40708.47505058
  Solvation  Ediel_sol  =         0.00000000
  ---------------------------------------------------
  free energy    TOTEN  =      -364.01711241 eV

  energy without entropy =     -363.96184399  energy(sigma->0) =     -363.98947820


--------------------------------------------------------------------------------------------------------




--------------------------------------- Iteration      1(  12)  ---------------------------------------


    POTLOK:  cpu time    0.1506: real time    0.1510
    SETDIJ:  cpu time    0.0266: real time    0.0266
     EDDAV:  cpu time  213.1607: real time  213.6659
    CHARGE:  cpu time    4.8446: real time    4.8561
    MIXING:  cpu time    0.0050: real time    0.0050
    --------------------------------------------
      LOOP:  cpu time  218.1875: real time  218.7046

 eigenvalue-minimisations  : 52704
 total energy-change (2. order) : 0.4245149E+02  (-0.8390933E+01)
 number of electron     432.0000039 magnetization       8.3059798
 augmentation part      185.5017749 magnetization       7.1011932

 Broyden mixing:
  rms(total) = 0.69210E+01    rms(broyden)= 0.69202E+01
  rms(prec ) = 0.10380E+02
  weight for this iteration     100.00

 eigenvalues of (default mixing * dielectric matrix)
  average eigenvalue GAMMA=   0.5012
  1.6933  0.6596  0.3550  0.3550  0.2224  0.1116  0.1116

 Free energy of the ion-electron system (eV)
  ---------------------------------------------------
  alpha Z        PSCENC =      1991.78600378
  Ewald energy   TEWEN  =    -35083.27707556
  -Hartree energ DENC   =     -9167.82604095
  -exchange      EXHF   =         0.00000000
  -V(xc)+E(xc)   XCENC  =      1655.05663114
  PAW double counting   =     51207.15734122   -53207.94043621
  entropy T*S    EENTRO =        -0.05561928
  eigenvalues    EBANDS =      1575.05852590
  atomic energy  EATOM  =     40708.47505058
  Solvation  Ediel_sol  =         0.00000000
  ---------------------------------------------------
  free energy    TOTEN  =      -321.56561938 eV

  energy without entropy =     -321.51000010  energy(sigma->0) =     -321.53780974


--------------------------------------------------------------------------------------------------------




--------------------------------------- Iteration      1(  13)  ---------------------------------------


    POTLOK:  cpu time    0.1485: real time    0.1488
    SETDIJ:  cpu time    0.0268: real time    0.0268
     EDDAV:  cpu time  208.1808: real time  208.6741
    CHARGE:  cpu time    4.8357: real time    4.8472
    MIXING:  cpu time    0.0048: real time    0.0048
    --------------------------------------------
      LOOP:  cpu time  213.1966: real time  213.7018

 eigenvalue-minimisations  : 51104
 total energy-change (2. order) : 0.3297601E+01  (-0.9760562E+01)
 number of electron     432.0000030 magnetization       7.7007527
 augmentation part      184.2501920 magnetization       6.9844768

 Broyden mixing:
  rms(total) = 0.91556E+01    rms(broyden)= 0.91550E+01
  rms(prec ) = 0.15736E+02
  weight for this iteration     100.00

 eigenvalues of (default mixing * dielectric matrix)
  average eigenvalue GAMMA=   0.4705
  1.6882  0.6876  0.3895  0.3895  0.2718  0.1182  0.1095  0.1095

 Free energy of the ion-electron system (eV)
  ---------------------------------------------------
  alpha Z        PSCENC =      1991.78600378
  Ewald energy   TEWEN  =    -35083.27707556
  -Hartree energ DENC   =     -9154.52764093
  -exchange      EXHF   =         0.00000000
  -V(xc)+E(xc)   XCENC  =      1653.86681768
  PAW double counting   =     51334.94340312   -53334.84677945
  entropy T*S    EENTRO =        -0.04903782
  eigenvalues    EBANDS =      1565.36124046
  atomic energy  EATOM  =     40708.47505058
  Solvation  Ediel_sol  =         0.00000000
  ---------------------------------------------------
  free energy    TOTEN  =      -318.26801813 eV

  energy without entropy =     -318.21898032  energy(sigma->0) =     -318.24349922


--------------------------------------------------------------------------------------------------------




--------------------------------------- Iteration      1(  14)  ---------------------------------------


    POTLOK:  cpu time    0.1496: real time    0.1500
    SETDIJ:  cpu time    0.0265: real time    0.0265
     EDDAV:  cpu time  237.0321: real time  237.5937
    CHARGE:  cpu time    4.8485: real time    4.8601
    MIXING:  cpu time    0.0053: real time    0.0053
    --------------------------------------------
      LOOP:  cpu time  242.0620: real time  242.6355

 eigenvalue-minimisations  : 60080
 total energy-change (2. order) : 0.1314841E+02  (-0.1136470E+02)
 number of electron     432.0000042 magnetization       7.4635682
 augmentation part      184.5818544 magnetization       6.4927057

 Broyden mixing:
  rms(total) = 0.74831E+01    rms(broyden)= 0.74826E+01
  rms(prec ) = 0.12943E+02
  weight for this iteration     100.00

 eigenvalues of (default mixing * dielectric matrix)
  average eigenvalue GAMMA=   0.4382
  1.6619  0.7001  0.4016  0.4016  0.3299  0.1232  0.1232  0.1114  0.0908

 Free energy of the ion-electron system (eV)
  ---------------------------------------------------
  alpha Z        PSCENC =      1991.78600378
  Ewald energy   TEWEN  =    -35083.27707556
  -Hartree energ DENC   =     -9149.66515005
  -exchange      EXHF   =         0.00000000
  -V(xc)+E(xc)   XCENC  =      1653.39642034
  PAW double counting   =     51355.47817638   -53354.00638337
  entropy T*S    EENTRO =        -0.06093354
  eigenvalues    EBANDS =      1572.75428135
  atomic energy  EATOM  =     40708.47505058
  Solvation  Ediel_sol  =         0.00000000
  ---------------------------------------------------
  free energy    TOTEN  =      -305.11961009 eV

  energy without entropy =     -305.05867655  energy(sigma->0) =     -305.08914332


--------------------------------------------------------------------------------------------------------




--------------------------------------- Iteration      1(  15)  ---------------------------------------


    POTLOK:  cpu time    0.1490: real time    0.1494
    SETDIJ:  cpu time    0.0264: real time    0.0265
     EDDAV:  cpu time  230.1090: real time  230.6543
    CHARGE:  cpu time    4.8916: real time    4.9032
    MIXING:  cpu time    0.0058: real time    0.0058
    --------------------------------------------
      LOOP:  cpu time  235.1819: real time  235.7392

 eigenvalue-minimisations  : 57936
 total energy-change (2. order) : 0.1451773E+02  (-0.9420786E+01)
 number of electron     432.0000038 magnetization       7.4428881
 augmentation part      185.0498972 magnetization       6.2939696

 Broyden mixing:
  rms(total) = 0.41408E+01    rms(broyden)= 0.41401E+01
  rms(prec ) = 0.65960E+01
  weight for this iteration     100.00

 eigenvalues of (default mixing * dielectric matrix)
  average eigenvalue GAMMA=   0.4144
  1.6212  0.7100  0.4049  0.4049  0.3608  0.1853  0.1466  0.1147  0.1147  0.0807

 Free energy of the ion-electron system (eV)
  ---------------------------------------------------
  alpha Z        PSCENC =      1991.78600378
  Ewald energy   TEWEN  =    -35083.27707556
  -Hartree energ DENC   =     -9152.55625055
  -exchange      EXHF   =         0.00000000
  -V(xc)+E(xc)   XCENC  =      1653.18829419
  PAW double counting   =     51291.50866075   -53288.37606578
  entropy T*S    EENTRO =        -0.06112013
  eigenvalues    EBANDS =      1588.71062619
  atomic energy  EATOM  =     40708.47505058
  Solvation  Ediel_sol  =         0.00000000
  ---------------------------------------------------
  free energy    TOTEN  =      -290.60187653 eV

  energy without entropy =     -290.54075640  energy(sigma->0) =     -290.57131646


--------------------------------------------------------------------------------------------------------




--------------------------------------- Iteration      1(  16)  ---------------------------------------


    POTLOK:  cpu time    0.1492: real time    0.1496
    SETDIJ:  cpu time    0.0268: real time    0.0269
     EDDAV:  cpu time  224.6489: real time  225.1812
    CHARGE:  cpu time    4.8329: real time    4.8444
    MIXING:  cpu time    0.0057: real time    0.0057
    --------------------------------------------
      LOOP:  cpu time  229.6636: real time  230.2078

 eigenvalue-minimisations  : 56016
 total energy-change (2. order) : 0.5330170E+01  (-0.1842137E+01)
 number of electron     432.0000037 magnetization       7.4674774
 augmentation part      185.1745101 magnetization       6.3081220

 Broyden mixing:
  rms(total) = 0.25236E+01    rms(broyden)= 0.25231E+01
  rms(prec ) = 0.37748E+01
  weight for this iteration     100.00

 eigenvalues of (default mixing * dielectric matrix)
  average eigenvalue GAMMA=   0.4057
  1.4833  0.7404  0.4522  0.4522  0.3784  0.3784  0.1305  0.1305  0.1164  0.1164
  0.0839

 Free energy of the ion-electron system (eV)
  ---------------------------------------------------
  alpha Z        PSCENC =      1991.78600378
  Ewald energy   TEWEN  =    -35083.27707556
  -Hartree energ DENC   =     -9154.52182639
  -exchange      EXHF   =         0.00000000
  -V(xc)+E(xc)   XCENC  =      1653.15304220
  PAW double counting   =     51220.75864883   -53215.50540851
  entropy T*S    EENTRO =        -0.05808009
  eigenvalues    EBANDS =      1593.91793818
  atomic energy  EATOM  =     40708.47505058
  Solvation  Ediel_sol  =         0.00000000
  ---------------------------------------------------
  free energy    TOTEN  =      -285.27170698 eV

  energy without entropy =     -285.21362689  energy(sigma->0) =     -285.24266694


--------------------------------------------------------------------------------------------------------




--------------------------------------- Iteration      1(  17)  ---------------------------------------


    POTLOK:  cpu time    0.1487: real time    0.1491
    SETDIJ:  cpu time    0.0268: real time    0.0269
     EDDAV:  cpu time  222.1677: real time  222.6944
    CHARGE:  cpu time    4.8818: real time    4.8934
    MIXING:  cpu time    0.0061: real time    0.0061
    --------------------------------------------
      LOOP:  cpu time  227.2312: real time  227.7699

 eigenvalue-minimisations  : 55248
 total energy-change (2. order) : 0.8428308E+00  (-0.1016270E+01)
 number of electron     432.0000038 magnetization       7.1453786
 augmentation part      185.0110450 magnetization       5.9692507

 Broyden mixing:
  rms(total) = 0.23371E+01    rms(broyden)= 0.23368E+01
  rms(prec ) = 0.32721E+01
  weight for this iteration     100.00

 eigenvalues of (default mixing * dielectric matrix)
  average eigenvalue GAMMA=   0.4104
  1.3963  0.6597  0.6597  0.6731  0.3889  0.3889  0.2040  0.1242  0.1242  0.1118
  0.1118  0.0826

 Free energy of the ion-electron system (eV)
  ---------------------------------------------------
  alpha Z        PSCENC =      1991.78600378
  Ewald energy   TEWEN  =    -35083.27707556
  -Hartree energ DENC   =     -9161.04175737
  -exchange      EXHF   =         0.00000000
  -V(xc)+E(xc)   XCENC  =      1653.17302462
  PAW double counting   =     51114.93739344   -53105.44977950
  entropy T*S    EENTRO =        -0.06000769
  eigenvalues    EBANDS =      1597.02827148
  atomic energy  EATOM  =     40708.47505058
  Solvation  Ediel_sol  =         0.00000000
  ---------------------------------------------------
  free energy    TOTEN  =      -284.42887621 eV

  energy without entropy =     -284.36886853  energy(sigma->0) =     -284.39887237


--------------------------------------------------------------------------------------------------------




--------------------------------------- Iteration      1(  18)  ---------------------------------------


    POTLOK:  cpu time    0.1479: real time    0.1483
    SETDIJ:  cpu time    0.0263: real time    0.0264
     EDDAV:  cpu time  222.5679: real time  223.0954
    CHARGE:  cpu time    4.8493: real time    4.8608
    MIXING:  cpu time    0.0060: real time    0.0061
    --------------------------------------------
      LOOP:  cpu time  227.5974: real time  228.1369

 eigenvalue-minimisations  : 54880
 total energy-change (2. order) :-0.3172571E+00  (-0.8199340E+00)
 number of electron     432.0000038 magnetization       6.5434126
 augmentation part      184.7548398 magnetization       5.2076549

 Broyden mixing:
  rms(total) = 0.22614E+01    rms(broyden)= 0.22610E+01
  rms(prec ) = 0.35238E+01
  weight for this iteration     100.00

 eigenvalues of (default mixing * dielectric matrix)
  average eigenvalue GAMMA=   0.4241
  1.3486  0.9032  0.9032  0.6297  0.3949  0.3949  0.2564  0.1321  0.1321  0.1169
  0.1169  0.1011  0.0833

 Free energy of the ion-electron system (eV)
  ---------------------------------------------------
  alpha Z        PSCENC =      1991.78600378
  Ewald energy   TEWEN  =    -35083.27707556
  -Hartree energ DENC   =     -9162.80946231
  -exchange      EXHF   =         0.00000000
  -V(xc)+E(xc)   XCENC  =      1653.16477983
  PAW double counting   =     51117.81594480   -53104.68401601
  entropy T*S    EENTRO =        -0.06016048
  eigenvalues    EBANDS =      1594.84280207
  atomic energy  EATOM  =     40708.47505058
  Solvation  Ediel_sol  =         0.00000000
  ---------------------------------------------------
  free energy    TOTEN  =      -284.74613329 eV

  energy without entropy =     -284.68597282  energy(sigma->0) =     -284.71605306


--------------------------------------------------------------------------------------------------------




--------------------------------------- Iteration      1(  19)  ---------------------------------------


    POTLOK:  cpu time    0.1466: real time    0.1469
    SETDIJ:  cpu time    0.0252: real time    0.0253
     EDDAV:  cpu time  222.2818: real time  222.8086
    CHARGE:  cpu time    4.9227: real time    4.9344
    MIXING:  cpu time    0.0067: real time    0.0067
    --------------------------------------------
      LOOP:  cpu time  227.3831: real time  227.9219

 eigenvalue-minimisations  : 54128
 total energy-change (2. order) :-0.3132789E+00  (-0.7907574E+00)
 number of electron     432.0000039 magnetization       5.9437351
 augmentation part      184.6642633 magnetization       4.5986621

 Broyden mixing:
  rms(total) = 0.21201E+01    rms(broyden)= 0.21197E+01
  rms(prec ) = 0.35733E+01
  weight for this iteration     100.00

 eigenvalues of (default mixing * dielectric matrix)
  average eigenvalue GAMMA=   0.4483
  1.3500  1.1527  1.1527  0.6084  0.4073  0.4073  0.3596  0.1827  0.1248  0.1248
  0.1161  0.1087  0.0830  0.0978

 Free energy of the ion-electron system (eV)
  ---------------------------------------------------
  alpha Z        PSCENC =      1991.78600378
  Ewald energy   TEWEN  =    -35083.27707556
  -Hartree energ DENC   =     -9162.85780599
  -exchange      EXHF   =         0.00000000
  -V(xc)+E(xc)   XCENC  =      1653.16311598
  PAW double counting   =     51219.67630582   -53202.64637569
  entropy T*S    EENTRO =        -0.05959431
  eigenvalues    EBANDS =      1590.68096320
  atomic energy  EATOM  =     40708.47505058
  Solvation  Ediel_sol  =         0.00000000
  ---------------------------------------------------
  free energy    TOTEN  =      -285.05941218 eV

  energy without entropy =     -284.99981787  energy(sigma->0) =     -285.02961503


--------------------------------------------------------------------------------------------------------




--------------------------------------- Iteration      1(  20)  ---------------------------------------


    POTLOK:  cpu time    0.1465: real time    0.1469
    SETDIJ:  cpu time    0.0253: real time    0.0253
     EDDAV:  cpu time  233.0787: real time  233.6309
    CHARGE:  cpu time    4.8176: real time    4.8291
    MIXING:  cpu time    0.0067: real time    0.0067
    --------------------------------------------
      LOOP:  cpu time  238.0749: real time  238.6389

 eigenvalue-minimisations  : 57616
 total energy-change (2. order) : 0.1250463E+00  (-0.6590622E+00)
 number of electron     432.0000038 magnetization       5.0339763
 augmentation part      184.6286957 magnetization       3.8655948

 Broyden mixing:
  rms(total) = 0.20474E+01    rms(broyden)= 0.20471E+01
  rms(prec ) = 0.34660E+01
  weight for this iteration     100.00

 eigenvalues of (default mixing * dielectric matrix)
  average eigenvalue GAMMA=   0.4620
  1.4635  1.3044  1.3044  0.6134  0.4544  0.4080  0.4080  0.2091  0.1258  0.1258
  0.1156  0.1156  0.1145  0.0829  0.0848

 Free energy of the ion-electron system (eV)
  ---------------------------------------------------
  alpha Z        PSCENC =      1991.78600378
  Ewald energy   TEWEN  =    -35083.27707556
  -Hartree energ DENC   =     -9165.06488719
  -exchange      EXHF   =         0.00000000
  -V(xc)+E(xc)   XCENC  =      1653.21743108
  PAW double counting   =     51337.93500588   -53317.19386610
  entropy T*S    EENTRO =        -0.06121129
  eigenvalues    EBANDS =      1589.24918298
  atomic energy  EATOM  =     40708.47505058
  Solvation  Ediel_sol  =         0.00000000
  ---------------------------------------------------
  free energy    TOTEN  =      -284.93436585 eV

  energy without entropy =     -284.87315456  energy(sigma->0) =     -284.90376021


--------------------------------------------------------------------------------------------------------




--------------------------------------- Iteration      1(  21)  ---------------------------------------


    POTLOK:  cpu time    0.1473: real time    0.1477
    SETDIJ:  cpu time    0.0258: real time    0.0259
     EDDAV:  cpu time  228.8148: real time  229.3571
    CHARGE:  cpu time    4.8489: real time    4.8604
    MIXING:  cpu time    0.0073: real time    0.0073
    --------------------------------------------
      LOOP:  cpu time  233.8442: real time  234.3985

 eigenvalue-minimisations  : 56592
 total energy-change (2. order) : 0.1242528E+01  (-0.5011215E+00)
 number of electron     432.0000038 magnetization       4.5848190
 augmentation part      184.7538525 magnetization       3.5116475

 Broyden mixing:
  rms(total) = 0.10378E+01    rms(broyden)= 0.10373E+01
  rms(prec ) = 0.16215E+01
  weight for this iteration     100.00

 eigenvalues of (default mixing * dielectric matrix)
  average eigenvalue GAMMA=   0.4773
  1.6239  1.3943  1.3943  0.6208  0.5114  0.4058  0.4058  0.3390  0.1858  0.1259
  0.1259  0.1178  0.1178  0.1047  0.0837  0.0800

 Free energy of the ion-electron system (eV)
  ---------------------------------------------------
  alpha Z        PSCENC =      1991.78600378
  Ewald energy   TEWEN  =    -35083.27707556
  -Hartree energ DENC   =     -9167.80283080
  -exchange      EXHF   =         0.00000000
  -V(xc)+E(xc)   XCENC  =      1653.34797853
  PAW double counting   =     51515.41738800   -53489.91595726
  entropy T*S    EENTRO =        -0.05857502
  eigenvalues    EBANDS =      1588.33617983
  atomic energy  EATOM  =     40708.47505058
  Solvation  Ediel_sol  =         0.00000000
  ---------------------------------------------------
  free energy    TOTEN  =      -283.69183793 eV

  energy without entropy =     -283.63326291  energy(sigma->0) =     -283.66255042


--------------------------------------------------------------------------------------------------------




--------------------------------------- Iteration      1(  22)  ---------------------------------------


    POTLOK:  cpu time    0.1322: real time    0.1325
    SETDIJ:  cpu time    0.0242: real time    0.0243
     EDDAV:  cpu time  225.3809: real time  225.9151
    CHARGE:  cpu time    4.8016: real time    4.8130
    MIXING:  cpu time    0.0063: real time    0.0063
    --------------------------------------------
      LOOP:  cpu time  230.3452: real time  230.8911

 eigenvalue-minimisations  : 55360
 total energy-change (2. order) : 0.1605862E+00  (-0.2075120E+00)
 number of electron     432.0000039 magnetization       3.8074344
 augmentation part      184.7798945 magnetization       2.8103534

 Broyden mixing:
  rms(total) = 0.91297E+00    rms(broyden)= 0.91274E+00
  rms(prec ) = 0.14162E+01
  weight for this iteration     100.00

 eigenvalues of (default mixing * dielectric matrix)
  average eigenvalue GAMMA=   0.4890
  1.8858  1.4418  1.4418  0.6633  0.5604  0.4122  0.4122  0.4295  0.1933  0.1261
  0.1261  0.1225  0.1225  0.1062  0.1062  0.0832  0.0796

 Free energy of the ion-electron system (eV)
  ---------------------------------------------------
  alpha Z        PSCENC =      1991.78600378
  Ewald energy   TEWEN  =    -35083.27707556
  -Hartree energ DENC   =     -9169.21646912
  -exchange      EXHF   =         0.00000000
  -V(xc)+E(xc)   XCENC  =      1653.40459053
  PAW double counting   =     51602.55098888   -53575.28719493
  entropy T*S    EENTRO =        -0.06135712
  eigenvalues    EBANDS =      1588.09421117
  atomic energy  EATOM  =     40708.47505058
  Solvation  Ediel_sol  =         0.00000000
  ---------------------------------------------------
  free energy    TOTEN  =      -283.53125178 eV

  energy without entropy =     -283.46989467  energy(sigma->0) =     -283.50057322


--------------------------------------------------------------------------------------------------------




--------------------------------------- Iteration      1(  23)  ---------------------------------------


    POTLOK:  cpu time    0.1480: real time    0.1483
    SETDIJ:  cpu time    0.0254: real time    0.0255
     EDDAV:  cpu time  229.9676: real time  230.5124
    CHARGE:  cpu time    4.8210: real time    4.8324
    MIXING:  cpu time    0.0073: real time    0.0074
    --------------------------------------------
[...]
  in kB      837.7710907    660.6345882    749.5838967    -13.1844221   -152.8915369    -41.7351637
  external PRESSURE =     749.3298585 kB  Pullay stress =       0.0000000 kB


 VOLUME and BASIS-vectors are now :
 -----------------------------------------------------------------------------
  energy-cutoff  :      500.00
  volume of cell :      434.28
      direct lattice vectors                 reciprocal lattice vectors
     8.504359500  0.000000000  0.000000000     0.117586751  0.067888742  0.000000000
    -4.252179750  7.364991370  0.000000000     0.000000000  0.135777484  0.000000000
     0.000000000  0.000000000  6.933488250     0.000000000  0.000000000  0.144227547

  length of vectors
     8.504359500  8.504359500  6.933488250     0.135777484  0.135777484  0.144227547


 FORCES acting on ions
    electron-ion (+dipol)            ewald-force                    non-local-force                 convergence-correction
 -----------------------------------------------------------------------------------------------
   0.126E+03 -.161E+03 -.142E+03   -.127E+03 0.166E+03 0.148E+03   -.125E+01 -.149E+01 -.261E+01   -.245E-01 -.188E+00 -.146E+00
   -.197E+03 -.125E+03 -.122E+03   0.200E+03 0.126E+03 0.122E+03   -.524E+00 0.270E+00 0.254E+01   0.580E-01 -.138E+00 0.119E+00
   0.516E+02 0.127E+03 0.311E+02   -.525E+02 -.127E+03 -.298E+02   -.811E+00 -.189E+01 -.136E+01   0.125E-01 -.135E+00 -.100E+00
   -.411E+02 -.192E+03 0.910E+02   0.462E+02 0.196E+03 -.926E+02   -.145E+01 0.920E+00 -.238E+01   -.471E-01 0.235E-03 -.653E-01
   -.864E+02 -.268E+02 0.111E+03   0.860E+02 0.246E+02 -.112E+03   0.324E+00 0.172E+01 -.483E-01   0.171E-02 0.124E+00 0.147E+00
   -.552E+02 -.111E+03 0.150E+03   0.561E+02 0.110E+03 -.151E+03   -.466E+00 0.180E+01 -.130E+01   -.502E-01 0.145E+00 -.167E+00
   0.211E+03 0.290E+03 -.355E+03   -.249E+03 -.313E+03 0.389E+03   -.212E+00 0.455E+01 -.515E+01   -.106E+00 0.721E-01 -.141E+00
   0.241E+03 0.425E+02 -.243E+03   -.248E+03 -.464E+02 0.248E+03   0.132E+01 0.134E+01 -.107E+01   -.325E-01 0.265E-01 0.114E+00
   -.307E+03 -.130E+03 0.373E+03   0.317E+03 0.139E+03 -.387E+03   -.252E+01 -.419E+01 0.435E+01   -.141E+00 -.910E-01 -.654E-01
   -.140E+03 -.130E+03 0.154E+03   0.141E+03 0.133E+03 -.155E+03   -.211E-01 -.225E+01 0.924E-01   -.955E-02 -.311E-01 -.201E-01
   0.896E+01 -.191E+03 -.566E+02   -.105E+02 0.195E+03 0.592E+02   0.480E+01 0.302E+00 -.338E+01   -.180E-01 -.193E-01 0.923E-01
   -.236E+03 0.111E+03 0.151E+03   0.242E+03 -.118E+03 -.152E+03   -.141E+01 0.463E+01 -.125E+01   0.544E-01 -.317E-02 -.235E-01
   0.107E+03 0.135E+03 -.331E+02   -.108E+03 -.138E+03 0.329E+02   -.189E+01 -.894E+00 -.215E+01   0.161E+00 0.464E-01 -.549E-01
   0.611E+02 0.460E+02 -.138E+03   -.621E+02 -.443E+02 0.140E+03   0.495E+00 -.199E+01 -.551E+00   0.670E-01 0.944E-01 0.531E-01
   -.994E+02 -.337E+03 0.321E+01   0.103E+03 0.353E+03 0.277E+01   -.137E+01 -.191E+01 -.435E+00   0.973E-01 0.102E+00 -.137E-01
   -.512E+02 0.395E+02 0.222E+02   0.528E+02 -.413E+02 -.235E+02   -.129E+01 0.984E+00 0.115E+01   0.619E-01 0.120E+00 -.556E-01
   -.124E+03 0.202E+03 -.618E+02   0.126E+03 -.207E+03 0.657E+02   0.152E+01 0.286E+01 -.363E+01   0.765E-01 0.147E-01 0.102E+00
   0.119E+03 -.184E+03 0.457E+02   -.119E+03 0.186E+03 -.471E+02   -.261E+01 0.136E+01 -.144E+01   0.314E-01 -.201E-01 -.738E-01
   0.365E+03 -.206E+02 0.387E+03   -.408E+03 0.536E+02 -.433E+03   0.315E+01 -.198E+01 0.418E+01   0.395E-02 -.256E+00 -.661E-01
   -.945E+02 -.106E+03 -.364E+02   0.102E+03 0.115E+03 0.354E+02   0.968E+00 -.429E+01 -.388E+01   -.579E-02 -.207E+00 0.242E+00
   0.997E+02 0.179E+03 -.239E+02   -.102E+03 -.183E+03 0.232E+02   0.174E+01 0.519E+00 -.170E+01   -.388E-01 -.490E-01 -.158E+00
   -.680E+02 0.157E+02 0.711E+02   0.675E+02 -.176E+02 -.730E+02   0.166E+01 0.177E+01 0.616E+00   -.144E+00 0.947E-01 0.567E-02
   0.729E+02 -.931E+02 0.122E+03   -.751E+02 0.951E+02 -.124E+03   -.226E+00 0.666E+00 -.164E+01   -.142E+00 0.125E+00 0.199E+00
   0.268E+03 -.188E+02 -.750E+02   -.273E+03 0.205E+02 0.724E+02   -.111E+01 0.110E+01 0.316E+01   -.684E-01 0.156E+00 -.507E-01
   -.177E+03 -.453E+02 0.103E+03   0.177E+03 0.445E+02 -.104E+03   0.279E+01 0.260E+01 -.119E+01   0.131E+00 0.722E-01 -.954E-01
   0.270E+02 0.749E+02 0.170E+03   -.261E+02 -.783E+02 -.172E+03   -.355E+01 0.343E+01 -.312E+01   -.662E-01 -.447E-01 0.137E+00
   0.258E+03 0.126E+03 -.164E+03   -.264E+03 -.129E+03 0.167E+03   0.487E+00 0.177E+01 0.123E+01   0.102E-01 -.122E+00 0.906E-02
   -.120E+03 -.717E+02 -.630E+01   0.134E+03 0.815E+02 0.749E+01   -.102E+02 -.662E+01 -.366E+01   -.104E+00 -.180E+00 0.196E+00
   -.905E+02 -.413E+02 -.470E+02   0.951E+02 0.485E+02 0.554E+02   -.507E+01 -.588E+01 -.544E+01   0.133E-01 -.259E-01 -.759E-01
   -.752E+02 -.663E+02 0.301E+02   0.669E+02 0.699E+02 -.332E+02   0.936E+01 -.150E+01 0.211E+01   0.121E+00 -.737E-01 0.136E+00
   -.736E+02 0.287E+02 -.263E+02   0.824E+02 -.396E+02 0.293E+02   -.536E+01 0.961E+01 0.147E+00   -.383E-01 0.586E-01 0.880E-01
   0.276E+02 -.139E+02 -.132E+03   -.307E+02 0.135E+02 0.144E+03   0.141E+01 0.368E+00 -.923E+01   0.402E-01 0.121E+00 -.158E+00
   0.437E+02 0.278E+02 0.130E+02   -.515E+02 -.299E+02 -.196E+02   0.850E+01 0.504E+00 0.604E+01   -.415E-01 0.192E+00 0.109E+00
   -.173E+03 -.289E+02 0.314E+02   0.189E+03 0.268E+02 -.285E+02   -.112E+02 0.214E+01 -.371E+00   -.495E-01 0.102E-01 0.434E-01
   -.340E+03 -.993E+02 0.141E+03   0.407E+03 0.120E+03 -.171E+03   -.216E+02 -.771E+01 0.781E+01   -.657E-05 -.276E-01 -.127E+00
   -.331E+02 0.519E+02 -.762E+02   0.371E+02 -.621E+02 0.793E+02   -.292E+01 0.835E+01 -.317E+01   -.191E-01 -.830E-01 0.337E-01
   0.843E+02 0.672E+02 -.104E+03   -.971E+02 -.768E+02 0.112E+03   0.831E+01 0.846E+01 -.384E+01   0.165E-01 -.130E-01 0.417E-01
   0.509E+02 0.870E+02 -.172E+02   -.572E+02 -.893E+02 0.166E+02   0.558E+01 0.116E+01 0.166E+01   -.397E-01 -.161E-01 -.742E-01
   0.189E+02 0.460E+02 -.786E+02   -.243E+02 -.560E+02 0.882E+02   0.652E+01 0.920E+01 -.874E+01   0.350E-01 0.384E-01 0.249E-01
   -.682E+02 0.917E+02 0.256E+03   0.682E+02 -.108E+03 -.283E+03   -.128E+01 0.765E+01 0.166E+02   0.594E-01 -.366E-01 0.232E-01
   -.168E+03 -.479E+02 -.314E+02   0.184E+03 0.505E+02 0.375E+02   -.124E+02 -.157E+01 -.405E+01   0.608E-01 0.653E-01 -.200E-01
   0.773E+02 -.213E+02 -.138E+03   -.898E+02 0.270E+02 0.153E+03   0.101E+02 -.424E+01 -.103E+02   0.107E+00 0.885E-01 -.268E-01
   0.496E+02 -.914E+01 -.756E+02   -.521E+02 0.673E+01 0.824E+02   0.641E+00 0.123E+01 -.527E+01   -.411E-01 0.475E-01 0.646E-01
   -.852E+02 -.411E+02 0.369E+02   0.968E+02 0.411E+02 -.350E+02   -.878E+01 -.209E+01 0.255E+00   0.982E-01 0.862E-02 -.697E-01
   -.440E+02 -.687E+02 0.127E+03   0.573E+02 0.771E+02 -.146E+03   -.103E+02 -.557E+01 0.136E+02   -.154E-02 -.294E-01 0.573E-01
   0.173E+03 0.201E+02 -.200E+03   -.193E+03 -.230E+02 0.221E+03   0.115E+02 0.172E+01 -.120E+02   0.584E-01 -.110E+00 0.116E+00
   0.112E+02 0.524E+02 0.677E+02   -.802E+01 -.564E+02 -.718E+02   -.145E+01 0.529E+01 0.784E+00   0.292E-01 -.279E+00 -.240E+00
   0.193E+03 -.104E+03 -.446E+02   -.206E+03 0.113E+03 0.606E+02   0.609E+01 -.728E+01 -.113E+02   -.194E+00 -.143E+00 0.170E+00
   0.160E+03 0.104E+03 0.491E+02   -.169E+03 -.116E+03 -.522E+02   0.645E+01 0.812E+01 0.899E+00   -.280E-01 0.582E-01 0.835E-02
   0.201E+02 0.157E+02 -.176E+03   -.153E+02 -.145E+02 0.195E+03   -.233E+01 -.154E+01 -.140E+02   -.564E-01 0.142E+00 -.171E+00
   -.975E+01 -.260E+02 0.647E+02   0.169E+02 0.311E+02 -.712E+02   -.676E+01 -.467E+01 0.602E+01   -.898E-01 0.586E-01 0.366E-01
   0.440E+02 0.288E+02 -.388E+01   -.460E+02 -.289E+02 0.533E+01   0.128E+01 -.596E+00 -.150E+01   0.965E-01 0.144E+00 0.716E-01
   0.263E+03 0.160E+03 -.221E+02   -.291E+03 -.177E+03 0.224E+02   0.165E+02 0.119E+02 0.109E+01   -.169E+00 0.248E-01 -.143E+00
   -.245E+03 0.288E+03 -.104E+03   0.304E+03 -.344E+03 0.153E+03   -.203E+02 0.162E+02 -.103E+02   0.353E-01 -.158E+00 -.104E-01
 -----------------------------------------------------------------------------------------------
   0.293E+02 -.541E+02 0.671E+02   0.000E+00 -.284E-12 0.739E-12   -.291E+02 0.544E+02 -.671E+02   -.229E+00 -.227E+00 0.247E-01
 
 
 POSITION                                       TOTAL-FORCE (eV/Angst)
 -----------------------------------------------------------------------------------
     -3.90229      7.30778      6.83658        -2.176757      2.783590      2.723003
      0.92306      0.83765      2.30647         2.513132      1.228296      2.574528
     -0.10733      1.74169      4.82508        -1.650720     -2.792289     -0.136953
      7.04442      2.38123      0.21913         3.561269      5.674511     -4.008317
     -0.06192      3.50238      2.68021        -0.030747     -0.352501     -1.457494
     -1.32775      4.21131      4.88732         0.370043      0.647626     -1.808445
     -2.84822      5.31647      6.62412       -38.821946    -17.850290     28.660129
     -1.19464      5.82777      2.12393        -5.885799     -2.536190      3.532384
     -2.94197      6.73290      4.95438         7.712013      4.049982     -9.577575
      2.98649      0.02457      0.24182         0.738413      1.215139     -1.612270
      4.19264      0.81093      2.44747         3.237754      4.138622     -0.640941
      2.59195      1.94080      4.58230         4.611458     -2.167973     -2.316950
      1.57246      2.59202      0.26908        -3.114294     -3.785575     -2.333742
      3.11072      3.47628      2.23384        -0.489847     -0.190718      1.836186
      1.31097      3.81495      4.87833         2.532764     14.091863      5.527852
     -0.10466      4.98566      0.25825         0.377949     -0.692411     -0.268635
      1.26092      5.88958      2.42472         3.587692     -2.544916      0.322477
      0.17169      6.46172      4.96384        -3.175974      3.916659     -2.919694
      2.00317      7.35758      0.38658       -38.995864     30.755909    -42.354853
      6.86998      0.42950      2.54381         8.416179      4.302472     -4.648565
      5.76258      1.79441      4.84418        -0.477086     -3.759773     -2.602316
      4.27637      2.49134      0.33184         1.029050     -0.042177     -1.256281
      5.89070      3.26431      2.40117        -2.574648      2.823182     -3.699367
      4.51444      3.99780      4.68800        -6.050129      2.952215      0.544044
      2.64800      4.89292      0.10290         2.764084      1.896487     -2.199852
      4.41275      5.77588      2.47140        -2.768424      0.069528     -5.332752
      3.09524      6.57953      4.63470        -5.334154     -2.279099      4.315391
      4.03906      7.18774      3.46049         4.102591      3.015003     -2.271347
      1.59166      0.95155      5.66492        -0.426266      1.254112      2.828718
     -0.22389      1.82598      1.50016         1.192884      2.054800     -0.781392
      6.92212      2.48230      3.44084         3.374973     -1.246612      3.253395
     -0.04088      3.25993      5.88888        -1.666897      0.076701      3.478952
     -1.52987      4.21441      1.19797         0.648220     -1.315058     -0.376619
      5.38454      5.07939      3.57920         5.190518      0.046522      2.591713
     -1.79059      5.63807      6.04606        44.805039     12.795293    -22.525127
     -2.76837      6.93207      1.29200         1.114116     -1.965361     -0.082166
      2.89309      0.43133      3.38975        -4.464694     -1.200383      3.746086
      4.25538      1.15165      5.71000        -0.796705     -1.112559      0.955227
      2.82103      1.78183      1.27631         1.072768     -0.792729      0.871923
      1.08912      2.69374      3.92491        -1.161737     -9.156671    -10.635298
      2.69520      3.22033      5.83079         3.286647      1.098236      2.004334
      1.61974      4.02394      1.15913        -2.334755      1.571456      4.284192
      0.08691      5.21077      3.56997        -1.841894     -1.139484      1.576124
      1.12596      5.74576      6.08959         2.914516     -2.014165      2.113337
      0.00732      6.70479      1.54354         2.995018      2.777637     -4.629645
      5.79710      0.13643      3.58578        -8.291101     -1.253179      9.013057
      6.96227      0.88308      5.96317         1.750800      0.999456     -3.542530
      6.18153      1.45283      1.18863        -7.673940      1.859237      4.783965
      4.66970      2.68915      3.54667        -2.500977     -3.024177     -2.199151
      5.71948      3.32641      5.61582         2.404311     -0.182737      4.681524
      4.54982      4.26484      1.21289         0.331171      0.500510     -0.393356
      2.73352      4.80486      3.71497        -0.686079     -0.521961      0.024335
      4.46322      5.94297      5.69161       -12.445050     -4.956230      1.219139
      2.69829      6.70100      1.10259        39.201110    -39.719822     39.149618
 -----------------------------------------------------------------------------------
    total drift:                                0.013828     -0.001469     -0.008063


--------------------------------------------------------------------------------------------------------



  FREE ENERGIE OF THE ION-ELECTRON SYSTEM (eV)
  ---------------------------------------------------
  free  energy   TOTEN  =      -283.3673268449 eV

  energy  without entropy=     -283.3094502597  energy(sigma->0) =     -283.33838855
 


--------------------------------------------------------------------------------------------------------


    POTLOK:  cpu time    0.1519: real time    0.1523


--------------------------------------------------------------------------------------------------------


     LOOP+:  cpu time13201.1907: real time13234.4160
    4ORBIT:  cpu time    0.0000: real time    0.0000

volume of typ            1:    39.6 %

volume of typ            2:    10.1 %
 
total charge     
 
# of ion       s       p       d       tot
------------------------------------------
    1        0.238   0.292   8.154   8.683
    2        0.267   0.321   8.070   8.657
    3        0.238   0.283   8.066   8.587
    4        0.274   0.353   8.085   8.712
    5        0.215   0.248   8.041   8.505
    6        0.224   0.262   8.062   8.548
    7        0.471   0.673   8.375   9.519
    8        0.271   0.338   8.113   8.723
    9        0.313   0.418   8.177   8.908
   10        0.204   0.227   8.081   8.512
   11        0.275   0.339   8.065   8.678
   12        0.263   0.344   8.028   8.635
   13        0.266   0.326   8.045   8.637
   14        0.223   0.255   8.021   8.499
   15        0.339   0.470   8.132   8.941
   16        0.235   0.266   8.081   8.583
   17        0.249   0.311   8.107   8.666
   18        0.250   0.270   8.059   8.579
   19        0.527   0.757   8.393   9.677
   20        0.345   0.486   8.156   8.987
   21        0.281   0.379   7.996   8.655
   22        0.211   0.219   8.036   8.466
   23        0.288   0.361   8.043   8.693
   24        0.293   0.378   8.055   8.726
   25        0.227   0.259   8.090   8.576
   26        0.280   0.339   8.076   8.695
   27        0.254   0.320   8.106   8.680
   28        1.266   2.882   0.023   4.172
   29        1.271   2.820   0.014   4.105
   30        1.280   2.795   0.012   4.086
   31        1.280   2.812   0.014   4.106
   32        1.265   2.831   0.013   4.109
   33        1.262   2.809   0.011   4.082
   34        1.281   2.818   0.015   4.115
   35        1.310   2.972   0.054   4.336
   36        1.276   2.813   0.016   4.104
   37        1.276   2.781   0.011   4.068
   38        1.274   2.742   0.006   4.022
   39        1.272   2.795   0.013   4.080
   40        1.268   2.919   0.030   4.217
   41        1.271   2.822   0.014   4.107
   42        1.271   2.837   0.018   4.125
   43        1.267   2.811   0.013   4.091
   44        1.266   2.831   0.015   4.113
   45        1.269   2.886   0.028   4.182
   46        1.278   2.850   0.021   4.148
   47        1.274   2.823   0.013   4.109
   48        1.283   2.883   0.024   4.190
   49        1.275   2.819   0.014   4.108
   50        1.273   2.856   0.019   4.147
   51        1.258   2.786   0.008   4.052
   52        1.278   2.735   0.006   4.018
   53        1.264   2.935   0.035   4.234
   54        1.311   3.008   0.062   4.380
--------------------------------------------------
tot          41.94   86.16  219.23  347.34
 
magnetization (x)
 
# of ion       s       p       d       tot
------------------------------------------
    1       -0.001   0.006   0.471   0.476
    2        0.001  -0.000  -0.045  -0.044
    3        0.004   0.005   0.836   0.845
    4        0.001   0.001   0.191   0.193
    5       -0.002  -0.002  -0.727  -0.731
    6        0.001   0.006   0.724   0.732
    7        0.006   0.002   0.063   0.071
    8       -0.000  -0.000  -0.126  -0.126
    9        0.002  -0.000   0.151   0.152
   10        0.001   0.001   0.378   0.380
   11        0.001   0.004   0.366   0.372
   12       -0.002   0.001   0.137   0.135
   13       -0.002  -0.011  -0.717  -0.730
   14       -0.002  -0.006  -0.868  -0.875
   15       -0.000  -0.003  -0.089  -0.092
   16       -0.003   0.000  -0.215  -0.217
   17        0.001  -0.001  -0.067  -0.067
   18       -0.003   0.005   0.469   0.472
   19       -0.003  -0.007  -0.051  -0.061
   20        0.000   0.002  -0.003  -0.001
   21       -0.001   0.001   0.184   0.184
   22        0.003   0.006   0.812   0.821
   23        0.001  -0.001  -0.070  -0.070
   24       -0.000  -0.007  -0.254  -0.260
   25       -0.003  -0.009  -0.647  -0.659
   26       -0.000  -0.004  -0.311  -0.315
   27        0.000   0.001   0.026   0.027
   28       -0.000   0.009   0.000   0.009
   29        0.003   0.089  -0.000   0.092
   30       -0.002  -0.043  -0.000  -0.044
   31        0.002  -0.005   0.000  -0.002
   32        0.006   0.069   0.000   0.075
   33       -0.002  -0.024  -0.000  -0.026
   34       -0.002  -0.042  -0.000  -0.045
   35        0.003   0.041  -0.000   0.044
   36        0.003   0.038   0.000   0.041
   37        0.002   0.024   0.000   0.026
   38        0.005   0.067   0.000   0.072
   39        0.001   0.035  -0.000   0.036
   40       -0.001   0.020   0.000   0.019
   41       -0.007  -0.053  -0.000  -0.061
   42       -0.009  -0.144  -0.000  -0.153
   43       -0.001  -0.010   0.000  -0.011
   44       -0.002   0.003   0.000   0.001
   45        0.000   0.004  -0.000   0.004
   46        0.002   0.020   0.000   0.022
   47        0.004   0.015   0.000   0.019
   48        0.002   0.027   0.000   0.030
   49       -0.003  -0.020  -0.000  -0.023
   50        0.005   0.050   0.000   0.055
   51       -0.005  -0.047  -0.000  -0.052
   52       -0.002  -0.047  -0.000  -0.049
   53       -0.001   0.050   0.000   0.049
   54       -0.003  -0.016  -0.000  -0.019
--------------------------------------------------
tot           0.00    0.10    0.62    0.72
 

 total amount of memory used by VASP MPI-rank0   360458. kBytes
=======================================================================

   base      :      30000. kBytes
   nonlr-proj:      39885. kBytes
   fftplans  :       4688. kBytes
   grid      :      26804. kBytes
   one-center:       1679. kBytes
   wavefun   :     257402. kBytes
 
  
  
 General timing and accounting informations for this job:
 ========================================================
  
                  Total CPU time used (sec):    13271.262
                            User time (sec):    13243.261
                          System time (sec):       28.001
                         Elapsed time (sec):    13308.445
  
                   Maximum memory used (kb):      462024.
                   Average memory used (kb):           0.
  
                          Minor page faults:        44946
                          Major page faults:           18
                 Voluntary context switches:         1170
