 vasp.5.4.4.18Apr17-6-g9f103f2a35 (build May 12 2020 04:58:55) complex          
  
 MD_VERSION_INFO: Compiled 2020-05-12T11:58:55-UTC in devlin.sd.materialsdesign.
 com:/home/medea2/data/build/wwolf/vasp-gpu5.4.4/13047/x86_64/src/src/build/std 
 from svn 13047
 
 This VASP executable licensed from Materials Design, Inc.
 
 executed on                        Lin64 date 2023.03.24  16:26:03
 running on   16 total cores
 distrk:  each k-point on   16 cores,    1 groups
 distr:  one band on NCORES_PER_BAND=   1 cores,   16 groups


--------------------------------------------------------------------------------------------------------


 INCAR:
 POTCAR:    PAW_PBE Ni 02Aug2007                  
 POTCAR:    PAW_PBE O 08Apr2002                   

 ----------------------------------------------------------------------------- 
|                                                                             |
|           W    W    AA    RRRRR   N    N  II  N    N   GGGG   !!!           |
|           W    W   A  A   R    R  NN   N  II  NN   N  G    G  !!!           |
|           W    W  A    A  R    R  N N  N  II  N N  N  G       !!!           |
|           W WW W  AAAAAA  RRRRR   N  N N  II  N  N N  G  GGG   !            |
|           WW  WW  A    A  R   R   N   NN  II  N   NN  G    G                |
|           W    W  A    A  R    R  N    N  II  N    N   GGGG   !!!           |
|                                                                             |
|      For optimal performance we recommend to set                            |
|        NCORE= 4 - approx SQRT( number of cores)                             |
|      NCORE specifies how many cores store one orbital (NPAR=cpu/NCORE).     |
|      This setting can  greatly improve the performance of VASP for DFT.     |
|      The default,   NCORE=1            might be grossly inefficient         |
|      on modern multi-core architectures or massively parallel machines.     |
|      Do your own testing !!!!                                               |
|      Unfortunately you need to use the default for GW and RPA calculations. |
|      (for HF NCORE is supported but not extensively tested yet)             |
|                                                                             |
 ----------------------------------------------------------------------------- 

 POTCAR:    PAW_PBE Ni 02Aug2007                  
  local pseudopotential read in
  partial core-charges read in
  partial kinetic energy density read in
  atomic valenz-charges read in
  non local Contribution for L=           2  read in
    real space projection operators read in
  non local Contribution for L=           2  read in
    real space projection operators read in
  non local Contribution for L=           0  read in
    real space projection operators read in
  non local Contribution for L=           0  read in
    real space projection operators read in
  non local Contribution for L=           1  read in
    real space projection operators read in
  non local Contribution for L=           1  read in
    real space projection operators read in
    PAW grid and wavefunctions read in
 
   number of l-projection  operators is LMAX  =           6
   number of lm-projection operators is LMMAX =          18
 
 POTCAR:    PAW_PBE O 08Apr2002                   
  local pseudopotential read in
  partial core-charges read in
  partial kinetic energy density read in
  kinetic energy density of atom read in
  atomic valenz-charges read in
  non local Contribution for L=           0  read in
    real space projection operators read in
  non local Contribution for L=           0  read in
    real space projection operators read in
  non local Contribution for L=           1  read in
    real space projection operators read in
  non local Contribution for L=           1  read in
    real space projection operators read in
    PAW grid and wavefunctions read in
 
   number of l-projection  operators is LMAX  =           4
   number of lm-projection operators is LMMAX =           8
 
 Optimization of the real space projectors (new method)

 maximal supplied QI-value         = 16.25
 optimisation between [QCUT,QGAM] = [ 11.38, 22.75] = [ 36.24,144.96] Ry 
 Optimized for a Real-space Cutoff    1.47 Angstroem

   l    n(q)    QCUT    max X(q) W(low)/X(q) W(high)/X(q)  e(spline) 
   2      9    11.376    60.317    0.17E-03    0.16E-04    0.16E-06
   2      9    11.376    55.921    0.17E-03    0.16E-04    0.17E-06
   0     10    11.376    51.690    0.45E-04    0.60E-04    0.21E-06
   0     10    11.376    30.015    0.37E-04    0.55E-04    0.19E-06
   1     10    11.376    18.849    0.83E-04    0.11E-03    0.92E-07
   1     10    11.376    14.624    0.69E-04    0.92E-04    0.82E-07
 Optimization of the real space projectors (new method)

 maximal supplied QI-value         = 24.76
 optimisation between [QCUT,QGAM] = [ 11.39, 22.77] = [ 36.31,145.25] Ry 
 Optimized for a Real-space Cutoff    1.10 Angstroem

   l    n(q)    QCUT    max X(q) W(low)/X(q) W(high)/X(q)  e(spline) 
   0      7    11.387    20.381    0.22E-03    0.48E-03    0.18E-06
   0      7    11.387    15.268    0.22E-03    0.52E-03    0.19E-06
   1      7    11.387     5.964    0.22E-03    0.73E-03    0.24E-06
   1      7    11.387     5.382    0.19E-03    0.60E-03    0.21E-06

 ----------------------------------------------------------------------------- 
|                                                                             |
|  ADVICE TO THIS USER RUNNING 'VASP/VAMP'   (HEAR YOUR MASTER'S VOICE ...):  |
|                                                                             |
|      You enforced a specific xc-type in the INCAR file,                     |
|      a different type was found on the POTCAR file                          |
|          I HOPE YOU KNOW, WHAT YOU ARE  DOING                               |
|                                                                             |
 ----------------------------------------------------------------------------- 

  PAW_PBE Ni 02Aug2007                  :
 energy of atom  1       EATOM=-1077.6739
 kinetic energy error for atom=    0.0030 (will be added to EATOM!!)
  PAW_PBE O 08Apr2002                   :
 energy of atom  2       EATOM= -432.3788
 kinetic energy error for atom=    0.0224 (will be added to EATOM!!)
 
 
 POSCAR: NiO_C2_m_scale_0_975_disp_0_05_round_1  
  positions in direct lattice
  No initial velocities read in
 exchange correlation table for  LEXCH =       14
   RHO(1)=    0.500       N(1)  =     2000
   RHO(2)=  100.500       N(2)  =     4000
 


--------------------------------------------------------------------------------------------------------


 ion  position               nearest neighbor table
   1  0.004  0.007  0.986-  47 1.80  29 1.84  36 1.88  53 1.91  54 1.96  30 2.10   9 2.59  27 2.60
                            19 2.63   3 2.69  25 2.76   7 2.80  26 2.81   4 2.86  13 2.87  20 2.88
   2  0.212  0.098  0.359-  28 1.94  36 1.94  37 2.04  40 2.09  39 2.18  30 2.18  26 2.58  20 2.61
                             9 2.63   8 2.66   3 2.84  11 2.90  12 2.94   5 2.98   1 3.01  13 3.06
   3  0.132  0.243  0.689-  32 1.93  40 1.95  29 1.99  31 2.08  47 2.09  28 2.17  13 2.68   1 2.69
                             9 2.75  15 2.79   4 2.80  21 2.81  12 2.83  27 2.83   2 2.84   5 2.86
   4  0.999  0.340  0.010-  50 1.85  48 1.87  47 1.89  30 1.96  33 2.01  32 2.05  19 2.66  23 2.67
                            22 2.70  21 2.72   6 2.79   3 2.80  20 2.80   5 2.85   7 2.85   1 2.86
   5  0.224  0.455  0.345-  31 1.95  40 2.02  30 2.03  33 2.06  42 2.08  43 2.09  23 2.64  20 2.70
                             4 2.85   3 2.86   8 2.87  14 2.88  13 2.92  15 2.92   6 2.93  16 2.98
   6  0.103  0.567  0.688-  50 1.84  34 2.01  35 2.06  31 2.07  43 2.14  32 2.15   7 2.65  24 2.68
                            16 2.70  21 2.70   4 2.79  23 2.85   3 2.88   9 2.89   8 2.91   5 2.93
   7  0.999  0.676  0.996-  53 1.79  50 1.89  51 1.91  35 1.92  33 2.02  36 2.09   6 2.65  24 2.71
                            25 2.74  26 2.77   9 2.79   1 2.80  22 2.85  23 2.85   4 2.85  16 2.91
   8  0.222  0.791  0.342-  37 1.94  34 2.00  43 2.03  33 2.04  45 2.12  36 2.17   2 2.66  26 2.70
                            23 2.76  11 2.82   5 2.87  10 2.89   9 2.90   7 2.91   6 2.91  17 2.91
   9  0.115  0.912  0.683-  28 1.79  35 1.87  29 1.87  34 1.96  53 1.97  37 2.07   1 2.59   2 2.63
                            27 2.69   3 2.75   7 2.79  10 2.79  24 2.80  12 2.88   6 2.89   8 2.90
  10  0.353  0.005  0.994-  38 1.75  35 1.84  45 1.93  29 2.02  39 2.10  36 2.19  18 2.57  12 2.75
                            16 2.75  22 2.76   9 2.79   8 2.89  19 2.90  11 2.91   7 2.91  13 2.92
  11  0.561  0.116  0.351-  37 1.96  39 2.00  49 2.00  45 2.03  46 2.04  48 2.13  17 2.63  18 2.68
                             8 2.82  12 2.86  21 2.87   2 2.90  10 2.91  23 2.93  14 2.95  22 2.95
  12  0.463  0.241  0.688-  41 2.00  40 2.07  49 2.11  29 2.13  37 2.15  38 2.18  22 2.63  18 2.66
                            13 2.73  10 2.75   3 2.83  24 2.83  11 2.86  21 2.87   9 2.88  15 2.88
  13  0.343  0.343  0.003-  32 1.91  41 1.96  42 2.01  29 2.02  30 2.06  39 2.07   3 2.68  12 2.73
                            15 2.79  16 2.83   1 2.87  25 2.88  14 2.89  22 2.90   4 2.92   5 2.92
  14  0.568  0.466  0.344-  52 1.94  42 2.06  40 2.07  39 2.09  51 2.09  49 2.12  24 2.81  26 2.86
                             5 2.88  15 2.88  13 2.89  12 2.90  25 2.91  17 2.93  11 2.95  23 2.99
  15  0.455  0.576  0.686-  44 1.99  32 2.00  52 2.03  43 2.04  40 2.10  41 2.11  16 2.60  25 2.70
                            13 2.79   3 2.79  24 2.87  14 2.88  27 2.88  12 2.88   5 2.92  17 2.92
  16  0.340  0.675  0.984-  32 1.85  44 1.90  42 2.01  33 2.09  45 2.10  35 2.14  15 2.60   6 2.70
                            10 2.75  18 2.81  13 2.83  25 2.86   4 2.88   7 2.91   5 2.98  19 2.99
  17  0.576  0.815  0.350-  46 1.71  45 1.99  52 2.04  43 2.06  54 2.09  42 2.22  11 2.63  20 2.79
                            27 2.83  18 2.84  26 2.91   8 2.91  15 2.92  19 2.93  14 2.93  25 3.03
  18  0.465  0.929  0.682-  37 1.82  38 1.83  46 2.03  43 2.11  44 2.12  35 2.15  10 2.57  12 2.66
                            11 2.68  21 2.73  19 2.74  16 2.81  17 2.84   9 2.91  27 2.91  15 2.96
  19  0.700  0.017  0.987-  47 1.70  38 1.83  44 1.89  54 1.97  48 2.02  45 2.18  27 2.59   1 2.63
                             4 2.66  21 2.67  18 2.74  25 2.76  22 2.77  10 2.90  17 2.93  20 2.94
  20  0.920  0.125  0.340-  30 1.85  31 1.99  48 2.00  54 2.03  28 2.06  46 2.11   2 2.61   5 2.70
                            26 2.74  17 2.79   4 2.80  23 2.82  27 2.85   1 2.88   3 2.88  21 2.91
  21  0.799  0.236  0.680-  31 1.95  49 1.99  50 2.04  47 2.06  46 2.15  38 2.20  19 2.67  22 2.68
                             6 2.70   4 2.72  18 2.73  27 2.76   3 2.81  11 2.87  12 2.87  23 2.90
  22  0.677  0.330  0.991-  38 1.88  41 1.94  50 1.96  48 2.09  39 2.09  51 2.25  12 2.63  21 2.68
                             4 2.70  10 2.76  19 2.77   7 2.85  24 2.86  13 2.90  23 2.93  11 2.95
  23  0.913  0.453  0.331-  33 1.88  31 1.95  48 1.99  49 2.03  51 2.03  34 2.22   5 2.64   4 2.67
                             8 2.76  20 2.82   6 2.85   7 2.85  21 2.90  22 2.93  11 2.93  26 2.95
  24  0.792  0.576  0.673-  34 1.92  53 1.96  52 2.00  49 2.06  41 2.07  50 2.17   6 2.68   7 2.71
                            25 2.75   9 2.80  14 2.81  27 2.83  12 2.83  22 2.86  15 2.87  26 2.91
  25  0.680  0.683  0.993-  41 1.89  44 1.91  53 1.91  54 2.03  42 2.08  51 2.11  15 2.70   7 2.74
                            27 2.74  24 2.75   1 2.76  19 2.76  26 2.85  16 2.86  13 2.88  14 2.91
  26  0.909  0.798  0.325-  36 1.84  51 1.91  54 1.96  28 2.00  34 2.02  52 2.14   2 2.58   8 2.70
                            20 2.74   7 2.77   1 2.81  25 2.85  14 2.86   9 2.91  17 2.91  24 2.91
  27  0.798  0.911  0.682-  28 1.85  46 1.96  47 2.01  44 2.07  52 2.09  53 2.10  19 2.59   1 2.60
                             9 2.69  25 2.74  21 2.76  17 2.83  24 2.83   3 2.83  20 2.85  15 2.88
  28  0.002  0.992  0.527-   9 1.79  27 1.85   2 1.94  26 2.00  20 2.06   3 2.17
  29  0.219  0.109  0.852-   1 1.84   9 1.87   3 1.99  13 2.02  10 2.02  12 2.13
  30  0.112  0.234  0.169-  20 1.85   4 1.96   5 2.03  13 2.06   1 2.10   2 2.18
  31  0.007  0.343  0.508-  21 1.95  23 1.95   5 1.95  20 1.99   6 2.07   3 2.08
  32  0.236  0.454  0.855-  16 1.85  13 1.91   3 1.93  15 2.00   4 2.05   6 2.15
  33  0.115  0.569  0.167-  23 1.88   4 2.01   7 2.02   8 2.04   5 2.06  16 2.09
  34  0.009  0.695  0.520-  24 1.92   9 1.96   8 2.00   6 2.01  26 2.02  23 2.22
  35  0.213  0.805  0.841-  10 1.84   9 1.87   7 1.92   6 2.06  16 2.14  18 2.15
  36  0.104  0.913  0.161-  26 1.84   1 1.88   2 1.94   7 2.09   8 2.17  10 2.19
  37  0.346  0.998  0.516-  18 1.82   8 1.94  11 1.96   2 2.04   9 2.07  12 2.15
  38  0.562  0.101  0.873-  10 1.75  19 1.83  18 1.83  22 1.88  12 2.18  21 2.20
  39  0.455  0.229  0.181-  11 2.00  13 2.07  14 2.09  22 2.09  10 2.10   2 2.18
  40  0.337  0.343  0.513-   3 1.95   5 2.02  14 2.07  12 2.07   2 2.09  15 2.10
  41  0.573  0.458  0.860-  25 1.89  22 1.94  13 1.96  12 2.00  24 2.07  15 2.11
  42  0.449  0.570  0.164-  16 2.01  13 2.01  14 2.06  25 2.08   5 2.08  17 2.22
  43  0.344  0.690  0.515-   8 2.03  15 2.04  17 2.06   5 2.09  18 2.11   6 2.14
  44  0.568  0.795  0.854-  19 1.89  16 1.90  25 1.91  15 1.99  27 2.07  18 2.12
  45  0.458  0.903  0.166-  10 1.93  17 1.99  11 2.03  16 2.10   8 2.12  19 2.18
  46  0.678  0.996  0.503-  17 1.71  27 1.96  18 2.03  11 2.04  20 2.11  21 2.15
  47  0.902  0.122  0.867-  19 1.70   1 1.80   4 1.89  27 2.01  21 2.06   3 2.09
  48  0.798  0.227  0.175-   4 1.87  23 1.99  20 2.00  19 2.02  22 2.09  11 2.13
  49  0.692  0.345  0.506-  21 1.99  11 2.00  23 2.03  24 2.06  12 2.11  14 2.12
  50  0.910  0.457  0.857-   6 1.84   4 1.85   7 1.89  22 1.96  21 2.04  24 2.17
  51  0.804  0.579  0.178-   7 1.91  26 1.91  23 2.03  14 2.09  25 2.11  22 2.25
  52  0.674  0.680  0.507-  14 1.94  24 2.00  15 2.03  17 2.04  27 2.09  26 2.14
  53  0.903  0.781  0.852-   7 1.79   1 1.91  25 1.91  24 1.96   9 1.97  27 2.10
  54  0.797  0.906  0.164-  26 1.96   1 1.96  19 1.97  25 2.03  20 2.03  17 2.09
 
  LATTYP: Found a hexagonal cell.
 ALAT       =     8.5043595001
 C/A-ratio  =     0.8152863540
  
  Lattice vectors:
  
 A1 = (   8.5043595000,   0.0000000000,   0.0000000000)
 A2 = (  -4.2521797500,   7.3649913700,   0.0000000000)
 A3 = (   0.0000000000,   0.0000000000,   6.9334882500)


Analysis of symmetry for initial positions (statically):
=====================================================================
 Subroutine PRICEL returns:
 Original cell was already a primitive cell.
 

 Routine SETGRP: Setting up the symmetry group for a 
 hexagonal supercell.


 Subroutine GETGRP returns: Found  1 space group operations
 (whereof  1 operations were pure point group operations)
 out of a pool of 24 trial point group operations.


The static configuration has the point symmetry C_1 .


Analysis of symmetry for dynamics (positions and initial velocities):
=====================================================================
 Subroutine PRICEL returns:
 Original cell was already a primitive cell.
 

 Routine SETGRP: Setting up the symmetry group for a 
 hexagonal supercell.


 Subroutine GETGRP returns: Found  1 space group operations
 (whereof  1 operations were pure point group operations)
 out of a pool of 24 trial point group operations.


The dynamic configuration has the point symmetry C_1 .


Analysis of structural, dynamic, and magnetic symmetry:
=====================================================================
 Subroutine PRICEL returns:
 Original cell was already a primitive cell.
 

 Routine SETGRP: Setting up the symmetry group for a 
 hexagonal supercell.


 Subroutine GETGRP returns: Found  1 space group operations
 (whereof  1 operations were pure point group operations)
 out of a pool of 24 trial point group operations.


The magnetic configuration has the point symmetry C_1 .


 Subroutine INISYM returns: Found  1 space group operations
 (whereof  1 operations are pure point group operations),
 and found     1 'primitive' translations

 
 
 KPOINTS: Automatic mesh                          

Automatic generation of k-mesh.
Space group operators:
 irot       det(A)        alpha          n_x          n_y          n_z        tau_x        tau_y        tau_z
    1     1.000000     0.000000     1.000000     0.000000     0.000000     0.000000     0.000000     0.000000
 
 Subroutine IBZKPT returns following result:
 ===========================================
 
 Found     36 irreducible k-points:
 
 Following reciprocal coordinates:
            Coordinates               Weight
  0.000000  0.000000  0.000000      1.000000
  0.250000  0.000000  0.000000      2.000000
  0.500000  0.000000  0.000000      1.000000
  0.000000  0.250000  0.000000      2.000000
  0.250000  0.250000  0.000000      2.000000
  0.500000  0.250000  0.000000      2.000000
 -0.250000  0.250000  0.000000      2.000000
  0.000000  0.500000  0.000000      1.000000
  0.250000  0.500000  0.000000      2.000000
  0.500000  0.500000  0.000000      1.000000
  0.000000  0.000000  0.250000      2.000000
  0.250000  0.000000  0.250000      2.000000
  0.500000  0.000000  0.250000      2.000000
 -0.250000 -0.000000  0.250000      2.000000
  0.000000  0.250000  0.250000      2.000000
  0.250000  0.250000  0.250000      2.000000
  0.500000  0.250000  0.250000      2.000000
 -0.250000  0.250000  0.250000      2.000000
  0.000000  0.500000  0.250000      2.000000
  0.250000  0.500000  0.250000      2.000000
  0.500000  0.500000  0.250000      2.000000
 -0.250000  0.500000  0.250000      2.000000
  0.000000 -0.250000  0.250000      2.000000
  0.250000 -0.250000  0.250000      2.000000
  0.500000 -0.250000  0.250000      2.000000
 -0.250000 -0.250000  0.250000      2.000000
  0.000000  0.000000  0.500000      1.000000
  0.250000  0.000000  0.500000      2.000000
  0.500000  0.000000  0.500000      1.000000
  0.000000  0.250000  0.500000      2.000000
  0.250000  0.250000  0.500000      2.000000
  0.500000  0.250000  0.500000      2.000000
 -0.250000  0.250000  0.500000      2.000000
  0.000000  0.500000  0.500000      1.000000
  0.250000  0.500000  0.500000      2.000000
  0.500000  0.500000  0.500000      1.000000
 
 Following cartesian coordinates:
            Coordinates               Weight
  0.000000  0.000000  0.000000      1.000000
  0.029397  0.016972  0.000000      2.000000
  0.058793  0.033944  0.000000      1.000000
  0.000000  0.033944  0.000000      2.000000
  0.029397  0.050917  0.000000      2.000000
  0.058793  0.067889  0.000000      2.000000
 -0.029397  0.016972  0.000000      2.000000
  0.000000  0.067889  0.000000      1.000000
  0.029397  0.084861  0.000000      2.000000
  0.058793  0.101833  0.000000      1.000000
  0.000000  0.000000  0.036057      2.000000
  0.029397  0.016972  0.036057      2.000000
  0.058793  0.033944  0.036057      2.000000
 -0.029397 -0.016972  0.036057      2.000000
  0.000000  0.033944  0.036057      2.000000
  0.029397  0.050917  0.036057      2.000000
  0.058793  0.067889  0.036057      2.000000
 -0.029397  0.016972  0.036057      2.000000
  0.000000  0.067889  0.036057      2.000000
  0.029397  0.084861  0.036057      2.000000
  0.058793  0.101833  0.036057      2.000000
 -0.029397  0.050917  0.036057      2.000000
  0.000000 -0.033944  0.036057      2.000000
  0.029397 -0.016972  0.036057      2.000000
  0.058793  0.000000  0.036057      2.000000
 -0.029397 -0.050917  0.036057      2.000000
  0.000000  0.000000  0.072114      1.000000
  0.029397  0.016972  0.072114      2.000000
  0.058793  0.033944  0.072114      1.000000
  0.000000  0.033944  0.072114      2.000000
  0.029397  0.050917  0.072114      2.000000
  0.058793  0.067889  0.072114      2.000000
 -0.029397  0.016972  0.072114      2.000000
  0.000000  0.067889  0.072114      1.000000
  0.029397  0.084861  0.072114      2.000000
  0.058793  0.101833  0.072114      1.000000
 


--------------------------------------------------------------------------------------------------------




 Dimension of arrays:
   k-points           NKPTS =     36   k-points in BZ     NKDIM =     36   number of bands    NBANDS=    304
   number of dos      NEDOS =    301   number of ions     NIONS =     54
   non local maximal  LDIM  =      6   non local SUM 2l+1 LMDIM =     18
   total plane-waves  NPLWV = 221184
   max r-space proj   IRMAX =   6887   max aug-charges    IRDMAX=  16707
   dimension x,y,z NGX =    64 NGY =   64 NGZ =   54
   dimension x,y,z NGXF=   128 NGYF=  128 NGZF=  108
   support grid    NGXF=   128 NGYF=  128 NGZF=  108
   ions per type =              27  27
   NGX,Y,Z   is equivalent  to a cutoff of  12.51, 12.51, 12.95 a.u.
   NGXF,Y,Z  is equivalent  to a cutoff of  25.02, 25.02, 25.90 a.u.

 SYSTEM =  unknown system                          
 POSCAR =  NiO_C2_m_scale_0_975_disp_0_05_round_1  

 Startparameter for this run:
   NWRITE =      1    write-flag & timer
   PREC   = accura    normal or accurate (medium, high low for compatibility)
   ISTART =      0    job   : 0-new  1-cont  2-samecut
   ICHARG =      2    charge: 1-file 2-atom 10-const
   ISPIN  =      2    spin polarized calculation?
   LNONCOLLINEAR =      F non collinear calculations
   LSORBIT =      F    spin-orbit coupling
   INIWAV =      1    electr: 0-lowe 1-rand  2-diag
   LASPH  =      F    aspherical Exc in radial PAW
   METAGGA=      F    non-selfconsistent MetaGGA calc.

 Electronic Relaxation 1
   ENCUT  =  500.0 eV  36.75 Ry    6.06 a.u.  15.51 15.51 12.64*2*pi/ulx,y,z
   ENINI  =  500.0     initial cutoff
   ENAUG  =  605.4 eV  augmentation charge cutoff
   NELM   =     80;   NELMIN=  2; NELMDL= -5     # of ELM steps 
   EDIFF  = 0.1E-04   stopping-criterion for ELM
   LREAL  =      T    real-space projection
   NLSPLINE    = F    spline interpolate recip. space projectors
   LCOMPAT=      F    compatible to vasp.4.4
   GGA_COMPAT  = T    GGA compatible to vasp.4.4-vasp.4.6
   LMAXPAW     = -100 max onsite density
   LMAXMIX     =    2 max onsite mixed and CHGCAR
   VOSKOWN=      1    Vosko Wilk Nusair interpolation
   ROPT   =   -0.00025  -0.00025
 Ionic relaxation
   EDIFFG = 0.1E-03   stopping-criterion for IOM
   NSW    =      0    number of steps for IOM
   NBLOCK =      1;   KBLOCK =      1    inner block; outer block 
   IBRION =     -1    ionic relax: 0-MD 1-quasi-New 2-CG
   NFREE  =      0    steps in history (QN), initial steepest desc. (CG)
   ISIF   =      2    stress and relaxation
   IWAVPR =     10    prediction:  0-non 1-charg 2-wave 3-comb
   ISYM   =      2    0-nonsym 1-usesym 2-fastsym
   LCORR  =      T    Harris-Foulkes like correction to forces

   POTIM  = 0.5000    time-step for ionic-motion
   TEIN   =    0.0    initial temperature
   TEBEG  =    0.0;   TEEND  =   0.0 temperature during run
   SMASS  =  -3.00    Nose mass-parameter (am)
   estimated Nose-frequenzy (Omega)   =  0.10E-29 period in steps =****** mass=  -0.165E-26a.u.
   SCALEE = 1.0000    scale energy and forces
   NPACO  =    256;   APACO  = 16.0  distance and # of slots for P.C.
   PSTRESS=    0.0 pullay stress

  Mass of Ions in am
   POMASS =  58.69 16.00
  Ionic Valenz
   ZVAL   =  10.00  6.00
  Atomic Wigner-Seitz radii
   RWIGS  =   1.15  0.73
  virtual crystal weights 
   VCA    =   1.00  1.00
   NELECT =     432.0000    total number of electrons
   NUPDOWN=      -1.0000    fix difference up-down

 DOS related values:
   EMIN   =  10.00;   EMAX   =-10.00  energy-range for DOS
   EFERMI =   0.00
   ISMEAR =     0;   SIGMA  =   0.05  broadening in eV -4-tet -1-fermi 0-gaus

 Electronic relaxation 2 (details)
   IALGO  =     38    algorithm
   LDIAG  =      T    sub-space diagonalisation (order eigenvalues)
   LSUBROT=      F    optimize rotation matrix (better conditioning)
   TURBO    =      0    0=normal 1=particle mesh
   IRESTART =      0    0=no restart 2=restart with 2 vectors
   NREBOOT  =      0    no. of reboots
   NMIN     =      0    reboot dimension
   EREF     =   0.00    reference energy to select bands
   IMIX   =      4    mixing-type and parameters
     AMIX     =   0.40;   BMIX     =  1.00
     AMIX_MAG =   1.60;   BMIX_MAG =  1.00
     AMIN     =   0.10
     WC   =   100.;   INIMIX=   1;  MIXPRE=   1;  MAXMIX= -45

 Intra band minimization:
   WEIMIN = 0.0000     energy-eigenvalue tresh-hold
   EBREAK =  0.82E-08  absolut break condition
   DEPER  =   0.30     relativ break condition  

   TIME   =   0.40     timestep for ELM

  volume/ion in A,a.u.               =       8.04        54.27
  Fermi-wavevector in a.u.,A,eV,Ry     =   1.634234  3.088254 36.337355  2.670720
  Thomas-Fermi vector in A             =   2.725907
 
 Write flags
   LWAVE        =      F    write WAVECAR
   LDOWNSAMPLE  =      F    k-point downsampling of WAVECAR
   LCHARG       =      T    write CHGCAR
   LVTOT        =      F    write LOCPOT, total local potential
   LVHAR        =      F    write LOCPOT, Hartree potential only
   LELF         =      F    write electronic localiz. function (ELF)
   LORBIT       =      0    0 simple, 1 ext, 2 COOP (PROOUT), +10 PAW based schemes


 Dipole corrections
   LMONO  =      F    monopole corrections only (constant potential shift)
   LDIPOL =      F    correct potential (dipole corrections)
   IDIPOL =      0    1-x, 2-y, 3-z, 4-all directions 
   EPSILON=  1.0000000 bulk dielectric constant

 Exchange correlation treatment:
   GGA     =    PS    GGA type
   LEXCH   =    14    internal setting for exchange type
   VOSKOWN=      1    Vosko Wilk Nusair interpolation
   LHFCALC =     F    Hartree Fock is set to
   LHFONE  =     F    Hartree Fock one center treatment
   AEXX    =    0.0000 exact exchange contribution

 Linear response parameters
   LEPSILON=     F    determine dielectric tensor
   LRPA    =     F    only Hartree local field effects (RPA)
   LNABLA  =     F    use nabla operator in PAW spheres
   LVEL    =     F    velocity operator in full k-point grid
   LINTERFAST=   F  fast interpolation
   KINTER  =     0    interpolate to denser k-point grid
   CSHIFT  =0.1000    complex shift for real part using Kramers Kronig
   OMEGAMAX=  -1.0    maximum frequency
   DEG_THRESHOLD= 0.2000000E-02 threshold for treating states as degnerate
   RTIME   =   -0.100 relaxation time in fs
  (WPLASMAI=    0.000 imaginary part of plasma frequency in eV, 0.658/RTIME)
   DFIELD  = 0.0000000 0.0000000 0.0000000 field for delta impulse in time
 
 Orbital magnetization related:
   ORBITALMAG=     F  switch on orbital magnetization
   LCHIMAG   =     F  perturbation theory with respect to B field
   DQ        =  0.001000  dq finite difference perturbation B field
   LLRAUG    =     F  two centre corrections for induced B field



--------------------------------------------------------------------------------------------------------


 Static calculation
 charge density and potential will be updated during run
 spin polarized calculation
 Variant of blocked Davidson
 Davidson routine will perform the subspace rotation
 perform sub-space diagonalisation
    after iterative eigenvector-optimisation
 modified Broyden-mixing scheme, WC =      100.0
 initial mixing is a Kerker type mixing with AMIX =  0.4000 and BMIX =      1.0000
 Hartree-type preconditioning will be used
 using additional bands           88
 real space projection scheme for non local part
 use partial core corrections
 calculate Harris-corrections to forces 
   (improved forces if not selfconsistent)
 use gradient corrections 
 use of overlap-Matrix (Vanderbilt PP)
 Gauss-broadening in eV      SIGMA  =   0.05


--------------------------------------------------------------------------------------------------------


  energy-cutoff  :      500.00
  volume of cell :      434.28
      direct lattice vectors                 reciprocal lattice vectors
     8.504359500  0.000000000  0.000000000     0.117586751  0.067888742  0.000000000
    -4.252179750  7.364991370  0.000000000     0.000000000  0.135777484  0.000000000
     0.000000000  0.000000000  6.933488250     0.000000000  0.000000000  0.144227547

  length of vectors
     8.504359500  8.504359500  6.933488250     0.135777484  0.135777484  0.144227547


 
 k-points in units of 2pi/SCALE and weight: Automatic mesh                          
   0.00000000  0.00000000  0.00000000       0.016
   0.02939669  0.01697219  0.00000000       0.031
   0.05879338  0.03394437  0.00000000       0.016
   0.00000000  0.03394437  0.00000000       0.031
   0.02939669  0.05091656  0.00000000       0.031
   0.05879338  0.06788874  0.00000000       0.031
  -0.02939669  0.01697219  0.00000000       0.031
   0.00000000  0.06788874  0.00000000       0.016
   0.02939669  0.08486093  0.00000000       0.031
   0.05879338  0.10183311  0.00000000       0.016
   0.00000000  0.00000000  0.03605689       0.031
   0.02939669  0.01697219  0.03605689       0.031
   0.05879338  0.03394437  0.03605689       0.031
  -0.02939669 -0.01697219  0.03605689       0.031
   0.00000000  0.03394437  0.03605689       0.031
   0.02939669  0.05091656  0.03605689       0.031
   0.05879338  0.06788874  0.03605689       0.031
  -0.02939669  0.01697219  0.03605689       0.031
   0.00000000  0.06788874  0.03605689       0.031
   0.02939669  0.08486093  0.03605689       0.031
   0.05879338  0.10183311  0.03605689       0.031
  -0.02939669  0.05091656  0.03605689       0.031
   0.00000000 -0.03394437  0.03605689       0.031
   0.02939669 -0.01697219  0.03605689       0.031
   0.05879338  0.00000000  0.03605689       0.031
  -0.02939669 -0.05091656  0.03605689       0.031
   0.00000000  0.00000000  0.07211377       0.016
   0.02939669  0.01697219  0.07211377       0.031
   0.05879338  0.03394437  0.07211377       0.016
   0.00000000  0.03394437  0.07211377       0.031
   0.02939669  0.05091656  0.07211377       0.031
   0.05879338  0.06788874  0.07211377       0.031
  -0.02939669  0.01697219  0.07211377       0.031
   0.00000000  0.06788874  0.07211377       0.016
   0.02939669  0.08486093  0.07211377       0.031
   0.05879338  0.10183311  0.07211377       0.016
 
 k-points in reciprocal lattice and weights: Automatic mesh                          
   0.00000000  0.00000000  0.00000000       0.016
   0.25000000  0.00000000  0.00000000       0.031
   0.50000000  0.00000000  0.00000000       0.016
   0.00000000  0.25000000  0.00000000       0.031
   0.25000000  0.25000000  0.00000000       0.031
   0.50000000  0.25000000  0.00000000       0.031
  -0.25000000  0.25000000  0.00000000       0.031
   0.00000000  0.50000000  0.00000000       0.016
   0.25000000  0.50000000  0.00000000       0.031
   0.50000000  0.50000000  0.00000000       0.016
   0.00000000  0.00000000  0.25000000       0.031
   0.25000000  0.00000000  0.25000000       0.031
   0.50000000  0.00000000  0.25000000       0.031
  -0.25000000 -0.00000000  0.25000000       0.031
   0.00000000  0.25000000  0.25000000       0.031
   0.25000000  0.25000000  0.25000000       0.031
   0.50000000  0.25000000  0.25000000       0.031
  -0.25000000  0.25000000  0.25000000       0.031
   0.00000000  0.50000000  0.25000000       0.031
   0.25000000  0.50000000  0.25000000       0.031
   0.50000000  0.50000000  0.25000000       0.031
  -0.25000000  0.50000000  0.25000000       0.031
   0.00000000 -0.25000000  0.25000000       0.031
   0.25000000 -0.25000000  0.25000000       0.031
   0.50000000 -0.25000000  0.25000000       0.031
  -0.25000000 -0.25000000  0.25000000       0.031
   0.00000000  0.00000000  0.50000000       0.016
   0.25000000  0.00000000  0.50000000       0.031
   0.50000000  0.00000000  0.50000000       0.016
   0.00000000  0.25000000  0.50000000       0.031
   0.25000000  0.25000000  0.50000000       0.031
   0.50000000  0.25000000  0.50000000       0.031
  -0.25000000  0.25000000  0.50000000       0.031
   0.00000000  0.50000000  0.50000000       0.016
   0.25000000  0.50000000  0.50000000       0.031
   0.50000000  0.50000000  0.50000000       0.016
 
 position of ions in fractional coordinates (direct lattice) 
   0.00424051  0.00740858  0.98595966
   0.21197184  0.09836838  0.35925515
   0.13160073  0.24288440  0.68949590
   0.99890575  0.34046052  0.00971278
   0.22375799  0.45465295  0.34493492
   0.10264029  0.56652243  0.68762557
   0.99883672  0.67585784  0.99638775
   0.22234429  0.79137990  0.34248636
   0.11506023  0.91219495  0.68264169
   0.35337903  0.00473161  0.99414825
   0.56126630  0.11620378  0.35071054
   0.46277205  0.24065941  0.68761340
   0.34325270  0.34333978  0.00309419
   0.56821213  0.46618726  0.34447688
   0.45540191  0.57612045  0.68633505
   0.34027416  0.67472359  0.98420297
   0.57588045  0.81500135  0.35017059
   0.46477179  0.92856087  0.68236253
   0.70024303  0.01718506  0.98672711
   0.91960417  0.12504046  0.34027067
   0.79854249  0.23635092  0.67977281
   0.67675832  0.32999765  0.99127122
   0.91285655  0.45319637  0.33065216
   0.79248256  0.57624728  0.67275570
   0.68017995  0.68259935  0.99343479
   0.90885901  0.79822539  0.32495338
   0.79815208  0.91136718  0.68197830
   0.00172364  0.99196586  0.52664013
   0.21905950  0.10945092  0.85196895
   0.11222248  0.23375331  0.16927928
   0.00740496  0.34297457  0.50796845
   0.23564723  0.45433229  0.85492289
   0.11481499  0.56937791  0.16703814
   0.00901607  0.69531897  0.52007583
   0.21335477  0.80545923  0.84121361
   0.10393265  0.91254942  0.16120089
   0.34553180  0.99792210  0.51554623
   0.56207255  0.10115689  0.87252765
   0.45536504  0.22870308  0.18053783
   0.33679456  0.34290834  0.51282509
   0.57304708  0.45838036  0.85984503
   0.44878060  0.56981450  0.16429859
   0.34368050  0.68956087  0.51503714
   0.56778892  0.79454013  0.85422553
   0.45757909  0.90279112  0.16612115
   0.67757508  0.99611982  0.50279668
   0.90151702  0.12179345  0.86687093
   0.79835442  0.22654921  0.17454672
   0.69209284  0.34516631  0.50559589
   0.91034650  0.45690940  0.85729973
   0.80406567  0.57948646  0.17763034
   0.67413319  0.67985168  0.50730763
   0.90306119  0.78119568  0.85231057
   0.79749725  0.90567275  0.16413586
 
 position of ions in cartesian coordinates  (Angst):
   0.00456021  0.05456413  6.83613972
   1.38440470  0.72448227  2.49089136
   0.08639179  1.78884151  4.78061172
   7.04735428  2.50748879  0.06734345
  -0.03034768  3.34851505  2.39160221
  -1.53606528  4.17243281  4.76764381
   5.62059753  4.97768716  6.90844276
  -1.47419381  5.82850613  2.37462515
  -2.90030333  6.71830793  4.73308814
   2.98514265  0.03484827  6.89291521
   4.27909103  0.85583984  2.43164741
   2.91225281  1.77245448  4.76755943
   1.45920190  2.52869452  0.02145353
   2.84996820  3.43346515  2.38842640
   1.42313385  4.24312214  4.75869600
   0.02476780  4.96933342  6.82395973
   1.43196214  6.00247791  2.42790367
   0.00417866  6.83884279  4.73115258
   5.88204450  0.12656782  6.84146082
   7.28894995  0.92092191  2.35926269
   5.78608582  1.74072249  4.71319679
   4.35218672  2.43042984  6.87296736
   5.83618785  3.33778735  2.29257287
   4.28924957  4.24405624  4.66454374
   2.88195969  5.02733832  6.88796844
   4.33506592  5.87892311  2.25306044
   2.91247516  6.71221142  4.72848853
  -4.20335869  7.30582000  3.65145315
   1.39755575  0.80610508  5.90711670
  -0.03958078  1.72159111  1.17369590
  -1.39541508  2.52600475  3.52199328
   0.07212620  3.34615339  5.92759781
  -1.44466927  4.19346339  1.15815698
  -2.87994534  5.12101821  3.60593966
  -1.61051176  5.93220028  5.83254468
  -2.99644355  6.72091860  1.11768448
  -1.30481750  7.34968765  3.57453373
   4.34992975  0.74501962  6.04966021
   2.90010140  1.68439621  1.25175692
   1.40611412  2.52551696  3.55566674
   2.92428269  3.37596740  5.96172541
   1.39363788  4.19667888  1.13916234
  -0.00935424  5.07860986  3.57100396
   1.45015364  5.85178120  5.92276268
   0.05258696  6.64904881  1.15179904
   1.52666154  7.33641388  3.48613487
   7.14893719  0.89700771  6.01043941
   5.82616503  1.66853298  1.21021763
   4.41809712  2.54214689  3.50554316
   5.79905301  3.36513379  5.94407760
   4.37398293  4.26791278  1.23159788
   2.84221945  5.00710176  3.51741149
   4.35817256  5.75349944  5.90948532
   2.93111999  6.67027199  1.13803406
 


--------------------------------------------------------------------------------------------------------


 k-point  1 :   0.0000 0.0000 0.0000  plane waves:   11029
 k-point  2 :   0.2500 0.0000 0.0000  plane waves:   11041
 k-point  3 :   0.5000 0.0000 0.0000  plane waves:   11030
 k-point  4 :   0.0000 0.2500 0.0000  plane waves:   11041
 k-point  5 :   0.2500 0.2500 0.0000  plane waves:   11024
 k-point  6 :   0.5000 0.2500 0.0000  plane waves:   11024
 k-point  7 :  -0.2500 0.2500 0.0000  plane waves:   11041
 k-point  8 :   0.0000 0.5000 0.0000  plane waves:   11030
 k-point  9 :   0.2500 0.5000 0.0000  plane waves:   11024
 k-point 10 :   0.5000 0.5000 0.0000  plane waves:   11030
 k-point 11 :   0.0000 0.0000 0.2500  plane waves:   11035
 k-point 12 :   0.2500 0.0000 0.2500  plane waves:   11030
 k-point 13 :   0.5000 0.0000 0.2500  plane waves:   11030
 k-point 14 :  -0.2500-0.0000 0.2500  plane waves:   11030
 k-point 15 :   0.0000 0.2500 0.2500  plane waves:   11030
 k-point 16 :   0.2500 0.2500 0.2500  plane waves:   11019
 k-point 17 :   0.5000 0.2500 0.2500  plane waves:   11019
 k-point 18 :  -0.2500 0.2500 0.2500  plane waves:   11030
 k-point 19 :   0.0000 0.5000 0.2500  plane waves:   11030
 k-point 20 :   0.2500 0.5000 0.2500  plane waves:   11019
 k-point 21 :   0.5000 0.5000 0.2500  plane waves:   11030
 k-point 22 :  -0.2500 0.5000 0.2500  plane waves:   11019
 k-point 23 :   0.0000-0.2500 0.2500  plane waves:   11030
 k-point 24 :   0.2500-0.2500 0.2500  plane waves:   11030
 k-point 25 :   0.5000-0.2500 0.2500  plane waves:   11019
 k-point 26 :  -0.2500-0.2500 0.2500  plane waves:   11019
 k-point 27 :   0.0000 0.0000 0.5000  plane waves:   11018
 k-point 28 :   0.2500 0.0000 0.5000  plane waves:   11052
 k-point 29 :   0.5000 0.0000 0.5000  plane waves:   10980
 k-point 30 :   0.0000 0.2500 0.5000  plane waves:   11052
 k-point 31 :   0.2500 0.2500 0.5000  plane waves:   10974
 k-point 32 :   0.5000 0.2500 0.5000  plane waves:   10974
 k-point 33 :  -0.2500 0.2500 0.5000  plane waves:   11052
 k-point 34 :   0.0000 0.5000 0.5000  plane waves:   10980
 k-point 35 :   0.2500 0.5000 0.5000  plane waves:   10974
 k-point 36 :   0.5000 0.5000 0.5000  plane waves:   10980

 maximum and minimum number of plane-waves per node :     11052    10974

 maximum number of plane-waves:     11052
 maximum index in each direction: 
   IXMAX=   15   IYMAX=   15   IZMAX=   12
   IXMIN=  -16   IYMIN=  -16   IZMIN=  -13

 The following grids will avoid any aliasing or wrap around errors in the Hartre
 e energy
  - symmetry arguments have not been applied
  - exchange correlation energies might require even more grid points
  - we recommend to set PREC=Normal or Accurate and rely on VASP defaults
 NGX is ok and might be reduce to    64
 NGY is ok and might be reduce to    64
 NGZ is ok and might be reduce to    54

 serial   3D FFT for wavefunctions
 parallel 3D FFT for charge:
    minimum data exchange during FFTs selected (reduces bandwidth)


 total amount of memory used by VASP MPI-rank0   360482. kBytes
=======================================================================

   base      :      30000. kBytes
   nonlr-proj:      39909. kBytes
   fftplans  :       4688. kBytes
   grid      :      26804. kBytes
   one-center:       1679. kBytes
   wavefun   :     257402. kBytes
 
     INWAV:  cpu time    0.0000: real time    0.0000
 Broyden mixing: mesh for mixing (old mesh)
   NGX = 31   NGY = 31   NGZ = 25
  (NGX  =128   NGY  =128   NGZ  =108)
  gives a total of  24025 points

 initial charge density was supplied:
 charge density of overlapping atoms calculated
 number of electron     432.0000000 magnetization      67.5000000
 keeping initial charge density in first step


--------------------------------------------------------------------------------------------------------


 Maximum index for non-local projection operator         6660
 Maximum index for augmentation-charges         1099 (set IRDMAX)


--------------------------------------------------------------------------------------------------------


 First call to EWALD:  gamma=   0.234
 Maximum number of real-space cells 3x 3x 3
 Maximum number of reciprocal cells 3x 3x 3

    FEWALD:  cpu time    0.0027: real time    0.0027


--------------------------------------- Iteration      1(   1)  ---------------------------------------


    POTLOK:  cpu time    0.1404: real time    0.1432
    SETDIJ:  cpu time    0.0244: real time    0.0244
     EDDAV:  cpu time  118.6841: real time  118.9792
    --------------------------------------------
      LOOP:  cpu time  118.8527: real time  119.1508

 eigenvalue-minimisations  : 43776
 total energy-change (2. order) : 0.5387408E+04  (-0.1717115E+05)
 number of electron     432.0000000 magnetization      67.5000000
 augmentation part      432.0000000 magnetization      67.5000000

 Free energy of the ion-electron system (eV)
  ---------------------------------------------------
  alpha Z        PSCENC =      1991.78600378
  Ewald energy   TEWEN  =    -36247.46368661
  -Hartree energ DENC   =     -8463.74282459
  -exchange      EXHF   =         0.00000000
  -V(xc)+E(xc)   XCENC  =      1665.73763065
  PAW double counting   =     35307.98069315   -37155.18892105
  entropy T*S    EENTRO =        -0.00926445
  eigenvalues    EBANDS =      7579.83331594
  atomic energy  EATOM  =     40708.47505058
  Solvation  Ediel_sol  =         0.00000000
  ---------------------------------------------------
  free energy    TOTEN  =      5387.40799741 eV

  energy without entropy =     5387.41726187  energy(sigma->0) =     5387.41262964


--------------------------------------------------------------------------------------------------------




--------------------------------------- Iteration      1(   2)  ---------------------------------------


     EDDAV:  cpu time  118.7983: real time  119.0940
    --------------------------------------------
      LOOP:  cpu time  118.7984: real time  119.0941

 eigenvalue-minimisations  : 43776
 total energy-change (2. order) :-0.4612385E+04  (-0.4159433E+04)
 number of electron     432.0000000 magnetization      67.5000000
 augmentation part      432.0000000 magnetization      67.5000000

 Free energy of the ion-electron system (eV)
  ---------------------------------------------------
  alpha Z        PSCENC =      1991.78600378
  Ewald energy   TEWEN  =    -36247.46368661
  -Hartree energ DENC   =     -8463.74282459
  -exchange      EXHF   =         0.00000000
  -V(xc)+E(xc)   XCENC  =      1665.73763065
  PAW double counting   =     35307.98069315   -37155.18892105
  entropy T*S    EENTRO =        -0.02419852
  eigenvalues    EBANDS =      2967.46317617
  atomic energy  EATOM  =     40708.47505058
  Solvation  Ediel_sol  =         0.00000000
  ---------------------------------------------------
  free energy    TOTEN  =       775.02292357 eV

  energy without entropy =      775.04712210  energy(sigma->0) =      775.03502284


--------------------------------------------------------------------------------------------------------




--------------------------------------- Iteration      1(   3)  ---------------------------------------


     EDDAV:  cpu time  121.1893: real time  121.4908
    --------------------------------------------
      LOOP:  cpu time  121.1895: real time  121.4910

 eigenvalue-minimisations  : 44912
 total energy-change (2. order) :-0.1048462E+04  (-0.9330982E+03)
 number of electron     432.0000000 magnetization      67.5000000
 augmentation part      432.0000000 magnetization      67.5000000

 Free energy of the ion-electron system (eV)
  ---------------------------------------------------
  alpha Z        PSCENC =      1991.78600378
  Ewald energy   TEWEN  =    -36247.46368661
  -Hartree energ DENC   =     -8463.74282459
  -exchange      EXHF   =         0.00000000
  -V(xc)+E(xc)   XCENC  =      1665.73763065
  PAW double counting   =     35307.98069315   -37155.18892105
  entropy T*S    EENTRO =        -0.09793103
  eigenvalues    EBANDS =      1919.07461120
  atomic energy  EATOM  =     40708.47505058
  Solvation  Ediel_sol  =         0.00000000
  ---------------------------------------------------
  free energy    TOTEN  =      -273.43937391 eV

  energy without entropy =     -273.34144288  energy(sigma->0) =     -273.39040839


--------------------------------------------------------------------------------------------------------




--------------------------------------- Iteration      1(   4)  ---------------------------------------


     EDDAV:  cpu time  134.6646: real time  134.9999
    --------------------------------------------
      LOOP:  cpu time  134.6647: real time  135.0000

 eigenvalue-minimisations  : 51312
 total energy-change (2. order) :-0.1090943E+03  (-0.1040835E+03)
 number of electron     432.0000000 magnetization      67.5000000
 augmentation part      432.0000000 magnetization      67.5000000

 Free energy of the ion-electron system (eV)
  ---------------------------------------------------
  alpha Z        PSCENC =      1991.78600378
  Ewald energy   TEWEN  =    -36247.46368661
  -Hartree energ DENC   =     -8463.74282459
  -exchange      EXHF   =         0.00000000
  -V(xc)+E(xc)   XCENC  =      1665.73763065
  PAW double counting   =     35307.98069315   -37155.18892105
  entropy T*S    EENTRO =        -0.09193759
  eigenvalues    EBANDS =      1809.97434680
  atomic energy  EATOM  =     40708.47505058
  Solvation  Ediel_sol  =         0.00000000
  ---------------------------------------------------
  free energy    TOTEN  =      -382.53364486 eV

  energy without entropy =     -382.44170728  energy(sigma->0) =     -382.48767607


--------------------------------------------------------------------------------------------------------




--------------------------------------- Iteration      1(   5)  ---------------------------------------


     EDDAV:  cpu time  133.2574: real time  133.5890
    CHARGE:  cpu time    3.8725: real time    3.8819
    MIXING:  cpu time    0.0032: real time    0.0033
    --------------------------------------------
      LOOP:  cpu time  137.1287: real time  137.4698

 eigenvalue-minimisations  : 50688
 total energy-change (2. order) :-0.2574020E+01  (-0.2553720E+01)
 number of electron     431.9999982 magnetization      58.8273243
 augmentation part      175.3326011 magnetization      46.2403108

 Broyden mixing:
  rms(total) = 0.96669E+01    rms(broyden)= 0.96655E+01
  rms(prec ) = 0.11881E+02
  weight for this iteration     100.00

 Free energy of the ion-electron system (eV)
  ---------------------------------------------------
  alpha Z        PSCENC =      1991.78600378
  Ewald energy   TEWEN  =    -36247.46368661
  -Hartree energ DENC   =     -8463.74282459
  -exchange      EXHF   =         0.00000000
  -V(xc)+E(xc)   XCENC  =      1665.73763065
  PAW double counting   =     35307.98069315   -37155.18892105
  entropy T*S    EENTRO =        -0.09058720
  eigenvalues    EBANDS =      1807.39897605
  atomic energy  EATOM  =     40708.47505058
  Solvation  Ediel_sol  =         0.00000000
  ---------------------------------------------------
  free energy    TOTEN  =      -385.10766523 eV

  energy without entropy =     -385.01707803  energy(sigma->0) =     -385.06237163


--------------------------------------------------------------------------------------------------------




--------------------------------------- Iteration      1(   6)  ---------------------------------------


    POTLOK:  cpu time    0.1247: real time    0.1250
    SETDIJ:  cpu time    0.0246: real time    0.0247
     EDDAV:  cpu time  157.7853: real time  158.1776
    CHARGE:  cpu time    3.7366: real time    3.7457
    MIXING:  cpu time    0.0027: real time    0.0027
    --------------------------------------------
      LOOP:  cpu time  161.6739: real time  162.0757

 eigenvalue-minimisations  : 62560
 total energy-change (2. order) : 0.2443223E+02  (-0.3343953E+02)
 number of electron     431.9999991 magnetization      49.2505354
 augmentation part      194.1266112 magnetization      42.2265879

 Broyden mixing:
  rms(total) = 0.11480E+02    rms(broyden)= 0.11479E+02
  rms(prec ) = 0.14267E+02
  weight for this iteration     100.00

 eigenvalues of (default mixing * dielectric matrix)
  average eigenvalue GAMMA=   0.3108
  0.3108

 Free energy of the ion-electron system (eV)
  ---------------------------------------------------
  alpha Z        PSCENC =      1991.78600378
  Ewald energy   TEWEN  =    -36247.46368661
  -Hartree energ DENC   =     -8173.45638187
  -exchange      EXHF   =         0.00000000
  -V(xc)+E(xc)   XCENC  =      1662.40609174
  PAW double counting   =     38998.03054880   -40717.91031288
  entropy T*S    EENTRO =        -0.03941080
  eigenvalues    EBANDS =      1417.49666453
  atomic energy  EATOM  =     40708.47505058
  Solvation  Ediel_sol  =         0.00000000
  ---------------------------------------------------
  free energy    TOTEN  =      -360.67543272 eV

  energy without entropy =     -360.63602192  energy(sigma->0) =     -360.65572732


--------------------------------------------------------------------------------------------------------




--------------------------------------- Iteration      1(   7)  ---------------------------------------


    POTLOK:  cpu time    0.1188: real time    0.1191
    SETDIJ:  cpu time    0.0246: real time    0.0246
     EDDAV:  cpu time  136.6398: real time  136.9798
    CHARGE:  cpu time    3.8401: real time    3.8495
    MIXING:  cpu time    0.0029: real time    0.0029
    --------------------------------------------
      LOOP:  cpu time  140.6262: real time  140.9760

 eigenvalue-minimisations  : 52304
 total energy-change (2. order) :-0.6099362E+01  (-0.2588194E+02)
 number of electron     431.9999981 magnetization      43.6057741
 augmentation part      186.6605469 magnetization      36.1760396

 Broyden mixing:
  rms(total) = 0.11475E+02    rms(broyden)= 0.11474E+02
  rms(prec ) = 0.16115E+02
  weight for this iteration     100.00

 eigenvalues of (default mixing * dielectric matrix)
  average eigenvalue GAMMA=   0.3320
  0.3320  0.3320

 Free energy of the ion-electron system (eV)
  ---------------------------------------------------
  alpha Z        PSCENC =      1991.78600378
  Ewald energy   TEWEN  =    -36247.46368661
  -Hartree energ DENC   =     -8242.36970416
  -exchange      EXHF   =         0.00000000
  -V(xc)+E(xc)   XCENC  =      1654.72040429
  PAW double counting   =     40498.26848614   -42315.37681180
  entropy T*S    EENTRO =        -0.06368429
  eigenvalues    EBANDS =      1585.24914751
  atomic energy  EATOM  =     40708.47505058
  Solvation  Ediel_sol  =         0.00000000
  ---------------------------------------------------
  free energy    TOTEN  =      -366.77479455 eV

  energy without entropy =     -366.71111027  energy(sigma->0) =     -366.74295241


--------------------------------------------------------------------------------------------------------




--------------------------------------- Iteration      1(   8)  ---------------------------------------


    POTLOK:  cpu time    0.1242: real time    0.1245
    SETDIJ:  cpu time    0.0245: real time    0.0246
     EDDAV:  cpu time  139.5527: real time  139.8998
    CHARGE:  cpu time    3.9527: real time    3.9623
    MIXING:  cpu time    0.0035: real time    0.0035
    --------------------------------------------
      LOOP:  cpu time  143.6575: real time  144.0147

 eigenvalue-minimisations  : 53600
 total energy-change (2. order) : 0.1754408E+02  (-0.1725411E+02)
 number of electron     431.9999983 magnetization      39.0593931
 augmentation part      185.1446503 magnetization      32.6679680

 Broyden mixing:
  rms(total) = 0.79414E+01    rms(broyden)= 0.79406E+01
  rms(prec ) = 0.11473E+02
  weight for this iteration     100.00

 eigenvalues of (default mixing * dielectric matrix)
  average eigenvalue GAMMA=   0.4140
  0.5433  0.5433  0.1553

 Free energy of the ion-electron system (eV)
  ---------------------------------------------------
  alpha Z        PSCENC =      1991.78600378
  Ewald energy   TEWEN  =    -36247.46368661
  -Hartree energ DENC   =     -8279.96038462
  -exchange      EXHF   =         0.00000000
  -V(xc)+E(xc)   XCENC  =      1652.39456765
  PAW double counting   =     41569.88666894   -43433.17173484
  entropy T*S    EENTRO =        -0.06970395
  eigenvalues    EBANDS =      1688.89250673
  atomic energy  EATOM  =     40708.47505058
  Solvation  Ediel_sol  =         0.00000000
  ---------------------------------------------------
  free energy    TOTEN  =      -349.23071234 eV

  energy without entropy =     -349.16100839  energy(sigma->0) =     -349.19586037


--------------------------------------------------------------------------------------------------------




--------------------------------------- Iteration      1(   9)  ---------------------------------------


    POTLOK:  cpu time    0.1245: real time    0.1248
    SETDIJ:  cpu time    0.0250: real time    0.0251
     EDDAV:  cpu time  155.6326: real time  156.0193
    CHARGE:  cpu time    3.7229: real time    3.7320
    MIXING:  cpu time    0.0035: real time    0.0035
    --------------------------------------------
      LOOP:  cpu time  159.5086: real time  159.9048

 eigenvalue-minimisations  : 55984
 total energy-change (2. order) : 0.3652491E+01  (-0.9493714E+01)
 number of electron     431.9999989 magnetization      28.8789494
 augmentation part      184.8828928 magnetization      22.3562986

 Broyden mixing:
  rms(total) = 0.79066E+01    rms(broyden)= 0.79055E+01
  rms(prec ) = 0.12300E+02
  weight for this iteration     100.00

 eigenvalues of (default mixing * dielectric matrix)
  average eigenvalue GAMMA=   0.4964
  0.9750  0.7052  0.1713  0.1340

 Free energy of the ion-electron system (eV)
  ---------------------------------------------------
  alpha Z        PSCENC =      1991.78600378
  Ewald energy   TEWEN  =    -36247.46368661
  -Hartree energ DENC   =     -8273.19547816
  -exchange      EXHF   =         0.00000000
  -V(xc)+E(xc)   XCENC  =      1650.94050668
  PAW double counting   =     42360.09911060   -44243.90511758
  entropy T*S    EENTRO =        -0.06179403
  eigenvalues    EBANDS =      1707.74718371
  atomic energy  EATOM  =     40708.47505058
  Solvation  Ediel_sol  =         0.00000000
  ---------------------------------------------------
  free energy    TOTEN  =      -345.57822102 eV

  energy without entropy =     -345.51642699  energy(sigma->0) =     -345.54732401


--------------------------------------------------------------------------------------------------------




--------------------------------------- Iteration      1(  10)  ---------------------------------------


    POTLOK:  cpu time    0.1257: real time    0.1260
    SETDIJ:  cpu time    0.0253: real time    0.0254
     EDDAV:  cpu time  160.3553: real time  160.7542
    CHARGE:  cpu time    3.6441: real time    3.6531
    MIXING:  cpu time    0.0038: real time    0.0038
    --------------------------------------------
      LOOP:  cpu time  164.1543: real time  164.5625

 eigenvalue-minimisations  : 58240
 total energy-change (2. order) :-0.3884767E+02  (-0.1516484E+02)
 number of electron     431.9999985 magnetization      20.2282924
 augmentation part      184.1483234 magnetization      16.6539702

 Broyden mixing:
  rms(total) = 0.11893E+02    rms(broyden)= 0.11892E+02
  rms(prec ) = 0.20204E+02
  weight for this iteration     100.00

 eigenvalues of (default mixing * dielectric matrix)
  average eigenvalue GAMMA=   0.5161
  1.4371  0.6546  0.2400  0.1245  0.1245

 Free energy of the ion-electron system (eV)
  ---------------------------------------------------
  alpha Z        PSCENC =      1991.78600378
  Ewald energy   TEWEN  =    -36247.46368661
  -Hartree energ DENC   =     -8237.78903995
  -exchange      EXHF   =         0.00000000
  -V(xc)+E(xc)   XCENC  =      1648.26581235
  PAW double counting   =     44189.62934324   -46106.70321982
  entropy T*S    EENTRO =        -0.04811081
  eigenvalues    EBANDS =      1669.42195703
  atomic energy  EATOM  =     40708.47505058
  Solvation  Ediel_sol  =         0.00000000
  ---------------------------------------------------
  free energy    TOTEN  =      -384.42589022 eV

  energy without entropy =     -384.37777941  energy(sigma->0) =     -384.40183482


--------------------------------------------------------------------------------------------------------




--------------------------------------- Iteration      1(  11)  ---------------------------------------


    POTLOK:  cpu time    0.1259: real time    0.1263
    SETDIJ:  cpu time    0.0251: real time    0.0252
     EDDAV:  cpu time  152.5115: real time  152.8909
    CHARGE:  cpu time    3.7654: real time    3.7747
    MIXING:  cpu time    0.0038: real time    0.0038
    --------------------------------------------
      LOOP:  cpu time  156.4318: real time  156.8208

 eigenvalue-minimisations  : 54560
 total energy-change (2. order) : 0.1632756E+02  (-0.6672551E+01)
 number of electron     431.9999979 magnetization      16.5913132
 augmentation part      185.3048473 magnetization      13.8437670

 Broyden mixing:
  rms(total) = 0.83165E+01    rms(broyden)= 0.83155E+01
  rms(prec ) = 0.14495E+02
  weight for this iteration     100.00

 eigenvalues of (default mixing * dielectric matrix)
  average eigenvalue GAMMA=   0.5122
  1.6947  0.6645  0.3351  0.1433  0.1177  0.1177

 Free energy of the ion-electron system (eV)
  ---------------------------------------------------
  alpha Z        PSCENC =      1991.78600378
  Ewald energy   TEWEN  =    -36247.46368661
  -Hartree energ DENC   =     -8211.84677190
  -exchange      EXHF   =         0.00000000
  -V(xc)+E(xc)   XCENC  =      1646.47684855
  PAW double counting   =     45568.72565629   -47507.88310525
  entropy T*S    EENTRO =        -0.05304367
  eigenvalues    EBANDS =      1683.68472155
  atomic energy  EATOM  =     40708.47505058
  Solvation  Ediel_sol  =         0.00000000
  ---------------------------------------------------
  free energy    TOTEN  =      -368.09832668 eV

  energy without entropy =     -368.04528301  energy(sigma->0) =     -368.07180485


--------------------------------------------------------------------------------------------------------




--------------------------------------- Iteration      1(  12)  ---------------------------------------


    POTLOK:  cpu time    0.1239: real time    0.1242
    SETDIJ:  cpu time    0.0253: real time    0.0253
     EDDAV:  cpu time  153.3587: real time  153.7399
    CHARGE:  cpu time    3.7141: real time    3.7232
    MIXING:  cpu time    0.0039: real time    0.0039
    --------------------------------------------
      LOOP:  cpu time  157.2258: real time  157.6164

 eigenvalue-minimisations  : 55568
 total energy-change (2. order) : 0.3181408E+02  (-0.1774499E+01)
 number of electron     431.9999981 magnetization      15.1107921
 augmentation part      186.0284383 magnetization      11.7998792

 Broyden mixing:
  rms(total) = 0.41854E+01    rms(broyden)= 0.41847E+01
  rms(prec ) = 0.68459E+01
  weight for this iteration     100.00

 eigenvalues of (default mixing * dielectric matrix)
  average eigenvalue GAMMA=   0.5080
  1.8616  0.6922  0.4482  0.2036  0.1239  0.1239  0.1029

 Free energy of the ion-electron system (eV)
  ---------------------------------------------------
  alpha Z        PSCENC =      1991.78600378
  Ewald energy   TEWEN  =    -36247.46368661
  -Hartree energ DENC   =     -8205.26889584
  -exchange      EXHF   =         0.00000000
  -V(xc)+E(xc)   XCENC  =      1645.87567887
  PAW double counting   =     46061.73689428   -48010.32304263
  entropy T*S    EENTRO =        -0.06177013
  eigenvalues    EBANDS =      1718.95952490
  atomic energy  EATOM  =     40708.47505058
  Solvation  Ediel_sol  =         0.00000000
  ---------------------------------------------------
  free energy    TOTEN  =      -336.28424279 eV

  energy without entropy =     -336.22247266  energy(sigma->0) =     -336.25335773


--------------------------------------------------------------------------------------------------------




--------------------------------------- Iteration      1(  13)  ---------------------------------------


    POTLOK:  cpu time    0.1251: real time    0.1254
    SETDIJ:  cpu time    0.0248: real time    0.0249
     EDDAV:  cpu time  147.5365: real time  147.9034
    CHARGE:  cpu time    3.7798: real time    3.7891
    MIXING:  cpu time    0.0040: real time    0.0040
    --------------------------------------------
      LOOP:  cpu time  151.4703: real time  151.8467

 eigenvalue-minimisations  : 52768
 total energy-change (2. order) : 0.5014605E+01  (-0.2140029E+01)
 number of electron     431.9999986 magnetization      14.3314690
 augmentation part      186.0127438 magnetization      11.6095919

 Broyden mixing:
  rms(total) = 0.32952E+01    rms(broyden)= 0.32939E+01
  rms(prec ) = 0.54959E+01
  weight for this iteration     100.00

 eigenvalues of (default mixing * dielectric matrix)
  average eigenvalue GAMMA=   0.4822
  1.8779  0.7476  0.4345  0.3125  0.1243  0.1243  0.1344  0.1025

 Free energy of the ion-electron system (eV)
  ---------------------------------------------------
  alpha Z        PSCENC =      1991.78600378
  Ewald energy   TEWEN  =    -36247.46368661
  -Hartree energ DENC   =     -8206.53442752
  -exchange      EXHF   =         0.00000000
  -V(xc)+E(xc)   XCENC  =      1645.39434175
  PAW double counting   =     46204.06514405   -48155.37344096
  entropy T*S    EENTRO =        -0.05628652
  eigenvalues    EBANDS =      1728.43766387
  atomic energy  EATOM  =     40708.47505058
  Solvation  Ediel_sol  =         0.00000000
  ---------------------------------------------------
  free energy    TOTEN  =      -331.26963758 eV

  energy without entropy =     -331.21335105  energy(sigma->0) =     -331.24149431


--------------------------------------------------------------------------------------------------------




--------------------------------------- Iteration      1(  14)  ---------------------------------------


    POTLOK:  cpu time    0.1181: real time    0.1184
    SETDIJ:  cpu time    0.0245: real time    0.0246
     EDDAV:  cpu time  160.6863: real time  161.0859
    CHARGE:  cpu time    4.0558: real time    4.0657
    MIXING:  cpu time    0.0052: real time    0.0052
    --------------------------------------------
      LOOP:  cpu time  164.8900: real time  165.2998

 eigenvalue-minimisations  : 59360
 total energy-change (2. order) :-0.2198868E+00  (-0.1982648E+01)
 number of electron     431.9999985 magnetization      14.1576961
 augmentation part      185.5491430 magnetization      11.2948240

 Broyden mixing:
  rms(total) = 0.33710E+01    rms(broyden)= 0.33702E+01
  rms(prec ) = 0.56202E+01
  weight for this iteration     100.00

 eigenvalues of (default mixing * dielectric matrix)
  average eigenvalue GAMMA=   0.4510
  1.8402  0.7638  0.4211  0.4211  0.1691  0.1241  0.1241  0.0978  0.0978

 Free energy of the ion-electron system (eV)
  ---------------------------------------------------
  alpha Z        PSCENC =      1991.78600378
  Ewald energy   TEWEN  =    -36247.46368661
  -Hartree energ DENC   =     -8208.65397492
  -exchange      EXHF   =         0.00000000
  -V(xc)+E(xc)   XCENC  =      1644.92460152
  PAW double counting   =     46197.84287891   -48148.05441402
  entropy T*S    EENTRO =        -0.05379156
  eigenvalues    EBANDS =      1729.70780794
  atomic energy  EATOM  =     40708.47505058
  Solvation  Ediel_sol  =         0.00000000
  ---------------------------------------------------
  free energy    TOTEN  =      -331.48952439 eV

  energy without entropy =     -331.43573283  energy(sigma->0) =     -331.46262861


--------------------------------------------------------------------------------------------------------




--------------------------------------- Iteration      1(  15)  ---------------------------------------


    POTLOK:  cpu time    0.1535: real time    0.1539
    SETDIJ:  cpu time    0.0359: real time    0.0361
     EDDAV:  cpu time  154.4714: real time  154.8554
    CHARGE:  cpu time    4.1334: real time    4.1435
    MIXING:  cpu time    0.0054: real time    0.0054
    --------------------------------------------
      LOOP:  cpu time  158.7997: real time  159.1943

 eigenvalue-minimisations  : 56512
 total energy-change (2. order) : 0.3700775E+01  (-0.8332487E+00)
 number of electron     431.9999985 magnetization      14.2183907
 augmentation part      185.5813084 magnetization      11.3988596

 Broyden mixing:
  rms(total) = 0.15410E+01    rms(broyden)= 0.15402E+01
  rms(prec ) = 0.23520E+01
  weight for this iteration     100.00

 eigenvalues of (default mixing * dielectric matrix)
  average eigenvalue GAMMA=   0.4312
  1.7058  0.8391  0.4804  0.4804  0.2237  0.1359  0.1359  0.1106  0.1106  0.0896

 Free energy of the ion-electron system (eV)
  ---------------------------------------------------
  alpha Z        PSCENC =      1991.78600378
  Ewald energy   TEWEN  =    -36247.46368661
  -Hartree energ DENC   =     -8208.89185154
  -exchange      EXHF   =         0.00000000
  -V(xc)+E(xc)   XCENC  =      1644.68596164
  PAW double counting   =     46164.83554801   -48113.23523583
  entropy T*S    EENTRO =        -0.05329620
  eigenvalues    EBANDS =      1732.07275689
  atomic energy  EATOM  =     40708.47505058
  Solvation  Ediel_sol  =         0.00000000
  ---------------------------------------------------
  free energy    TOTEN  =      -327.78874928 eV

  energy without entropy =     -327.73545308  energy(sigma->0) =     -327.76210118


--------------------------------------------------------------------------------------------------------




--------------------------------------- Iteration      1(  16)  ---------------------------------------


    POTLOK:  cpu time    0.1550: real time    0.1554
    SETDIJ:  cpu time    0.0343: real time    0.0344
     EDDAV:  cpu time  157.7689: real time  158.1609
    CHARGE:  cpu time    3.6893: real time    3.6983
    MIXING:  cpu time    0.0055: real time    0.0055
    --------------------------------------------
      LOOP:  cpu time  161.6530: real time  162.0545

 eigenvalue-minimisations  : 57376
 total energy-change (2. order) : 0.7794125E+00  (-0.2359683E+00)
 number of electron     431.9999985 magnetization      14.0377437
 augmentation part      185.4558561 magnetization      11.2200137

 Broyden mixing:
  rms(total) = 0.11822E+01    rms(broyden)= 0.11820E+01
  rms(prec ) = 0.15836E+01
  weight for this iteration     100.00

 eigenvalues of (default mixing * dielectric matrix)
  average eigenvalue GAMMA=   0.4145
  1.5986  0.9180  0.5262  0.5262  0.2839  0.1428  0.1428  0.1202  0.1202  0.0961
  0.0849

 Free energy of the ion-electron system (eV)
  ---------------------------------------------------
  alpha Z        PSCENC =      1991.78600378
  Ewald energy   TEWEN  =    -36247.46368661
  -Hartree energ DENC   =     -8209.37209391
  -exchange      EXHF   =         0.00000000
  -V(xc)+E(xc)   XCENC  =      1644.61697119
  PAW double counting   =     46117.05926754   -48062.65360216
  entropy T*S    EENTRO =        -0.05349100
  eigenvalues    EBANDS =      1730.59624385
  atomic energy  EATOM  =     40708.47505058
  Solvation  Ediel_sol  =         0.00000000
  ---------------------------------------------------
  free energy    TOTEN  =      -327.00933674 eV

  energy without entropy =     -326.95584574  energy(sigma->0) =     -326.98259124


--------------------------------------------------------------------------------------------------------




--------------------------------------- Iteration      1(  17)  ---------------------------------------


    POTLOK:  cpu time    0.1521: real time    0.1524
    SETDIJ:  cpu time    0.0344: real time    0.0345
     EDDAV:  cpu time  154.1061: real time  154.4892
    CHARGE:  cpu time    3.7688: real time    3.7780
    MIXING:  cpu time    0.0048: real time    0.0049
    --------------------------------------------
      LOOP:  cpu time  158.0662: real time  158.4590

 eigenvalue-minimisations  : 55840
 total energy-change (2. order) :-0.1207971E+00  (-0.1732289E+00)
 number of electron     431.9999985 magnetization      13.5447924
 augmentation part      185.3756041 magnetization      10.7013646

 Broyden mixing:
  rms(total) = 0.12250E+01    rms(broyden)= 0.12248E+01
  rms(prec ) = 0.18178E+01
  weight for this iteration     100.00

 eigenvalues of (default mixing * dielectric matrix)
  average eigenvalue GAMMA=   0.3993
  1.6111  0.8966  0.5255  0.5255  0.3076  0.2385  0.1421  0.1254  0.1254  0.1068
  0.1068  0.0805

 Free energy of the ion-electron system (eV)
  ---------------------------------------------------
  alpha Z        PSCENC =      1991.78600378
  Ewald energy   TEWEN  =    -36247.46368661
  -Hartree energ DENC   =     -8209.71609272
  -exchange      EXHF   =         0.00000000
  -V(xc)+E(xc)   XCENC  =      1644.50053887
  PAW double counting   =     46070.86219456   -48011.98243165
  entropy T*S    EENTRO =        -0.05174441
  eigenvalues    EBANDS =      1726.46003375
  atomic energy  EATOM  =     40708.47505058
  Solvation  Ediel_sol  =         0.00000000
  ---------------------------------------------------
  free energy    TOTEN  =      -327.13013386 eV

  energy without entropy =     -327.07838945  energy(sigma->0) =     -327.10426166


--------------------------------------------------------------------------------------------------------




--------------------------------------- Iteration      1(  18)  ---------------------------------------


    POTLOK:  cpu time    0.1250: real time    0.1253
    SETDIJ:  cpu time    0.0248: real time    0.0249
     EDDAV:  cpu time  141.5417: real time  141.8914
    CHARGE:  cpu time    3.8370: real time    3.8681
    MIXING:  cpu time    0.0074: real time    0.0074
    --------------------------------------------
      LOOP:  cpu time  145.5359: real time  145.9171

 eigenvalue-minimisations  : 54304
 total energy-change (2. order) :-0.6792282E-01  (-0.1575381E+00)
 number of electron     431.9999984 magnetization      12.6411496
 augmentation part      185.3633184 magnetization       9.9010401

 Broyden mixing:
  rms(total) = 0.10899E+01    rms(broyden)= 0.10896E+01
  rms(prec ) = 0.17090E+01
  weight for this iteration     100.00

 eigenvalues of (default mixing * dielectric matrix)
  average eigenvalue GAMMA=   0.4360
  1.6368  0.8431  0.7952  0.7952  0.3928  0.3928  0.1569  0.1264  0.1264  0.1158
  0.1158  0.0945  0.0768

 Free energy of the ion-electron system (eV)
  ---------------------------------------------------
  alpha Z        PSCENC =      1991.78600378
  Ewald energy   TEWEN  =    -36247.46368661
  -Hartree energ DENC   =     -8210.06833135
  -exchange      EXHF   =         0.00000000
  -V(xc)+E(xc)   XCENC  =      1644.43228085
  PAW double counting   =     46092.67891848   -48031.27751470
  entropy T*S    EENTRO =        -0.05134757
  eigenvalues    EBANDS =      1724.29056986
  atomic energy  EATOM  =     40708.47505058
  Solvation  Ediel_sol  =         0.00000000
  ---------------------------------------------------
  free energy    TOTEN  =      -327.19805668 eV

  energy without entropy =     -327.14670911  energy(sigma->0) =     -327.17238289


--------------------------------------------------------------------------------------------------------




--------------------------------------- Iteration      1(  19)  ---------------------------------------


    POTLOK:  cpu time    0.1602: real time    0.1606
    SETDIJ:  cpu time    0.0372: real time    0.0373
     EDDAV:  cpu time  142.2415: real time  142.5786
    CHARGE:  cpu time    2.8807: real time    2.8876
    MIXING:  cpu time    0.0041: real time    0.0041
    --------------------------------------------
      LOOP:  cpu time  145.3237: real time  145.6682

 eigenvalue-minimisations  : 57856
 total energy-change (2. order) :-0.3221148E+00  (-0.1697959E+00)
 number of electron     431.9999985 magnetization      10.7908625
 augmentation part      185.4039308 magnetization       8.1656493

 Broyden mixing:
  rms(total) = 0.12949E+01    rms(broyden)= 0.12946E+01
  rms(prec ) = 0.20439E+01
  weight for this iteration     100.00

 eigenvalues of (default mixing * dielectric matrix)
  average eigenvalue GAMMA=   0.4661
  1.6743  1.1322  1.1322  0.7638  0.4352  0.4352  0.1836  0.1272  0.1272  0.1241
  0.1241  0.1022  0.0899  0.0747

 Free energy of the ion-electron system (eV)
  ---------------------------------------------------
  alpha Z        PSCENC =      1991.78600378
  Ewald energy   TEWEN  =    -36247.46368661
  -Hartree energ DENC   =     -8210.03954554
  -exchange      EXHF   =         0.00000000
  -V(xc)+E(xc)   XCENC  =      1644.37777930
  PAW double counting   =     46164.22281293   -48099.91461239
  entropy T*S    EENTRO =        -0.05446961
  eigenvalues    EBANDS =      1721.09049606
  atomic energy  EATOM  =     40708.47505058
  Solvation  Ediel_sol  =         0.00000000
  ---------------------------------------------------
  free energy    TOTEN  =      -327.52017149 eV

  energy without entropy =     -327.46570189  energy(sigma->0) =     -327.49293669


--------------------------------------------------------------------------------------------------------




--------------------------------------- Iteration      1(  20)  ---------------------------------------


    POTLOK:  cpu time    0.1075: real time    0.1078
    SETDIJ:  cpu time    0.0224: real time    0.0224
     EDDAV:  cpu time  115.2009: real time  115.4870
    CHARGE:  cpu time    3.0756: real time    3.1127
    MIXING:  cpu time    0.0049: real time    0.0075
    --------------------------------------------
      LOOP:  cpu time  118.4114: real time  118.7375

 eigenvalue-minimisations  : 56896
 total energy-change (2. order) : 0.1487921E+00  (-0.1536617E+00)
 number of electron     431.9999985 magnetization      10.0567293
 augmentation part      185.4092751 magnetization       7.8062671

 Broyden mixing:
  rms(total) = 0.91584E+00    rms(broyden)= 0.91547E+00
  rms(prec ) = 0.14653E+01
  weight for this iteration     100.00

 eigenvalues of (default mixing * dielectric matrix)
  average eigenvalue GAMMA=   0.4830
  1.6632  1.2975  1.2975  0.8345  0.4765  0.4765  0.2750  0.1468  0.1468  0.1251
  0.1251  0.1143  0.1033  0.0888  0.0741

 Free energy of the ion-electron system (eV)
  ---------------------------------------------------
  alpha Z        PSCENC =      1991.78600378
  Ewald energy   TEWEN  =    -36247.46368661
  -Hartree energ DENC   =     -8209.22531170
  -exchange      EXHF   =         0.00000000
  -V(xc)+E(xc)   XCENC  =      1644.33619298
  PAW double counting   =     46310.50576022   -48240.02226180
  entropy T*S    EENTRO =        -0.05531520
  eigenvalues    EBANDS =      1714.29218830
  atomic energy  EATOM  =     40708.47505058
  Solvation  Ediel_sol  =         0.00000000
  ---------------------------------------------------
  free energy    TOTEN  =      -327.37137944 eV

  energy without entropy =     -327.31606424  energy(sigma->0) =     -327.34372184


--------------------------------------------------------------------------------------------------------




--------------------------------------- Iteration      1(  21)  ---------------------------------------


    POTLOK:  cpu time    0.1148: real time    0.1151
    SETDIJ:  cpu time    0.0239: real time    0.0240
     EDDAV:  cpu time  123.3707: real time  123.6666
    CHARGE:  cpu time    3.1332: real time    3.1407
    MIXING:  cpu time    0.0053: real time    0.0142
    --------------------------------------------
      LOOP:  cpu time  126.6480: real time  126.9606

 eigenvalue-minimisations  : 58416
 total energy-change (2. order) : 0.7755608E-01  (-0.1186558E+00)
 number of electron     431.9999984 magnetization       8.8943796
 augmentation part      185.3973667 magnetization       6.7997087

 Broyden mixing:
  rms(total) = 0.74496E+00    rms(broyden)= 0.74461E+00
  rms(prec ) = 0.11800E+01
  weight for this iteration     100.00

 eigenvalues of (default mixing * dielectric matrix)
  average eigenvalue GAMMA=   0.4969
  1.6794  1.3616  1.3616  1.1490  0.5209  0.5209  0.3293  0.1646  0.1257  0.1257
  0.1385  0.1109  0.1109  0.0932  0.0849  0.0738

 Free energy of the ion-electron system (eV)
  ---------------------------------------------------
  alpha Z        PSCENC =      1991.78600378
  Ewald energy   TEWEN  =    -36247.46368661
  -Hartree energ DENC   =     -8209.52448243
  -exchange      EXHF   =         0.00000000
  -V(xc)+E(xc)   XCENC  =      1644.38554272
  PAW double counting   =     46359.75935172   -48287.05232705
  entropy T*S    EENTRO =        -0.05569758
  eigenvalues    EBANDS =      1712.39642150
  atomic energy  EATOM  =     40708.47505058
  Solvation  Ediel_sol  =         0.00000000
  ---------------------------------------------------
  free energy    TOTEN  =      -327.29382336 eV

  energy without entropy =     -327.23812579  energy(sigma->0) =     -327.26597457


--------------------------------------------------------------------------------------------------------




--------------------------------------- Iteration      1(  22)  ---------------------------------------


    POTLOK:  cpu time    0.1161: real time    0.1164
    SETDIJ:  cpu time    0.0238: real time    0.0238
     EDDAV:  cpu time  122.6341: real time  122.9379
    CHARGE:  cpu time    3.2040: real time    3.2118
    MIXING:  cpu time    0.0051: real time    0.0051
    --------------------------------------------
      LOOP:  cpu time  125.9831: real time  126.2950

 eigenvalue-minimisations  : 57904
 total energy-change (2. order) :-0.4915638E-01  (-0.6344566E-01)
 number of electron     431.9999985 magnetization       8.4623771
 augmentation part      185.3346821 magnetization       6.6167576

 Broyden mixing:
  rms(total) = 0.64190E+00    rms(broyden)= 0.64169E+00
  rms(prec ) = 0.96892E+00
  weight for this iteration     100.00

 eigenvalues of (default mixing * dielectric matrix)
  average eigenvalue GAMMA=   0.4832
  1.7939  1.3816  1.3816  1.1295  0.5199  0.5199  0.3217  0.1523  0.1523  0.1293
  0.1293  0.1209  0.1209  0.1037  0.0969  0.0864  0.0739

 Free energy of the ion-electron system (eV)
  ---------------------------------------------------
  alpha Z        PSCENC =      1991.78600378
  Ewald energy   TEWEN  =    -36247.46368661
  -Hartree energ DENC   =     -8211.65350514
  -exchange      EXHF   =         0.00000000
  -V(xc)+E(xc)   XCENC  =      1644.63452029
  PAW double counting   =     46425.64007718   -48351.01050183
  entropy T*S    EENTRO =        -0.05371235
  eigenvalues    EBANDS =      1712.30277436
  atomic energy  EATOM  =     40708.47505058
  Solvation  Ediel_sol  =         0.00000000
  ---------------------------------------------------
  free energy    TOTEN  =      -327.34297974 eV

  energy without entropy =     -327.28926739  energy(sigma->0) =     -327.31612357


--------------------------------------------------------------------------------------------------------




--------------------------------------- Iteration      1(  23)  ---------------------------------------


    POTLOK:  cpu time    0.1145: real time    0.1148
    SETDIJ:  cpu time    0.0240: real time    0.0240
[...]
  in kB      277.4028263    271.8585772    265.2455432      8.0191195     -3.0651372     -7.9181723
  external PRESSURE =     271.5023156 kB  Pullay stress =       0.0000000 kB


 VOLUME and BASIS-vectors are now :
 -----------------------------------------------------------------------------
  energy-cutoff  :      500.00
  volume of cell :      434.28
      direct lattice vectors                 reciprocal lattice vectors
     8.504359500  0.000000000  0.000000000     0.117586751  0.067888742  0.000000000
    -4.252179750  7.364991370  0.000000000     0.000000000  0.135777484  0.000000000
     0.000000000  0.000000000  6.933488250     0.000000000  0.000000000  0.144227547

  length of vectors
     8.504359500  8.504359500  6.933488250     0.135777484  0.135777484  0.144227547


 FORCES acting on ions
    electron-ion (+dipol)            ewald-force                    non-local-force                 convergence-correction
 -----------------------------------------------------------------------------------------------
   -.520E+02 -.485E+02 -.900E+02   0.546E+02 0.487E+02 0.935E+02   -.182E+01 -.282E+00 -.977E+00   -.362E+00 0.363E+00 0.269E+00
   -.111E+03 -.162E+03 0.422E+02   0.113E+03 0.164E+03 -.438E+02   -.100E+01 -.499E+00 0.130E+01   -.277E-01 0.208E+00 -.416E+00
   -.100E+02 -.707E+02 0.101E+03   0.114E+02 0.725E+02 -.103E+03   -.166E+01 -.248E+01 0.826E+00   -.399E+00 0.461E+00 0.466E+00
   -.687E+02 -.894E+02 -.334E+02   0.705E+02 0.903E+02 0.352E+02   0.288E+00 0.956E-01 -.126E+01   -.354E-01 0.314E-01 0.204E-01
   -.110E+03 -.825E+02 -.144E+02   0.112E+03 0.835E+02 0.145E+02   -.942E+00 -.170E+00 -.221E+00   -.242E+00 0.148E-02 -.321E+00
   -.118E+03 -.131E+02 0.110E+03   0.119E+03 0.149E+02 -.113E+03   0.713E+00 -.688E+00 0.981E+00   0.168E+00 -.384E+00 0.365E+00
   -.745E+02 0.367E+02 -.110E+03   0.756E+02 -.364E+02 0.112E+03   0.618E+00 0.265E+00 -.564E-01   0.208E+00 -.508E+00 0.665E-01
   -.722E+02 0.301E+02 0.531E+02   0.745E+02 -.308E+02 -.522E+02   -.151E+01 0.569E+00 -.142E+01   0.232E+00 -.229E+00 -.164E+00
   -.918E+02 -.136E+02 0.869E+02   0.940E+02 0.121E+02 -.881E+02   -.736E+00 0.630E+00 0.431E+00   0.113E+00 -.113E+00 0.205E+00
   0.534E+02 -.380E+02 -.158E+03   -.547E+02 0.379E+02 0.162E+03   -.158E+01 0.578E+00 -.533E+00   0.224E+00 0.411E-02 0.872E-01
   0.319E+02 -.758E+02 0.263E+02   -.336E+02 0.774E+02 -.276E+02   0.184E+01 -.107E+01 0.854E+00   0.300E+00 0.522E-01 -.211E+00
   -.266E+01 -.562E+02 0.975E+02   0.142E+01 0.582E+02 -.100E+03   0.901E+00 -.220E+01 0.163E+01   0.211E+00 0.145E+00 0.169E+00
   -.711E+02 -.132E+01 -.115E+03   0.720E+02 0.175E+01 0.118E+03   -.120E+00 -.120E+01 -.139E+01   -.372E+00 0.153E+00 0.609E-01
   0.240E+02 0.589E+02 0.178E+02   -.246E+02 -.595E+02 -.183E+02   0.543E+00 -.493E+00 0.109E+00   -.992E-02 0.758E-01 -.151E+00
   -.395E+01 0.370E+02 0.111E+03   0.356E+01 -.365E+02 -.115E+03   0.705E+00 -.884E+00 0.196E+01   -.180E+00 0.102E+00 0.166E+00
   0.278E+02 -.229E+02 -.905E+02   -.262E+02 0.235E+02 0.937E+02   -.214E+01 0.743E+00 -.117E+01   -.553E-01 -.339E+00 -.112E+00
   0.300E+02 0.167E+03 0.728E+02   -.306E+02 -.170E+03 -.741E+02   0.719E+00 -.117E+01 -.109E+01   -.614E-01 0.442E-03 -.754E-01
   -.251E+02 0.927E+02 0.644E+02   0.248E+02 -.947E+02 -.670E+02   0.112E+01 -.121E+00 0.205E+01   0.255E+00 -.146E+00 0.118E+00
   0.118E+03 0.682E+02 -.135E+03   -.121E+03 -.708E+02 0.140E+03   0.351E+00 0.131E+00 -.274E+00   0.126E+00 0.379E+00 0.103E+00
   0.414E+02 0.657E+00 -.785E+02   -.427E+02 -.219E+00 0.780E+02   0.103E+00 -.160E+01 0.190E+01   -.260E+00 0.325E+00 -.546E+00
   0.655E+02 -.364E+01 0.906E+02   -.661E+02 0.561E+01 -.949E+02   -.111E+00 -.237E+01 0.363E+01   0.157E+00 0.175E+00 0.405E+00
   0.881E+02 -.521E+02 -.116E+03   -.908E+02 0.528E+02 0.118E+03   0.163E+01 0.189E+00 -.147E+00   0.542E+00 -.127E-01 0.108E+00
   0.933E+02 -.172E+02 -.632E+02   -.956E+02 0.168E+02 0.639E+02   0.272E+00 0.610E+00 0.721E+00   0.239E+00 -.290E+00 -.436E+00
   0.680E+02 0.123E+03 0.836E+02   -.689E+02 -.123E+03 -.869E+02   0.475E+00 -.112E+01 0.280E+01   0.245E-01 -.261E+00 0.172E+00
   0.651E+02 0.108E+03 -.117E+03   -.661E+02 -.110E+03 0.119E+03   0.952E+00 0.773E+00 0.627E-01   -.160E+00 -.189E-01 0.250E-01
   0.655E+02 0.103E+03 -.617E+02   -.660E+02 -.106E+03 0.621E+02   -.649E+00 0.115E+01 0.191E+01   -.159E+00 -.127E+00 -.292E+00
   0.773E+02 0.673E+02 0.792E+02   -.779E+02 -.681E+02 -.829E+02   0.118E+00 -.128E+00 0.339E+01   -.401E+00 0.430E-02 0.235E+00
   0.342E+02 -.478E+02 0.486E+02   -.387E+02 0.493E+02 -.507E+02   0.400E+01 -.454E+00 0.126E+01   -.237E+00 0.114E+00 -.214E+00
   -.801E+02 -.902E+02 -.957E+01   0.857E+02 0.930E+02 0.117E+02   -.430E+01 -.133E+01 -.314E+01   -.870E-01 0.203E+00 0.437E+00
   -.106E+03 -.486E+02 -.307E+02   0.113E+03 0.480E+02 0.282E+02   -.545E+01 0.122E+01 0.246E+01   -.462E+00 0.250E+00 -.465E+00
   -.181E+02 -.215E+02 -.110E+02   0.191E+02 0.210E+02 0.127E+02   -.404E+00 0.427E+00 -.124E+01   -.138E+00 0.147E+00 -.196E-02
   0.245E+01 -.185E+02 0.325E+02   -.530E+01 0.173E+02 -.335E+02   0.259E+01 0.924E+00 -.325E+00   -.464E+00 -.102E+00 0.301E+00
   -.677E+02 -.556E+02 -.232E+02   0.719E+02 0.600E+02 0.204E+02   -.339E+01 -.282E+01 0.286E+01   -.220E-01 -.552E+00 -.305E+00
   -.239E+02 0.608E+02 0.584E+02   0.244E+02 -.611E+02 -.609E+02   -.384E+00 0.376E+00 0.230E+01   0.163E+00 -.381E+00 -.982E-01
   -.871E+02 0.479E+02 0.137E+02   0.906E+02 -.512E+02 -.164E+02   -.297E+01 0.185E+01 0.193E+01   0.311E+00 -.208E+00 0.156E+00
   -.114E+03 -.233E+02 -.154E+02   0.121E+03 0.249E+02 0.971E+01   -.532E+01 -.164E+01 0.525E+01   -.158E-01 0.541E-01 -.126E+00
   0.101E+02 -.498E+02 0.407E+02   -.146E+02 0.504E+02 -.404E+02   0.291E+01 0.864E+00 -.866E+00   0.377E+00 -.400E-01 -.995E-01
   0.152E+02 -.618E+02 0.345E+02   -.127E+02 0.651E+02 -.350E+02   -.186E+01 -.147E+01 -.168E+01   0.159E+00 -.607E-01 0.859E-01
   0.263E+02 -.364E+02 -.505E+02   -.287E+02 0.361E+02 0.514E+02   0.204E+01 0.606E+00 -.742E+00   0.607E-01 0.259E-01 -.734E-01
   -.507E+02 -.308E+02 0.534E+02   0.526E+02 0.313E+02 -.562E+02   -.108E+01 -.671E+00 0.249E+01   -.193E-01 0.248E+00 -.485E-01
   0.123E+02 0.190E+02 0.212E+02   -.123E+02 -.185E+02 -.219E+02   0.168E+00 -.853E+00 -.763E+00   -.851E-01 0.191E+00 0.139E+00
   -.828E+01 -.591E+01 -.794E+02   0.784E+01 0.850E+01 0.816E+02   0.717E+00 -.217E+01 -.119E+01   0.293E-01 0.130E-01 -.129E+00
   -.123E+02 0.366E+02 0.193E+02   0.114E+02 -.364E+02 -.184E+02   0.735E+00 -.710E+00 -.713E+00   0.649E-01 -.238E-01 0.140E+00
   0.371E+02 0.394E+02 0.386E+02   -.391E+02 -.379E+02 -.414E+02   0.208E+01 -.163E+01 0.138E+01   -.326E-02 -.683E-01 0.252E-01
   0.195E+01 0.410E+02 -.386E+02   0.684E+00 -.426E+02 0.366E+02   -.275E+01 0.107E+01 0.255E+01   0.965E-01 0.574E-01 -.410E-01
   0.113E+02 -.574E+02 -.798E+01   -.943E+01 0.658E+02 0.125E+02   -.154E+01 -.514E+01 -.300E+01   -.148E+00 -.606E-02 -.314E-01
   -.178E+02 -.668E+02 0.901E+02   0.219E+02 0.733E+02 -.980E+02   -.214E+01 -.497E+01 0.334E+01   -.156E+00 0.560E+00 0.548E+00
   0.963E+02 0.115E+02 -.834E+02   -.102E+03 -.163E+02 0.883E+02   0.418E+01 0.400E+01 -.389E+01   0.433E+00 0.322E+00 -.455E+00
   0.517E+02 -.121E+02 0.325E+02   -.528E+02 0.137E+02 -.340E+02   0.447E+00 -.141E+01 0.161E+01   0.164E+00 -.103E-01 -.969E-01
   0.497E+02 0.136E+02 0.352E+02   -.552E+02 -.135E+02 -.368E+02   0.359E+01 -.343E+00 0.529E+00   0.575E+00 -.356E+00 0.363E+00
   0.654E+02 0.975E+02 -.479E+02   -.686E+02 -.103E+03 0.489E+02   0.238E+01 0.514E+01 -.755E+00   0.182E-01 -.131E+00 -.130E+00
   0.314E+02 0.381E+02 0.348E+02   -.309E+02 -.346E+02 -.349E+02   -.407E+00 -.311E+01 0.452E-01   -.217E+00 -.927E-01 -.268E-01
   0.441E+02 0.408E+02 0.365E+02   -.457E+02 -.399E+02 -.410E+02   -.100E+00 -.655E+00 0.262E+01   -.264E+00 -.167E+00 0.362E+00
   0.624E+02 0.558E+02 -.728E+02   -.649E+02 -.572E+02 0.753E+02   0.204E+01 0.114E+01 -.211E+01   -.126E+00 0.628E-01 -.205E+00
 -----------------------------------------------------------------------------------------------
   0.506E+01 0.224E+02 -.266E+02   0.284E-12 0.114E-12 -.853E-13   -.513E+01 -.225E+02 0.263E+02   0.810E-01 0.104E+00 0.326E+00
 
 
 POSITION                                       TOTAL-FORCE (eV/Angst)
 -----------------------------------------------------------------------------------
      0.00456      0.05456      6.83614         0.422753      0.296834      2.819657
      1.38440      0.72448      2.49089         1.022743      1.834761     -0.742539
      0.08639      1.78884      4.78061        -0.608524     -0.243377     -0.730391
      7.04735      2.50749      0.06734         2.106576      1.026914      0.550439
     -0.03035      3.34852      2.39160         1.152063      0.817158     -0.412912
     -1.53607      4.17243      4.76764         1.813237      0.798011     -1.419885
      5.62060      4.97769      6.90844         1.902426     -0.015339      2.221936
     -1.47419      5.82851      2.37463         0.992744     -0.380818     -0.739958
     -2.90030      6.71831      4.73309         1.625733     -1.027371     -0.585432
      2.98514      0.03485      6.89292        -2.640473      0.493167      2.993459
      4.27909      0.85584      2.43165         0.405353      0.620879     -0.602614
      2.91225      1.77245      4.76756        -0.131443      0.017015     -0.861033
      1.45920      2.52869      0.02145         0.392723     -0.619974      1.456294
      2.84997      3.43347      2.38843        -0.071832     -0.986427     -0.486536
      1.42313      4.24312      4.75870         0.136796     -0.284281     -1.094613
      0.02477      4.96933      6.82396        -0.639538      1.022621      1.932469
      1.43196      6.00248      2.42790         0.042162     -4.162671     -2.483441
      0.00418      6.83884      4.73115         1.099917     -2.235847     -0.399402
      5.88204      0.12657      6.84146        -2.878859     -2.006134      4.233022
      7.28895      0.92092      2.35926        -1.445407     -0.841086      0.808675
      5.78609      1.74072      4.71320        -0.523254     -0.219914     -0.284485
      4.35219      2.43043      6.87297        -0.569651      0.910670      1.795575
      5.83619      3.33779      2.29257        -1.809941      0.010467      0.998628
      4.28925      4.24406      4.66454        -0.462291     -1.116516     -0.338618
      2.88196      5.02734      6.88797        -0.237267     -0.557677      2.079656
      4.33507      5.87892      2.25306        -1.324098     -1.246639      1.940913
      2.91248      6.71221      4.72849        -0.900940     -0.957438     -0.086166
     -4.20336      7.30582      3.65145        -0.743647      1.227754     -1.106342
      1.39756      0.80611      5.90712         1.245479      1.687540     -0.601405
     -0.03958      1.72159      1.17370         1.165244      0.868924     -0.581951
     -1.39542      2.52600      3.52199         0.503356      0.081348      0.464141
      0.07213      3.34615      5.92760        -0.717146     -0.430100     -1.007266
     -1.44467      4.19346      1.15816         0.798308      0.997388     -0.265470
     -2.87995      5.12102      3.60594         0.284435     -0.294575     -0.395335
     -1.61051      5.93220      5.83254         0.835866     -1.596376     -0.672899
     -2.99644      6.72092      1.11768         2.055270      0.010645     -0.531259
     -1.30482      7.34969      3.57453        -1.153500      1.453455     -0.700712
      4.34993      0.74502      6.04966         0.800554      1.828081     -2.100897
      2.90010      1.68440      1.25176        -0.325138      0.378409      0.066351
      1.40611      2.52552      3.55567         0.768966      0.088197     -0.271146
      2.92428      3.37597      5.96173         0.048402     -0.159279     -1.301829
      1.39364      4.19668      1.13916         0.303391      0.433640      0.954870
     -0.00935      5.07861      3.57100        -0.131150     -0.459870      0.306072
      1.45015      5.85178      5.92276         0.014068     -0.282497     -1.393895
      0.05259      6.64905      1.15180        -0.019094     -0.533305      0.492989
      1.52666      7.33641      3.48613         0.205933      3.300979      1.482800
      7.14894      0.89701      6.01044         1.775956      2.139401     -3.994574
      5.82617      1.66853      1.21022        -1.308169     -0.533054      0.560585
      4.41810      2.54215      3.50554        -0.454664      0.215618      0.020272
      5.79905      3.36513      5.94408        -1.324122     -0.649917     -0.709872
      4.37398      4.26791      1.23160        -0.796763     -0.946277      0.124661
      2.84222      5.00710      3.51741        -0.130024      0.335508     -0.135034
      4.35817      5.75350      5.90949        -1.985149      0.086318     -1.517527
      2.93112      6.67027      1.13803        -0.588366     -0.194946      0.251972
 -----------------------------------------------------------------------------------
    total drift:                                0.009181      0.003228      0.014648


--------------------------------------------------------------------------------------------------------



  FREE ENERGIE OF THE ION-ELECTRON SYSTEM (eV)
  ---------------------------------------------------
  free  energy   TOTEN  =      -327.9127370373 eV

  energy  without entropy=     -327.8769166948  energy(sigma->0) =     -327.89482687
 


--------------------------------------------------------------------------------------------------------


    POTLOK:  cpu time    0.1487: real time    0.1491


--------------------------------------------------------------------------------------------------------


     LOOP+:  cpu time11130.4508: real time11158.1569
    4ORBIT:  cpu time    0.0000: real time    0.0000

volume of typ            1:    39.6 %

volume of typ            2:    10.1 %
 
total charge     
 
# of ion       s       p       d       tot
------------------------------------------
    1        0.265   0.354   8.026   8.645
    2        0.206   0.232   8.023   8.461
    3        0.209   0.239   8.062   8.510
    4        0.251   0.321   7.986   8.558
    5        0.209   0.234   7.984   8.427
    6        0.212   0.242   8.013   8.468
    7        0.256   0.329   8.011   8.596
    8        0.207   0.232   7.991   8.430
    9        0.263   0.343   8.043   8.649
   10        0.251   0.313   8.008   8.572
   11        0.214   0.245   7.980   8.438
   12        0.187   0.198   8.043   8.428
   13        0.219   0.258   7.983   8.461
   14        0.202   0.220   7.968   8.390
   15        0.205   0.229   8.016   8.450
   16        0.222   0.261   7.998   8.481
   17        0.237   0.280   8.013   8.530
   18        0.234   0.278   8.026   8.539
   19        0.271   0.357   8.041   8.669
   20        0.223   0.263   8.011   8.497
   21        0.200   0.223   8.050   8.473
   22        0.219   0.255   8.015   8.488
   23        0.226   0.263   7.991   8.480
   24        0.215   0.245   8.007   8.467
   25        0.229   0.276   8.011   8.517
   26        0.239   0.293   8.012   8.544
   27        0.216   0.256   8.048   8.520
   28        1.255   2.840   0.013   4.109
   29        1.259   2.829   0.012   4.100
   30        1.265   2.799   0.009   4.073
   31        1.252   2.820   0.010   4.082
   32        1.258   2.820   0.012   4.090
   33        1.256   2.814   0.009   4.079
   34        1.262   2.806   0.009   4.077
   35        1.266   2.819   0.011   4.096
   36        1.263   2.816   0.011   4.089
   37        1.263   2.807   0.012   4.081
   38        1.254   2.865   0.017   4.135
   39        1.264   2.769   0.006   4.039
   40        1.265   2.770   0.008   4.043
   41        1.253   2.820   0.011   4.084
   42        1.265   2.771   0.007   4.043
   43        1.268   2.762   0.007   4.037
   44        1.257   2.826   0.012   4.094
   45        1.267   2.782   0.008   4.057
   46        1.261   2.825   0.013   4.098
   47        1.256   2.873   0.018   4.147
   48        1.265   2.800   0.010   4.074
   49        1.261   2.782   0.008   4.050
   50        1.257   2.841   0.014   4.112
   51        1.263   2.795   0.009   4.067
   52        1.266   2.781   0.008   4.055
   53        1.266   2.842   0.015   4.123
   54        1.271   2.794   0.010   4.075
--------------------------------------------------
tot          40.14   83.11  216.65  339.90
 
magnetization (x)
 
# of ion       s       p       d       tot
------------------------------------------
    1        0.001   0.002  -0.663  -0.660
    2       -0.001  -0.001  -0.848  -0.850
    3        0.003  -0.000  -0.242  -0.239
    4       -0.001  -0.001  -0.781  -0.783
    5        0.001   0.001   1.069   1.071
    6        0.000  -0.000  -1.016  -1.016
    7       -0.000  -0.000  -0.898  -0.899
    8       -0.000  -0.001   1.116   1.115
    9        0.001   0.002  -0.268  -0.266
   10       -0.000   0.004   0.921   0.925
   11        0.002   0.001  -1.041  -1.039
   12        0.002   0.000  -1.047  -1.044
   13       -0.002  -0.002   1.128   1.124
   14        0.001   0.002  -1.047  -1.043
   15       -0.002  -0.001  -0.457  -0.459
   16        0.003   0.003   1.091   1.096
   17        0.002   0.001  -0.310  -0.307
   18        0.004   0.004   0.791   0.799
   19       -0.001  -0.003  -0.624  -0.628
   20       -0.000  -0.001  -1.037  -1.037
   21        0.001   0.001   1.009   1.011
   22       -0.001   0.000   1.026   1.025
   23        0.002   0.001   0.969   0.972
   24        0.003   0.002   1.131   1.135
   25        0.001   0.002   0.462   0.465
   26        0.000  -0.000   0.482   0.482
   27       -0.004  -0.002   1.049   1.044
   28       -0.005   0.002  -0.000  -0.003
   29       -0.002  -0.030  -0.000  -0.032
   30       -0.005  -0.021  -0.000  -0.027
   31        0.002   0.025   0.000   0.028
   32       -0.000  -0.006   0.000  -0.006
   33        0.007   0.054   0.000   0.061
   34        0.009   0.059   0.000   0.068
   35        0.003   0.006   0.000   0.010
   36       -0.004  -0.018  -0.000  -0.023
   37       -0.001  -0.041   0.000  -0.041
   38        0.009   0.098  -0.000   0.106
   39        0.000   0.004  -0.000   0.004
   40       -0.001  -0.060   0.000  -0.061
   41        0.012   0.067   0.000   0.079
   42        0.007   0.078   0.000   0.086
   43        0.003   0.034   0.000   0.037
   44        0.010   0.064   0.000   0.074
   45        0.002   0.044  -0.000   0.046
   46        0.002   0.031  -0.000   0.033
   47       -0.004  -0.008  -0.000  -0.012
   48       -0.007  -0.041  -0.000  -0.048
   49        0.001  -0.001   0.000  -0.000
   50       -0.000  -0.012  -0.000  -0.012
   51       -0.001   0.013  -0.000   0.013
   52        0.001   0.024  -0.000   0.025
   53       -0.001  -0.011  -0.000  -0.013
   54       -0.001  -0.023   0.000  -0.024
--------------------------------------------------
tot           0.05    0.34    1.97    2.36
 

 total amount of memory used by VASP MPI-rank0   360482. kBytes
=======================================================================

   base      :      30000. kBytes
   nonlr-proj:      39909. kBytes
   fftplans  :       4688. kBytes
   grid      :      26804. kBytes
   one-center:       1679. kBytes
   wavefun   :     257402. kBytes
 
  
  
 General timing and accounting informations for this job:
 ========================================================
  
                  Total CPU time used (sec):    11193.409
                            User time (sec):    11177.478
                          System time (sec):       15.930
                         Elapsed time (sec):    11224.921
  
                   Maximum memory used (kb):      464232.
                   Average memory used (kb):           0.
  
                          Minor page faults:        46425
                          Major page faults:           24
                 Voluntary context switches:         1187
