 vasp.5.4.4.18Apr17-6-g9f103f2a35 (build May 12 2020 04:58:55) complex          
  
 MD_VERSION_INFO: Compiled 2020-05-12T11:58:55-UTC in devlin.sd.materialsdesign.
 com:/home/medea2/data/build/wwolf/vasp-gpu5.4.4/13047/x86_64/src/src/build/std 
 from svn 13047
 
 This VASP executable licensed from Materials Design, Inc.
 
 executed on                        Lin64 date 2022.11.17  13:35:22
 running on   16 total cores
 distrk:  each k-point on   16 cores,    1 groups
 distr:  one band on NCORES_PER_BAND=   1 cores,   16 groups


--------------------------------------------------------------------------------------------------------


 INCAR:
 POTCAR:    PAW_PBE Li_sv 10Sep2004               
 POTCAR:    PAW_PBE Mn_pv 02Aug2007               
 POTCAR:    PAW_PBE O 08Apr2002                   
 POTCAR:    PAW_PBE Co 02Aug2007                  
 POTCAR:    PAW_PBE Ni 02Aug2007                  

 ----------------------------------------------------------------------------- 
|                                                                             |
|           W    W    AA    RRRRR   N    N  II  N    N   GGGG   !!!           |
|           W    W   A  A   R    R  NN   N  II  NN   N  G    G  !!!           |
|           W    W  A    A  R    R  N N  N  II  N N  N  G       !!!           |
|           W WW W  AAAAAA  RRRRR   N  N N  II  N  N N  G  GGG   !            |
|           WW  WW  A    A  R   R   N   NN  II  N   NN  G    G                |
|           W    W  A    A  R    R  N    N  II  N    N   GGGG   !!!           |
|                                                                             |
|      For optimal performance we recommend to set                            |
|        NCORE= 4 - approx SQRT( number of cores)                             |
|      NCORE specifies how many cores store one orbital (NPAR=cpu/NCORE).     |
|      This setting can  greatly improve the performance of VASP for DFT.     |
|      The default,   NCORE=1            might be grossly inefficient         |
|      on modern multi-core architectures or massively parallel machines.     |
|      Do your own testing !!!!                                               |
|      Unfortunately you need to use the default for GW and RPA calculations. |
|      (for HF NCORE is supported but not extensively tested yet)             |
|                                                                             |
 ----------------------------------------------------------------------------- 


 ----------------------------------------------------------------------------- 
|                                                                             |
|  ADVICE TO THIS USER RUNNING 'VASP/VAMP'   (HEAR YOUR MASTER'S VOICE ...):  |
|                                                                             |
|      You have switched on vdW-DFT.                                          |
|      This routine was written and supplied by Jiri Klimes.                  |
|      We recommed that you carefully read and cite the following             |
|      publication                                                            |
|      J. Klimes, D.R. Bowler, A. Michelides                                  |
|        J. Phys.: Cond Matt. 22 022201 (2010)                                |
|      J. Klimes, D.R. Bowler, A. Michelides                                  |
|        Phys. Rev. B. 83, 195131 (2011)                                      |
|      and references therein.                                                |
|                                                                             |
 ----------------------------------------------------------------------------- 

 POTCAR:    PAW_PBE Li_sv 10Sep2004               
  local pseudopotential read in
  atomic valenz-charges read in
  non local Contribution for L=           0  read in
    real space projection operators read in
  non local Contribution for L=           0  read in
    real space projection operators read in
  non local Contribution for L=           1  read in
    real space projection operators read in
    PAW grid and wavefunctions read in
 
   number of l-projection  operators is LMAX  =           3
   number of lm-projection operators is LMMAX =           5
 
 POTCAR:    PAW_PBE Mn_pv 02Aug2007               
  local pseudopotential read in
  partial core-charges read in
  partial kinetic energy density read in
  atomic valenz-charges read in
  non local Contribution for L=           1  read in
    real space projection operators read in
  non local Contribution for L=           1  read in
    real space projection operators read in
  non local Contribution for L=           2  read in
    real space projection operators read in
  non local Contribution for L=           2  read in
    real space projection operators read in
  non local Contribution for L=           0  read in
    real space projection operators read in
  non local Contribution for L=           0  read in
    real space projection operators read in
    PAW grid and wavefunctions read in
 
   number of l-projection  operators is LMAX  =           6
   number of lm-projection operators is LMMAX =          18
 
 POTCAR:    PAW_PBE O 08Apr2002                   
  local pseudopotential read in
  partial core-charges read in
  partial kinetic energy density read in
  kinetic energy density of atom read in
  atomic valenz-charges read in
  non local Contribution for L=           0  read in
    real space projection operators read in
  non local Contribution for L=           0  read in
    real space projection operators read in
  non local Contribution for L=           1  read in
    real space projection operators read in
  non local Contribution for L=           1  read in
    real space projection operators read in
    PAW grid and wavefunctions read in
 
   number of l-projection  operators is LMAX  =           4
   number of lm-projection operators is LMMAX =           8
 
 POTCAR:    PAW_PBE Co 02Aug2007                  
  local pseudopotential read in
  partial core-charges read in
  partial kinetic energy density read in
  atomic valenz-charges read in
  non local Contribution for L=           2  read in
    real space projection operators read in
  non local Contribution for L=           2  read in
    real space projection operators read in
  non local Contribution for L=           0  read in
    real space projection operators read in
  non local Contribution for L=           0  read in
    real space projection operators read in
  non local Contribution for L=           1  read in
    real space projection operators read in
  non local Contribution for L=           1  read in
    real space projection operators read in
    PAW grid and wavefunctions read in
 
   number of l-projection  operators is LMAX  =           6
   number of lm-projection operators is LMMAX =          18
 
 POTCAR:    PAW_PBE Ni 02Aug2007                  
  local pseudopotential read in
  partial core-charges read in
  partial kinetic energy density read in
  atomic valenz-charges read in
  non local Contribution for L=           2  read in
    real space projection operators read in
  non local Contribution for L=           2  read in
    real space projection operators read in
  non local Contribution for L=           0  read in
    real space projection operators read in
  non local Contribution for L=           0  read in
    real space projection operators read in
  non local Contribution for L=           1  read in
    real space projection operators read in
  non local Contribution for L=           1  read in
    real space projection operators read in
    PAW grid and wavefunctions read in
 
   number of l-projection  operators is LMAX  =           6
   number of lm-projection operators is LMMAX =          18
 
 Optimization of the real space projectors (new method)

 maximal supplied QI-value         = 22.11
 optimisation between [QCUT,QGAM] = [ 11.28, 22.77] = [ 35.61,145.23] Ry 
 Optimized for a Real-space Cutoff    1.10 Angstroem

   l    n(q)    QCUT    max X(q) W(low)/X(q) W(high)/X(q)  e(spline) 
   0      7    11.276    10.506    0.54E-04    0.58E-04    0.16E-07
   0      7    11.276     8.367    0.11E-03    0.14E-03    0.35E-07
   1      7    11.276     8.983    0.23E-03    0.43E-03    0.86E-07
 Optimization of the real space projectors (new method)

 maximal supplied QI-value         = 16.25
 optimisation between [QCUT,QGAM] = [ 11.38, 22.75] = [ 36.24,144.96] Ry 
 Optimized for a Real-space Cutoff    1.47 Angstroem

   l    n(q)    QCUT    max X(q) W(low)/X(q) W(high)/X(q)  e(spline) 
   1     10    11.376     3.658    0.62E-04    0.11E-03    0.11E-06
   1     10    11.376     5.612    0.12E-03    0.20E-03    0.19E-06
   2      9    11.376    55.373    0.10E-03    0.85E-04    0.19E-06
   2      9    11.376    50.863    0.11E-03    0.88E-04    0.19E-06
   0     10    11.376    79.536    0.52E-04    0.21E-04    0.79E-07
   0     10    11.376    38.668    0.45E-04    0.19E-04    0.74E-07
 Optimization of the real space projectors (new method)

 maximal supplied QI-value         = 24.76
 optimisation between [QCUT,QGAM] = [ 11.39, 22.77] = [ 36.31,145.25] Ry 
 Optimized for a Real-space Cutoff    1.10 Angstroem

   l    n(q)    QCUT    max X(q) W(low)/X(q) W(high)/X(q)  e(spline) 
   0      7    11.387    20.381    0.22E-03    0.48E-03    0.18E-06
   0      7    11.387    15.268    0.22E-03    0.52E-03    0.19E-06
   1      7    11.387     5.964    0.22E-03    0.73E-03    0.24E-06
   1      7    11.387     5.382    0.19E-03    0.60E-03    0.21E-06
 Optimization of the real space projectors (new method)

 maximal supplied QI-value         = 16.25
 optimisation between [QCUT,QGAM] = [ 11.38, 22.75] = [ 36.24,144.96] Ry 
 Optimized for a Real-space Cutoff    1.43 Angstroem

   l    n(q)    QCUT    max X(q) W(low)/X(q) W(high)/X(q)  e(spline) 
   2      9    11.376    65.824    0.18E-03    0.28E-04    0.14E-06
   2      9    11.376    61.429    0.18E-03    0.29E-04    0.14E-06
   0     10    11.376    56.174    0.51E-04    0.12E-03    0.20E-06
   0     10    11.376    31.263    0.46E-04    0.11E-03    0.18E-06
   1      9    11.376    19.828    0.23E-03    0.17E-03    0.10E-06
   1      9    11.376    15.139    0.20E-03    0.14E-03    0.89E-07
 Optimization of the real space projectors (new method)

 maximal supplied QI-value         = 16.25
 optimisation between [QCUT,QGAM] = [ 11.38, 22.75] = [ 36.24,144.96] Ry 
 Optimized for a Real-space Cutoff    1.47 Angstroem

   l    n(q)    QCUT    max X(q) W(low)/X(q) W(high)/X(q)  e(spline) 
   2      9    11.376    60.317    0.17E-03    0.16E-04    0.16E-06
   2      9    11.376    55.921    0.17E-03    0.16E-04    0.17E-06
   0     10    11.376    51.690    0.45E-04    0.60E-04    0.21E-06
   0     10    11.376    30.015    0.37E-04    0.55E-04    0.19E-06
   1     10    11.376    18.849    0.83E-04    0.11E-03    0.92E-07
   1     10    11.376    14.624    0.69E-04    0.92E-04    0.82E-07

 ----------------------------------------------------------------------------- 
|                                                                             |
|  ADVICE TO THIS USER RUNNING 'VASP/VAMP'   (HEAR YOUR MASTER'S VOICE ...):  |
|                                                                             |
|      You enforced a specific xc-type in the INCAR file,                     |
|      a different type was found on the POTCAR file                          |
|          I HOPE YOU KNOW, WHAT YOU ARE  DOING                               |
|                                                                             |
 ----------------------------------------------------------------------------- 

  PAW_PBE Li_sv 10Sep2004               :
 energy of atom  1       EATOM= -202.7858
 kinetic energy error for atom=    0.0143 (will be added to EATOM!!)
  PAW_PBE Mn_pv 02Aug2007               :
 energy of atom  2       EATOM=-2025.2664
 kinetic energy error for atom=    0.0062 (will be added to EATOM!!)
  PAW_PBE O 08Apr2002                   :
 energy of atom  3       EATOM= -432.3788
 kinetic energy error for atom=    0.0224 (will be added to EATOM!!)
  PAW_PBE Co 02Aug2007                  :
 energy of atom  4       EATOM= -813.3670
 kinetic energy error for atom=    0.0028 (will be added to EATOM!!)
  PAW_PBE Ni 02Aug2007                  :
 energy of atom  5       EATOM=-1077.6739
 kinetic energy error for atom=    0.0030 (will be added to EATOM!!)
 
 
 POSCAR: ce123913_1                              
  positions in direct lattice
  No initial velocities read in

 METAGGA = SCAN     LMAXTAU =  6    LMIXTAU =  T

 exchange correlation table for  LEXCH =       14
   RHO(1)=    0.500       N(1)  =     2000
   RHO(2)=  100.500       N(2)  =     4000
 


--------------------------------------------------------------------------------------------------------


 ion  position               nearest neighbor table
   1  0.245  0.997  0.743-   8 2.06  19 2.10  16 2.13  27 2.14  12 2.16  24 2.20
   2  0.754  0.199  0.257-  38 2.01  17 2.03  33 2.07  25 2.09  46 2.11  41 2.16  52 2.79  61 2.83
                            58 2.83
   3  0.247  0.695  0.252-  36 1.97  20 2.00  28 2.09  44 2.13  35 2.18  43 2.22  50 2.77  60 2.82

   4  0.755  0.694  0.748-  37 1.97  21 2.03  34 2.09  29 2.09  45 2.14  42 2.19  50 2.79  60 2.82
                            56 2.84
   5  0.245  0.306  0.244-  23 2.01  32 2.04  39 2.07  31 2.11  47 2.17  40 2.18  51 2.80  61 2.83

   6  0.986  0.998  1.000-   9 1.83  18 1.88  19 1.89  17 1.89  16 1.90   8 1.95  59 2.77  53 2.77
                            52 2.79  52 2.80  53 2.81  58 2.81
   7  0.005  0.501  0.500-  10 1.85  22 1.87  23 1.90  21 1.90  11 1.91  20 1.92  50 2.77  51 2.77
                            60 2.78  51 2.79  61 2.80  50 2.81
   8  0.094  0.996  0.382-  53 1.85  52 1.86   6 1.95   1 2.06
   9  0.883  0.990  0.643-   6 1.83  53 1.85  52 2.05
  10  0.111  0.508  0.859-  50 1.85   7 1.85  51 2.02
  11  0.902  0.503  0.123-  51 1.85  50 1.85   7 1.91
  12  0.402  0.999  0.122-  55 1.85  54 1.86  49 1.92   1 2.16
  13  0.603  0.001  0.872-  54 1.85  55 1.86  49 1.88
  14  0.403  0.499  0.626-  57 1.84  56 1.85  48 1.88
  15  0.602  0.501  0.370-  56 1.84  57 1.85  48 1.88
  16  0.098  0.096  0.872-  52 1.87  58 1.90   6 1.90   1 2.13
  17  0.892  0.104  0.134-  58 1.87  52 1.89   6 1.89   2 2.03
  18  0.890  0.897  0.139-  53 1.86   6 1.88  59 1.88
  19  0.097  0.902  0.868-  53 1.88   6 1.89  59 1.89   1 2.10
  20  0.106  0.603  0.359-  50 1.85  60 1.88   7 1.92   3 2.00
  21  0.900  0.602  0.634-  50 1.86  60 1.86   7 1.90   4 2.03
  22  0.900  0.401  0.623-  61 1.87   7 1.87  51 1.88
  23  0.104  0.397  0.367-  61 1.86   7 1.90  51 1.90   5 2.01
  24  0.400  0.099  0.633-  54 1.85  64 1.88  49 1.89   1 2.20
  25  0.603  0.103  0.362-  64 1.85  54 1.86  49 1.90   2 2.09
  26  0.603  0.898  0.367-  65 1.85  55 1.85  49 1.87
  27  0.402  0.902  0.635-  65 1.86  55 1.87  49 1.87   1 2.14
  28  0.399  0.603  0.135-  62 1.86  56 1.86  48 1.91   3 2.09
  29  0.602  0.602  0.865-  62 1.85  56 1.86  48 1.90   4 2.09
  30  0.602  0.399  0.869-  63 1.85  57 1.85  48 1.87
  31  0.401  0.398  0.136-  63 1.84  57 1.87  48 1.90   5 2.11
  32  0.107  0.207  0.354-  58 1.84  61 1.86  52 2.04   5 2.04
  33  0.898  0.202  0.629-  52 1.86  61 1.86  58 1.89   2 2.07
  34  0.896  0.796  0.640-  59 1.85  53 1.86  60 1.86   4 2.09
  35  0.099  0.801  0.365-  59 1.85  60 1.86  53 1.88   3 2.18
  36  0.110  0.703  0.898-  59 1.84  50 1.86   3 1.97  60 2.02
  37  0.893  0.700  0.102-  59 1.83  50 1.86   4 1.97  60 2.02
  38  0.893  0.292  0.145-  58 1.84  61 1.84   2 2.01  51 2.03
  39  0.100  0.299  0.873-  58 1.86  51 1.87  61 1.88   5 2.07
  40  0.398  0.202  0.136-  64 1.86  63 1.88  54 1.90   5 2.18
  41  0.602  0.200  0.870-  63 1.87  54 1.87  64 1.88   2 2.16
  42  0.604  0.798  0.864-  65 1.86  62 1.87  55 1.89   4 2.19
  43  0.401  0.800  0.134-  65 1.86  62 1.86  55 1.90   3 2.22
  44  0.399  0.701  0.631-  62 1.88  56 1.88  65 1.88   3 2.13
  45  0.602  0.701  0.370-  65 1.86  62 1.88  56 1.89   4 2.14
  46  0.603  0.297  0.362-  63 1.86  64 1.87  57 1.90   2 2.11
  47  0.400  0.301  0.628-  64 1.86  63 1.88  57 1.88   5 2.17
  48  0.501  0.500  1.000-  30 1.87  15 1.88  14 1.88  31 1.90  29 1.90  28 1.91  56 2.77  57 2.77
                            63 2.78  56 2.79  57 2.79  62 2.79
  49  0.505  0.000  0.500-  26 1.87  27 1.87  13 1.88  24 1.89  25 1.90  12 1.92  65 2.77  55 2.77
                            54 2.78  64 2.78  54 2.79  55 2.80
  50  0.004  0.601  0.997-  10 1.85  20 1.85  11 1.85  36 1.86  21 1.86  37 1.86  59 2.76  60 2.77
                             3 2.77   7 2.77  60 2.79  51 2.79   4 2.79   7 2.81
  51  0.998  0.401  0.995-  11 1.85  39 1.87  22 1.88  23 1.90  10 2.02  38 2.03  61 2.77   7 2.77
                             7 2.79  50 2.79  58 2.80   5 2.80  61 2.82
  52  0.996  0.100  0.504-  33 1.86   8 1.86  16 1.87  17 1.89  32 2.04   9 2.05  58 2.77   6 2.79
                             2 2.79  61 2.79   6 2.80  58 2.81  53 2.82
  53  0.990  0.897  0.504-   9 1.85   8 1.85  18 1.86  34 1.86  19 1.88  35 1.88  60 2.75  59 2.76
                             6 2.77  59 2.78   6 2.81  52 2.82
  54  0.500  0.100  0.998-  13 1.85  24 1.85  12 1.86  25 1.86  41 1.87  40 1.90  49 2.78  64 2.78
                            64 2.78  55 2.79  49 2.79  63 2.80
  55  0.505  0.900  0.001-  12 1.85  26 1.85  13 1.86  27 1.87  42 1.89  43 1.90  65 2.77  49 2.77
                            62 2.78  65 2.78  54 2.79  49 2.80
  56  0.501  0.599  0.499-  15 1.84  14 1.85  28 1.86  29 1.86  44 1.88  45 1.89  57 2.77  48 2.77
                            62 2.78  48 2.79  62 2.80  65 2.81   4 2.84
  57  0.505  0.401  0.502-  14 1.84  15 1.85  30 1.85  31 1.87  47 1.88  46 1.90  56 2.77  48 2.77
                            63 2.78  63 2.79  48 2.79  64 2.80
  58  0.999  0.200  0.001-  38 1.84  32 1.84  39 1.86  17 1.87  33 1.89  16 1.90  52 2.77  61 2.77
                            61 2.80  51 2.80  52 2.81   6 2.81   2 2.83
  59  0.998  0.800  0.003-  37 1.83  36 1.84  35 1.85  34 1.85  18 1.88  19 1.89  50 2.76  53 2.76
                             6 2.77  60 2.77  53 2.78  60 2.79
  60  0.001  0.700  0.500-  21 1.86  35 1.86  34 1.86  20 1.88  37 2.02  36 2.02  53 2.75  50 2.77
                            59 2.77   7 2.78  50 2.79  59 2.79   3 2.82   4 2.82
  61  0.001  0.300  0.500-  38 1.84  32 1.86  23 1.86  33 1.86  22 1.87  39 1.88  58 2.77  51 2.77
                            52 2.79   7 2.80  58 2.80  51 2.82   5 2.83   2 2.83
  62  0.501  0.700  0.999-  29 1.85  28 1.86  43 1.86  42 1.87  44 1.88  45 1.88  55 2.78  65 2.78
                            56 2.78  48 2.79  65 2.80  56 2.80
  63  0.500  0.301  0.998-  31 1.84  30 1.85  46 1.86  41 1.87  47 1.88  40 1.88  64 2.77  48 2.78
                            57 2.78  57 2.79  54 2.80  64 2.81
  64  0.500  0.200  0.500-  25 1.85  40 1.86  47 1.86  46 1.87  24 1.88  41 1.88  63 2.77  54 2.78
                            49 2.78  54 2.78  57 2.80  63 2.81
  65  0.501  0.801  0.499-  26 1.85  43 1.86  42 1.86  45 1.86  27 1.86  44 1.88  49 2.77  55 2.77
                            62 2.78  55 2.78  62 2.80  56 2.81
 
  LATTYP: Found a triclinic cell.
 ALAT       =     4.8216330678
 B/A-ratio  =     3.0514606095
 C/A-ratio  =     3.8568707729
 COS(alpha) =     0.0006716666
 COS(beta)  =     0.4256353343
 COS(gamma) =     0.7669880775
  
  Lattice vectors:
  
 A1 = (   0.8259356600,   0.0290117000,  -4.7502772600)
 A2 = (  11.2342847600,   0.0580234000,  -9.5005545200)
 A3 = (  -7.9463790100, -13.8715968700,  -9.5005545200)


Analysis of symmetry for initial positions (statically):
=====================================================================
 Subroutine PRICEL returns:
 Original cell was already a primitive cell.
 

 Routine SETGRP: Setting up the symmetry group for a 
 triclinic supercell.


 Subroutine GETGRP returns: Found  1 space group operations
 (whereof  1 operations were pure point group operations)
 out of a pool of  2 trial point group operations.


The static configuration has the point symmetry C_1 .


Analysis of symmetry for dynamics (positions and initial velocities):
=====================================================================
 Subroutine PRICEL returns:
 Original cell was already a primitive cell.
 

 Routine SETGRP: Setting up the symmetry group for a 
 triclinic supercell.


 Subroutine GETGRP returns: Found  1 space group operations
 (whereof  1 operations were pure point group operations)
 out of a pool of  2 trial point group operations.


The dynamic configuration has the point symmetry C_1 .


Analysis of structural, dynamic, and magnetic symmetry:
=====================================================================
 Subroutine PRICEL returns:
 Original cell was already a primitive cell.
 

 Routine SETGRP: Setting up the symmetry group for a 
 triclinic supercell.


 Subroutine GETGRP returns: Found  1 space group operations
 (whereof  1 operations were pure point group operations)
 out of a pool of  2 trial point group operations.


The magnetic configuration has the point symmetry C_1 .


 Subroutine INISYM returns: Found  1 space group operations
 (whereof  1 operations are pure point group operations),
 and found     1 'primitive' translations

 
 
 KPOINTS: Automatic mesh                          

Automatic generation of k-mesh.
Space group operators:
 irot       det(A)        alpha          n_x          n_y          n_z        tau_x        tau_y        tau_z
    1     1.000000     0.000000     1.000000     0.000000     0.000000     0.000000     0.000000     0.000000
 
 Subroutine IBZKPT returns following result:
 ===========================================
 
 Found      5 irreducible k-points:
 
 Following reciprocal coordinates:
            Coordinates               Weight
  0.000000  0.000000  0.000000      1.000000
  0.333333  0.000000  0.000000      2.000000
  0.000000  0.000000  0.333333      2.000000
  0.333333  0.000000  0.333333      2.000000
 -0.333333 -0.000000  0.333333      2.000000
 
 Following cartesian coordinates:
            Coordinates               Weight
  0.000000  0.000000  0.000000      1.000000
  0.034786 -0.000040  0.006048      2.000000
  0.000000  0.000000  0.070171      2.000000
  0.034786 -0.000040  0.076219      2.000000
 -0.034786  0.000040  0.064123      2.000000
 

 ----------------------------------------------------------------------------- 
|                                                                             |
|           W    W    AA    RRRRR   N    N  II  N    N   GGGG   !!!           |
|           W    W   A  A   R    R  NN   N  II  NN   N  G    G  !!!           |
|           W    W  A    A  R    R  N N  N  II  N N  N  G       !!!           |
|           W WW W  AAAAAA  RRRRR   N  N N  II  N  N N  G  GGG   !            |
|           WW  WW  A    A  R   R   N   NN  II  N   NN  G    G                |
|           W    W  A    A  R    R  N    N  II  N    N   GGGG   !!!           |
|                                                                             |
|      The number of bands has been changed from the values supplied          |
|      in the INCAR file. This is a result of running the parallel version.   |
|      The orbitals not found in the WAVECAR file will be initialized with    |
|      random numbers, which is usually adequate. For correlated              |
|      calculations, however, you should redo the groundstate calculation.    |
|      I found NBANDS    =      456  now  NBANDS  =     464                   |
|                                                                             |
 ----------------------------------------------------------------------------- 



--------------------------------------------------------------------------------------------------------




 Dimension of arrays:
   k-points           NKPTS =      5   k-points in BZ     NKDIM =      5   number of bands    NBANDS=    464
   number of dos      NEDOS =    301   number of ions     NIONS =     65
   non local maximal  LDIM  =      6   non local SUM 2l+1 LMDIM =     18
   total plane-waves  NPLWV = 272160
   max r-space proj   IRMAX =   5812   max aug-charges    IRDMAX=  17126
   dimension x,y,z NGX =    70 NGY =  108 NGZ =   36
   dimension x,y,z NGXF=   140 NGYF=  216 NGZF=   72
   support grid    NGXF=   140 NGYF=  216 NGZF=   72
   ions per type =               5   2  40   2  16
   NGX,Y,Z   is equivalent  to a cutoff of  12.14, 12.89, 12.41 a.u.
   NGXF,Y,Z  is equivalent  to a cutoff of  24.29, 25.78, 24.83 a.u.

 SYSTEM =  unknown system                          
 POSCAR =  ce123913_1                              

 Startparameter for this run:
   NWRITE =      1    write-flag & timer
   PREC   = accura    normal or accurate (medium, high low for compatibility)
   ISTART =      0    job   : 0-new  1-cont  2-samecut
   ICHARG =      2    charge: 1-file 2-atom 10-const
   ISPIN  =      2    spin polarized calculation?
   LNONCOLLINEAR =      F non collinear calculations
   LSORBIT =      F    spin-orbit coupling
   INIWAV =      1    electr: 0-lowe 1-rand  2-diag
   LASPH  =      T    aspherical Exc in radial PAW
   METAGGA=      F    non-selfconsistent MetaGGA calc.

 Electronic Relaxation 1
   ENCUT  =  500.0 eV  36.75 Ry    6.06 a.u.  17.47 25.40  8.79*2*pi/ulx,y,z
   ENINI  =  500.0     initial cutoff
   ENAUG  =  628.9 eV  augmentation charge cutoff
   NELM   =   1000;   NELMIN=  2; NELMDL= -5     # of ELM steps 
   EDIFF  = 0.1E-04   stopping-criterion for ELM
   LREAL  =      T    real-space projection
   NLSPLINE    = F    spline interpolate recip. space projectors
   LCOMPAT=      F    compatible to vasp.4.4
   GGA_COMPAT  = T    GGA compatible to vasp.4.4-vasp.4.6
   LMAXPAW     = -100 max onsite density
   LMAXMIX     =    2 max onsite mixed and CHGCAR
   VOSKOWN=      1    Vosko Wilk Nusair interpolation
   ROPT   =   -0.00025  -0.00025  -0.00025  -0.00025
   ROPT   =   -0.00025
 Ionic relaxation
   EDIFFG = 0.1E-03   stopping-criterion for IOM
   NSW    =      0    number of steps for IOM
   NBLOCK =      1;   KBLOCK =      1    inner block; outer block 
   IBRION =     -1    ionic relax: 0-MD 1-quasi-New 2-CG
   NFREE  =      0    steps in history (QN), initial steepest desc. (CG)
   ISIF   =      2    stress and relaxation
   IWAVPR =     10    prediction:  0-non 1-charg 2-wave 3-comb
   ISYM   =      2    0-nonsym 1-usesym 2-fastsym
   LCORR  =      T    Harris-Foulkes like correction to forces

   POTIM  = 0.5000    time-step for ionic-motion
   TEIN   =    0.0    initial temperature
   TEBEG  =    0.0;   TEEND  =   0.0 temperature during run
   SMASS  =  -3.00    Nose mass-parameter (am)
   estimated Nose-frequenzy (Omega)   =  0.10E-29 period in steps =****** mass=  -0.210E-26a.u.
   SCALEE = 1.0000    scale energy and forces
   NPACO  =    256;   APACO  = 16.0  distance and # of slots for P.C.
   PSTRESS=    0.0 pullay stress

  Mass of Ions in am
   POMASS =   7.01 54.94 16.00 58.93 58.69
  Ionic Valenz
   ZVAL   =   3.00 13.00  6.00  9.00 10.00
  Atomic Wigner-Seitz radii
   RWIGS  =   1.23  1.17  0.73  1.16  1.15
  virtual crystal weights 
   VCA    =   1.00  1.00  1.00  1.00  1.00
   NELECT =     459.0000    total number of electrons
   NUPDOWN=      -1.0000    fix difference up-down

 DOS related values:
   EMIN   =  10.00;   EMAX   =-10.00  energy-range for DOS
   EFERMI =   0.00
   ISMEAR =     0;   SIGMA  =   0.05  broadening in eV -4-tet -1-fermi 0-gaus

 Electronic relaxation 2 (details)
   IALGO  =     58    algorithm
   LDIAG  =      T    sub-space diagonalisation (order eigenvalues)
   LSUBROT=      F    optimize rotation matrix (better conditioning)
   TURBO    =      0    0=normal 1=particle mesh
   IRESTART =      0    0=no restart 2=restart with 2 vectors
   NREBOOT  =      0    no. of reboots
   NMIN     =      0    reboot dimension
   EREF     =   0.00    reference energy to select bands
   IMIX   =      4    mixing-type and parameters
     AMIX     =   0.40;   BMIX     =  1.00
     AMIX_MAG =   1.60;   BMIX_MAG =  1.00
     AMIN     =   0.10
     WC   =   100.;   INIMIX=   1;  MIXPRE=   1;  MAXMIX= -45

 Intra band minimization:
   WEIMIN = 0.0000     energy-eigenvalue tresh-hold
   EBREAK =  0.54E-08  absolut break condition
   DEPER  =   0.30     relativ break condition  

   TIME   =   0.20     timestep for ELM

  volume/ion in A,a.u.               =       9.75        65.83
  Fermi-wavevector in a.u.,A,eV,Ry     =   1.469946  2.777795 29.398665  2.160741
  Thomas-Fermi vector in A             =   2.585262
 
 Write flags
   LWAVE        =      F    write WAVECAR
   LDOWNSAMPLE  =      F    k-point downsampling of WAVECAR
   LCHARG       =      T    write CHGCAR
   LVTOT        =      F    write LOCPOT, total local potential
   LVHAR        =      F    write LOCPOT, Hartree potential only
   LELF         =      F    write electronic localiz. function (ELF)
   LORBIT       =      0    0 simple, 1 ext, 2 COOP (PROOUT), +10 PAW based schemes


 Dipole corrections
   LMONO  =      F    monopole corrections only (constant potential shift)
   LDIPOL =      F    correct potential (dipole corrections)
   IDIPOL =      0    1-x, 2-y, 3-z, 4-all directions 
   EPSILON=  1.0000000 bulk dielectric constant

 Exchange correlation treatment:
   GGA     =    PS    GGA type
   LEXCH   =    14    internal setting for exchange type
   VOSKOWN=      1    Vosko Wilk Nusair interpolation
   LHFCALC =     F    Hartree Fock is set to
   LHFONE  =     F    Hartree Fock one center treatment
   AEXX    =    0.0000 exact exchange contribution

 vdW DFT:
   LUSE_VDW   =     T    switch on vdW DFT
   Zab_VDW    =-.8491    correlation parameter
   PARAM1     =0.1234
   PARAM2     =1.0000
   PARAM3     =0.0000
   -- rVV10 --
   BPARAM     =15.7000
   CPARAM     = 0.0093

 Linear response parameters
   LEPSILON=     F    determine dielectric tensor
   LRPA    =     F    only Hartree local field effects (RPA)
   LNABLA  =     F    use nabla operator in PAW spheres
   LVEL    =     F    velocity operator in full k-point grid
   LINTERFAST=   F  fast interpolation
   KINTER  =     0    interpolate to denser k-point grid
   CSHIFT  =0.1000    complex shift for real part using Kramers Kronig
   OMEGAMAX=  -1.0    maximum frequency
   DEG_THRESHOLD= 0.2000000E-02 threshold for treating states as degnerate
   RTIME   =   -0.100 relaxation time in fs
  (WPLASMAI=    0.000 imaginary part of plasma frequency in eV, 0.658/RTIME)
   DFIELD  = 0.0000000 0.0000000 0.0000000 field for delta impulse in time
 
 Orbital magnetization related:
   ORBITALMAG=     F  switch on orbital magnetization
   LCHIMAG   =     F  perturbation theory with respect to B field
   DQ        =  0.001000  dq finite difference perturbation B field
   LLRAUG    =     F  two centre corrections for induced B field



--------------------------------------------------------------------------------------------------------


 Static calculation
 charge density and potential will be updated during run
 spin polarized calculation
 Conjugate gradient for all bands (Freysoldt, et al. PRB 79, 241103 (2009))
 preconditioned conjugated gradient                                        
 perform sub-space diagonalisation
    before iterative eigenvector-optimisation
 modified Broyden-mixing scheme, WC =      100.0
 initial mixing is a Kerker type mixing with AMIX =  0.4000 and BMIX =      1.0000
 Hartree-type preconditioning will be used
 using additional bands          234
 real space projection scheme for non local part
 use partial core corrections
 no Harris-corrections to forces 
 use gradient corrections 
 use of overlap-Matrix (Vanderbilt PP)
 Gauss-broadening in eV      SIGMA  =   0.05


--------------------------------------------------------------------------------------------------------


  energy-cutoff  :      500.00
  volume of cell :      634.06
      direct lattice vectors                 reciprocal lattice vectors
     9.582413440  0.000000000  0.000000000     0.104357843 -0.000118647  0.018144082
     0.015836890 13.929620270  0.000000000     0.000000000  0.071789466  0.000438445
    -0.825935660 -0.029011700  4.750277260     0.000000000  0.000000000  0.210514028

  length of vectors
     9.582413440 13.929629273  4.821633068     0.105923469  0.071790805  0.210514028


 
 k-points in units of 2pi/SCALE and weight: Automatic mesh                          
   0.00000000  0.00000000  0.00000000       0.111
   0.03478595 -0.00003955  0.00604803       0.222
   0.00000000  0.00000000  0.07017134       0.222
   0.03478595 -0.00003955  0.07621937       0.222
  -0.03478595  0.00003955  0.06412332       0.222
 
 k-points in reciprocal lattice and weights: Automatic mesh                          
   0.00000000  0.00000000  0.00000000       0.111
   0.33333333  0.00000000  0.00000000       0.222
   0.00000000  0.00000000  0.33333333       0.222
   0.33333333  0.00000000  0.33333333       0.222
  -0.33333333 -0.00000000  0.33333333       0.222
 
 position of ions in fractional coordinates (direct lattice) 
   0.24469447  0.99681609  0.74294733
   0.75366033  0.19887642  0.25690751
   0.24703213  0.69531223  0.25158607
   0.75518546  0.69364487  0.74810435
   0.24510135  0.30564668  0.24423699
   0.98579231  0.99840253  0.99983022
   0.00503296  0.50068021  0.50046596
   0.09371505  0.99635111  0.38200616
   0.88320021  0.99032173  0.64315761
   0.11140208  0.50799776  0.85859391
   0.90194905  0.50272606  0.12343372
   0.40167395  0.99903091  0.12231999
   0.60305876  0.00112586  0.87180360
   0.40281367  0.49912505  0.62637684
   0.60178721  0.50096344  0.37012345
   0.09779678  0.09578701  0.87157053
   0.89216976  0.10420607  0.13418468
   0.88957364  0.89666005  0.13876364
   0.09721934  0.90186753  0.86830441
   0.10636077  0.60320638  0.35863590
   0.90011922  0.60151732  0.63384618
   0.89963042  0.40148349  0.62299090
   0.10413059  0.39697493  0.36659997
   0.40004422  0.09944263  0.63343571
   0.60322770  0.10341957  0.36240502
   0.60349540  0.89842731  0.36723385
   0.40245621  0.90155981  0.63486490
   0.39934636  0.60343092  0.13493051
   0.60222533  0.60234727  0.86495681
   0.60174659  0.39934076  0.86937807
   0.40075537  0.39816768  0.13614830
   0.10714277  0.20687068  0.35410426
   0.89759755  0.20150722  0.62856926
   0.89576913  0.79605899  0.64008975
   0.09856993  0.80086000  0.36531910
   0.10987782  0.70345269  0.89811761
   0.89261168  0.70001378  0.10244683
   0.89311884  0.29225263  0.14549533
   0.10017900  0.29941807  0.87272919
   0.39799493  0.20174477  0.13594061
   0.60170254  0.20010479  0.86968712
   0.60421424  0.79819191  0.86350192
   0.40059358  0.79990520  0.13440339
   0.39906262  0.70074165  0.63077419
   0.60241649  0.70089505  0.37012198
   0.60344038  0.29709567  0.36221372
   0.40016486  0.30088893  0.62756977
   0.50074895  0.50019371  0.99978966
   0.50530999  0.00013327  0.49979871
   0.00394728  0.60145016  0.99676012
   0.99821701  0.40142135  0.99471761
   0.99597521  0.09957397  0.50406132
   0.99046288  0.89746372  0.50371474
   0.50033963  0.10009971  0.99809843
   0.50532450  0.90010513  0.00115603
   0.50096186  0.59938886  0.49939396
   0.50527207  0.40083830  0.50178034
   0.99853113  0.20026840  0.00099916
   0.99783902  0.79963947  0.00262854
   0.00125243  0.70025490  0.50009071
   0.00103688  0.30000096  0.49991234
   0.50130324  0.70046327  0.99932361
   0.50038012  0.30077875  0.99752057
   0.50047699  0.19992051  0.49962183
   0.50132657  0.80123704  0.49941237
 
 position of ions in cartesian coordinates  (Angst):
   1.74692335 13.86371545  3.52920581
   7.01284539  2.76281969  1.22038190
   2.17038168  9.67813639  1.19510359
   6.62959842  9.64050586  3.55370308
   2.15177892  4.25045646  1.16019342
   8.63628564 13.87836135  4.74947076
  -0.35719556  6.95976583  2.37735207
   0.59828295 13.86770997  1.81463518
   7.94766637 13.77614655  3.05517697
   0.36640257  7.05130663  4.07855913
   8.54886201  6.99920209  0.58634439
   3.76379896 13.91257250  0.58105387
   5.05872252 -0.00960970  4.14130882
   3.35048474  6.93445016  2.97546366
   5.46880940  6.96749258  1.75818901
   0.21878497  1.30899093  4.14020167
   8.43996189  1.44765806  0.63741443
   8.42385287 12.48610824  0.65916576
   0.22871511 12.53748124  4.12468669
   0.73253561  8.39203118  1.70361996
   8.11132451  8.36051890  3.01094510
   8.11243848  5.57443854  2.95937951
   0.70132123  5.51907434  1.74145150
   3.31178683  1.36682103  3.00899525
   5.48269183  1.43008135  1.72152433
   5.49385919 12.50409719  1.74446261
   3.34642214 12.53996729  3.01578430
   3.72481448  8.40164901  0.64095733
   5.06591273  8.36537487  4.10878467
   5.05445858  5.53744301  4.12978688
   3.73405965  5.54237469  0.64674217
   0.73749517  2.87135685  1.68209341
   8.08518431  2.78868319  2.98587826
   8.06756430 11.07022935  3.04060378
   0.65549088 11.14507716  1.73536701
   0.32224784  9.77277293  4.26630766
   8.47984571  9.74795398  0.48665085
   8.44269257  4.06674709  0.69114316
   0.24388029  4.14546066  4.14570563
   3.70466878  2.80628417  0.64575559
   5.05062594  2.76215264  4.13125495
   5.08927450 11.09345855  4.10187353
   3.74031276 11.13847642  0.63845337
   3.31410168  9.74276526  2.99635229
   5.47800693  9.75246403  1.75818203
   5.48795505  4.12792143  1.72061560
   3.32097803  4.17306167  2.98113041
   3.98054305  6.93850284  4.74927809
   4.42928977 -0.01264361  2.37418245
  -0.77591016  8.34905463  4.73488693
   8.75011261  5.56278852  4.72518444
   9.12910096  1.37240392  2.39443103
   9.08920188 12.48671520  2.39278467
   3.97168138  1.36539442  4.74124428
   4.85552834 12.53808913  0.00549146
   4.39744884  8.33477095  2.37225977
   4.43363563  5.56896781  2.38359574
   9.57068451  2.78963378  0.00474629
   9.57219883 11.13859791  0.01248629
  -0.38995159  9.73977637  2.37556953
  -0.39820853  4.16439615  2.37472222
   3.98941106  9.72819529  4.74706422
   3.97572478  4.16079401  4.73849928
   4.38628807  2.77032191  2.37334222
   4.40412508 11.14643891  2.37234722
 


--------------------------------------------------------------------------------------------------------


 k-point  1 :   0.0000 0.0000 0.0000  plane waves:   16091
 k-point  2 :   0.3333 0.0000 0.0000  plane waves:   16102
 k-point  3 :   0.0000 0.0000 0.3333  plane waves:   16119
 k-point  4 :   0.3333 0.0000 0.3333  plane waves:   16103
 k-point  5 :  -0.3333-0.0000 0.3333  plane waves:   16105

 maximum and minimum number of plane-waves per node :     16119    16091

 maximum number of plane-waves:     16119
 maximum index in each direction: 
   IXMAX=   17   IYMAX=   25   IZMAX=    8
   IXMIN=  -17   IYMIN=  -25   IZMIN=   -9

 The following grids will avoid any aliasing or wrap around errors in the Hartre
 e energy
  - symmetry arguments have not been applied
  - exchange correlation energies might require even more grid points
  - we recommend to set PREC=Normal or Accurate and rely on VASP defaults
 NGX is ok and might be reduce to    70
 NGY is ok and might be reduce to   108
 NGZ is ok and might be reduce to    36

 serial   3D FFT for wavefunctions
 parallel 3D FFT for charge:
    minimum data exchange during FFTs selected (reduces bandwidth)


 total amount of memory used by VASP MPI-rank0   360063. kBytes
=======================================================================

   base      :      30000. kBytes
   nonlr-proj:      30936. kBytes
   fftplans  :       5952. kBytes
   grid      :      56632. kBytes
   one-center:       2021. kBytes
   wavefun   :     234522. kBytes
 
     INWAV:  cpu time    0.0000: real time    0.0000
 Broyden mixing: mesh for mixing (old mesh)
   NGX = 35   NGY = 51   NGZ = 17
  (NGX  =140   NGY  =216   NGZ  = 72)
  gives a total of  30345 points

 initial charge density was supplied:
 charge density of overlapping atoms calculated
 number of electron     459.0000000 magnetization      58.0000000
 keeping initial charge density in first step


--------------------------------------------------------------------------------------------------------


 Maximum index for non-local projection operator         5597
 Maximum index for augmentation-charges         1153 (set IRDMAX)


--------------------------------------------------------------------------------------------------------


 First call to EWALD:  gamma=   0.206
 Maximum number of real-space cells 3x 2x 5
 Maximum number of reciprocal cells 3x 4x 2

    FEWALD:  cpu time    0.0027: real time    0.0027


--------------------------------------- Iteration      1(   1)  ---------------------------------------


    POTLOK:  cpu time    2.2811: real time    2.2866
    SETDIJ:  cpu time    2.4266: real time    2.4325
    TRIAL :  cpu time   51.6789: real time   51.9634
    CORREC:  cpu time    0.0006: real time    0.0006
    --------------------------------------------
      LOOP:  cpu time   56.4243: real time   56.7383

 eigenvalue-minimisations  :  9280
 total energy-change (2. order) : 0.6498829E+04  (-0.2038260E+05)
 number of electron     459.0000000 magnetization      58.0000000
 augmentation part      459.0000000 magnetization      58.0000000

 Free energy of the ion-electron system (eV)
  ---------------------------------------------------
  alpha Z        PSCENC =      1491.50277029
  Ewald energy   TEWEN  =    -26840.82722007
  -Hartree energ DENC   =    -15028.12830430
  -exchange      EXHF   =         0.00000000
  -V(xc)+E(xc)   XCENC  =      -193.63966141
  PAW double counting   =     35051.87564437   -36603.20523529
  entropy T*S    EENTRO =        -0.01335134
  eigenvalues    EBANDS =      7483.80604954
  atomic energy  EATOM  =     41137.45868494
  ---------------------------------------------------
  free energy    TOTEN  =      6498.82937673 eV

  energy without entropy =     6498.84272807  energy(sigma->0) =     6498.83605240


--------------------------------------------------------------------------------------------------------




--------------------------------------- Iteration      1(   2)  ---------------------------------------


    TRIAL :  cpu time   51.7045: real time   51.8295
    CORREC:  cpu time    0.0006: real time    0.0006
    --------------------------------------------
      LOOP:  cpu time   51.7054: real time   51.8304

 eigenvalue-minimisations  :  9280
 total energy-change (2. order) :-0.4267419E+04  (-0.3783999E+04)
 number of electron     459.0000000 magnetization      58.0000000
 augmentation part      459.0000000 magnetization      58.0000000

 Free energy of the ion-electron system (eV)
  ---------------------------------------------------
  alpha Z        PSCENC =      1491.50277029
  Ewald energy   TEWEN  =    -26840.82722007
  -Hartree energ DENC   =    -15028.12830430
  -exchange      EXHF   =         0.00000000
  -V(xc)+E(xc)   XCENC  =      -193.63966141
  PAW double counting   =     35051.87564437   -36603.20523529
  entropy T*S    EENTRO =        -0.03026168
  eigenvalues    EBANDS =      3216.40445106
  atomic energy  EATOM  =     41137.45868494
  ---------------------------------------------------
  free energy    TOTEN  =      2231.41086791 eV

  energy without entropy =     2231.44112959  energy(sigma->0) =     2231.42599875


--------------------------------------------------------------------------------------------------------




--------------------------------------- Iteration      1(   3)  ---------------------------------------


    TRIAL :  cpu time   54.1986: real time   54.3291
    CORREC:  cpu time    0.0007: real time    0.0007
    --------------------------------------------
      LOOP:  cpu time   54.1994: real time   54.3299

 eigenvalue-minimisations  : 10048
 total energy-change (2. order) :-0.7207761E+03  (-0.6296767E+03)
 number of electron     459.0000000 magnetization      58.0000000
 augmentation part      459.0000000 magnetization      58.0000000

 Free energy of the ion-electron system (eV)
  ---------------------------------------------------
  alpha Z        PSCENC =      1491.50277029
  Ewald energy   TEWEN  =    -26840.82722007
  -Hartree energ DENC   =    -15028.12830430
  -exchange      EXHF   =         0.00000000
  -V(xc)+E(xc)   XCENC  =      -193.63966141
  PAW double counting   =     35051.87564437   -36603.20523529
  entropy T*S    EENTRO =        -0.03996761
  eigenvalues    EBANDS =      2495.63807773
  atomic energy  EATOM  =     41137.45868494
  ---------------------------------------------------
  free energy    TOTEN  =      1510.63478865 eV

  energy without entropy =     1510.67475626  energy(sigma->0) =     1510.65477246


--------------------------------------------------------------------------------------------------------




--------------------------------------- Iteration      1(   4)  ---------------------------------------


    TRIAL :  cpu time   56.2106: real time   56.3462
    CORREC:  cpu time    0.0007: real time    0.0007
    --------------------------------------------
      LOOP:  cpu time   56.2114: real time   56.3470

 eigenvalue-minimisations  : 10656
 total energy-change (2. order) :-0.3960699E+02  (-0.3882169E+02)
 number of electron     459.0000000 magnetization      58.0000000
 augmentation part      459.0000000 magnetization      58.0000000

 Free energy of the ion-electron system (eV)
  ---------------------------------------------------
  alpha Z        PSCENC =      1491.50277029
  Ewald energy   TEWEN  =    -26840.82722007
  -Hartree energ DENC   =    -15028.12830430
  -exchange      EXHF   =         0.00000000
  -V(xc)+E(xc)   XCENC  =      -193.63966141
  PAW double counting   =     35051.87564437   -36603.20523529
  entropy T*S    EENTRO =        -0.04196249
  eigenvalues    EBANDS =      2456.03308343
  atomic energy  EATOM  =     41137.45868494
  ---------------------------------------------------
  free energy    TOTEN  =      1471.02779948 eV

  energy without entropy =     1471.06976197  energy(sigma->0) =     1471.04878072


--------------------------------------------------------------------------------------------------------




--------------------------------------- Iteration      1(   5)  ---------------------------------------


    TRIAL :  cpu time   61.2188: real time   61.3667
    CORREC:  cpu time    0.0007: real time    0.0007
    CHARGE:  cpu time    7.4697: real time    7.4877
    --------------------------------------------
      LOOP:  cpu time   68.6893: real time   68.8553

 eigenvalue-minimisations  : 12160
 total energy-change (2. order) :-0.4827362E+00  (-0.4824112E+00)
 number of electron     458.9999956 magnetization       9.5222848
 augmentation part      177.2294332 magnetization      10.4561644

 Free energy of the ion-electron system (eV)
  ---------------------------------------------------
  alpha Z        PSCENC =      1491.50277029
  Ewald energy   TEWEN  =    -26840.82722007
  -Hartree energ DENC   =    -15028.12830430
  -exchange      EXHF   =         0.00000000
  -V(xc)+E(xc)   XCENC  =      -193.63966141
  PAW double counting   =     35051.87564437   -36603.20523529
  entropy T*S    EENTRO =        -0.04198866
  eigenvalues    EBANDS =      2455.55037344
  atomic energy  EATOM  =     41137.45868494
  ---------------------------------------------------
  free energy    TOTEN  =      1470.54506332 eV

  energy without entropy =     1470.58705198  energy(sigma->0) =     1470.56605765


--------------------------------------------------------------------------------------------------------




--------------------------------------- Iteration      1(   6)  ---------------------------------------


    POTLOK:  cpu time    2.1670: real time    2.1722
    SETDIJ:  cpu time    2.4610: real time    2.4669
    TRIAL :  cpu time   43.3018: real time   43.4069
    CORREC:  cpu time   23.4306: real time   23.4873
    CHARGE:  cpu time    7.4593: real time    7.4773
    --------------------------------------------
      LOOP:  cpu time   78.8199: real time   79.0108

 eigenvalue-minimisations  :     0
 total energy-change (2. order) :-0.2295364E+04  (-0.5834632E+03)
 number of electron     458.9999977 magnetization      11.5053803
 augmentation part      159.8827153 magnetization      12.5650244

 Free energy of the ion-electron system (eV)
  ---------------------------------------------------
  alpha Z        PSCENC =      1491.50277029
  Ewald energy   TEWEN  =    -26840.82722007
  -Hartree energ DENC   =    -15964.06756386
  -exchange      EXHF   =         0.00000000
  -V(xc)+E(xc)   XCENC  =       945.68299761
  PAW double counting   =     56802.50587033   -58928.69240431
  entropy T*S    EENTRO =        -0.04865008
  eigenvalues    EBANDS =       531.65944441
  atomic energy  EATOM  =     41137.45868494
  ---------------------------------------------------
  free energy    TOTEN  =      -824.81940931 eV

  energy without entropy =     -824.77075923  energy(sigma->0) =     -824.79508427


--------------------------------------------------------------------------------------------------------




--------------------------------------- Iteration      1(   7)  ---------------------------------------


    POTLOK:  cpu time    2.1646: real time    2.1698
    SETDIJ:  cpu time    2.4849: real time    2.4909
    TRIAL :  cpu time   43.2718: real time   43.3784
    CORREC:  cpu time   23.4154: real time   23.4759
    CHARGE:  cpu time    7.4624: real time    7.4804
    --------------------------------------------
      LOOP:  cpu time   78.7995: real time   78.9958

 eigenvalue-minimisations  :     0
 total energy-change (2. order) :-0.6002785E+03  (-0.5704571E+02)
 number of electron     458.9999978 magnetization      14.9586499
 augmentation part      157.4664758 magnetization      14.3035243

 Free energy of the ion-electron system (eV)
  ---------------------------------------------------
  alpha Z        PSCENC =      1491.50277029
  Ewald energy   TEWEN  =    -26840.82722007
  -Hartree energ DENC   =    -14170.62673735
  -exchange      EXHF   =         0.00000000
  -V(xc)+E(xc)   XCENC  =      1086.00795767
  PAW double counting   =     51098.81610772   -52653.15139336
  entropy T*S    EENTRO =        -0.03714870
  eigenvalues    EBANDS =     -2574.22938087
  atomic energy  EATOM  =     41137.45868494
  ---------------------------------------------------
  free energy    TOTEN  =     -1425.09786110 eV

  energy without entropy =    -1425.06071240  energy(sigma->0) =    -1425.07928675


--------------------------------------------------------------------------------------------------------




--------------------------------------- Iteration      1(   8)  ---------------------------------------


    POTLOK:  cpu time    2.1645: real time    2.1697
    SETDIJ:  cpu time    2.4777: real time    2.4836
    TRIAL :  cpu time   43.3410: real time   43.4548
    CORREC:  cpu time   23.4181: real time   23.4764
    CHARGE:  cpu time    7.4628: real time    7.4808
    --------------------------------------------
      LOOP:  cpu time   78.8643: real time   79.0655

 eigenvalue-minimisations  :     0
 total energy-change (2. order) :-0.1544160E+01  (-0.4960550E+02)
 number of electron     458.9999979 magnetization       9.8276389
 augmentation part      156.1476986 magnetization      11.2679250

 Free energy of the ion-electron system (eV)
  ---------------------------------------------------
  alpha Z        PSCENC =      1491.50277029
  Ewald energy   TEWEN  =    -26840.82722007
  -Hartree energ DENC   =    -14112.58476805
  -exchange      EXHF   =         0.00000000
  -V(xc)+E(xc)   XCENC  =      1114.44124188
  PAW double counting   =     50350.03941846   -51855.80919205
  entropy T*S    EENTRO =        -0.04613665
  eigenvalues    EBANDS =     -2710.82580744
  atomic energy  EATOM  =     41137.45868494
  ---------------------------------------------------
  free energy    TOTEN  =     -1426.64202073 eV

  energy without entropy =    -1426.59588407  energy(sigma->0) =    -1426.61895240


--------------------------------------------------------------------------------------------------------




--------------------------------------- Iteration      1(   9)  ---------------------------------------


    POTLOK:  cpu time    2.1640: real time    2.1708
    SETDIJ:  cpu time    2.4768: real time    2.4828
    TRIAL :  cpu time   43.2209: real time   43.3254
    CORREC:  cpu time   23.4331: real time   23.4898
    CHARGE:  cpu time    7.4652: real time    7.4832
    --------------------------------------------
      LOOP:  cpu time   78.7603: real time   78.9523

 eigenvalue-minimisations  :     0
 total energy-change (2. order) :-0.9817488E+02  (-0.5973189E+02)
 number of electron     458.9999976 magnetization      12.8939079
 augmentation part      157.1933671 magnetization      12.5393559

 Free energy of the ion-electron system (eV)
  ---------------------------------------------------
  alpha Z        PSCENC =      1491.50277029
  Ewald energy   TEWEN  =    -26840.82722007
  -Hartree energ DENC   =    -13985.50335608
  -exchange      EXHF   =         0.00000000
  -V(xc)+E(xc)   XCENC  =      1135.89233025
  PAW double counting   =     49453.69878561   -50942.61868588
  entropy T*S    EENTRO =        -0.03762992
  eigenvalues    EBANDS =     -2974.37407207
  atomic energy  EATOM  =     41137.45868494
  ---------------------------------------------------
  free energy    TOTEN  =     -1524.81689965 eV

  energy without entropy =    -1524.77926973  energy(sigma->0) =    -1524.79808469


--------------------------------------------------------------------------------------------------------




--------------------------------------- Iteration      1(  10)  ---------------------------------------


    POTLOK:  cpu time    2.1645: real time    2.1697
    SETDIJ:  cpu time    2.4837: real time    2.4897
    TRIAL :  cpu time   43.3568: real time   43.4616
    CORREC:  cpu time   23.4140: real time   23.4706
    CHARGE:  cpu time    7.4564: real time    7.4743
    --------------------------------------------
      LOOP:  cpu time   78.8757: real time   79.0663

 eigenvalue-minimisations  :     0
 total energy-change (2. order) :-0.5960637E+02  (-0.2358601E+02)
 number of electron     458.9999975 magnetization       9.0262899
 augmentation part      157.5293553 magnetization       9.9073506

 Free energy of the ion-electron system (eV)
  ---------------------------------------------------
  alpha Z        PSCENC =      1491.50277029
  Ewald energy   TEWEN  =    -26840.82722007
  -Hartree energ DENC   =    -14527.96451803
  -exchange      EXHF   =         0.00000000
  -V(xc)+E(xc)   XCENC  =      1162.38680033
  PAW double counting   =     48958.74077997   -50568.14961747
  entropy T*S    EENTRO =        -0.03167242
  eigenvalues    EBANDS =     -2397.53331618
  atomic energy  EATOM  =     41137.45868494
  ---------------------------------------------------
  free energy    TOTEN  =     -1584.42326614 eV

  energy without entropy =    -1584.39159372  energy(sigma->0) =    -1584.40742993


--------------------------------------------------------------------------------------------------------




--------------------------------------- Iteration      1(  11)  ---------------------------------------


    POTLOK:  cpu time    2.1660: real time    2.1713
    SETDIJ:  cpu time    2.4847: real time    2.4907
    TRIAL :  cpu time   43.4065: real time   43.5114
    CORREC:  cpu time   23.4204: real time   23.4770
    CHARGE:  cpu time    7.4601: real time    7.4781
    --------------------------------------------
      LOOP:  cpu time   78.9380: real time   79.1288

 eigenvalue-minimisations  :     0
 total energy-change (2. order) :-0.1726936E+02  (-0.1637822E+02)
 number of electron     458.9999975 magnetization       9.0288088
 augmentation part      156.5738191 magnetization       9.5384655

 Free energy of the ion-electron system (eV)
  ---------------------------------------------------
  alpha Z        PSCENC =      1491.50277029
  Ewald energy   TEWEN  =    -26840.82722007
  -Hartree energ DENC   =    -14692.26895442
  -exchange      EXHF   =         0.00000000
  -V(xc)+E(xc)   XCENC  =      1171.71049615
  PAW double counting   =     49076.75242191   -50751.01633953
  entropy T*S    EENTRO =        -0.00806872
  eigenvalues    EBANDS =     -2194.97281220
  atomic energy  EATOM  =     41137.45868494
  ---------------------------------------------------
  free energy    TOTEN  =     -1601.69262536 eV

  energy without entropy =    -1601.68455664  energy(sigma->0) =    -1601.68859100


--------------------------------------------------------------------------------------------------------




--------------------------------------- Iteration      1(  12)  ---------------------------------------


    POTLOK:  cpu time    2.1654: real time    2.1707
    SETDIJ:  cpu time    2.4910: real time    2.4970
    TRIAL :  cpu time   43.6900: real time   43.7960
    CORREC:  cpu time   23.4290: real time   23.4856
    CHARGE:  cpu time    7.4583: real time    7.4764
    --------------------------------------------
      LOOP:  cpu time   79.2341: real time   79.4259

 eigenvalue-minimisations  :     0
 total energy-change (2. order) :-0.1176573E+02  (-0.1025112E+02)
 number of electron     458.9999975 magnetization      10.8643620
 augmentation part      154.6538858 magnetization      10.4136713

 Free energy of the ion-electron system (eV)
  ---------------------------------------------------
  alpha Z        PSCENC =      1491.50277029
  Ewald energy   TEWEN  =    -26840.82722007
  -Hartree energ DENC   =    -14780.17669918
  -exchange      EXHF   =         0.00000000
  -V(xc)+E(xc)   XCENC  =      1185.50469945
  PAW double counting   =     49234.14711913   -50936.67608384
  entropy T*S    EENTRO =        -0.03880592
  eigenvalues    EBANDS =     -2104.38355582
  atomic energy  EATOM  =     41137.45868494
  ---------------------------------------------------
  free energy    TOTEN  =     -1613.45835382 eV

  energy without entropy =    -1613.41954790  energy(sigma->0) =    -1613.43895086


--------------------------------------------------------------------------------------------------------




--------------------------------------- Iteration      1(  13)  ---------------------------------------


    POTLOK:  cpu time    2.1645: real time    2.1697
    SETDIJ:  cpu time    2.4740: real time    2.4800
    TRIAL :  cpu time   43.2208: real time   43.3255
    CORREC:  cpu time   23.3482: real time   23.4046
    CHARGE:  cpu time    7.4751: real time    7.4932
    --------------------------------------------
      LOOP:  cpu time   78.6831: real time   78.8735

 eigenvalue-minimisations  :     0
 total energy-change (2. order) :-0.1092118E+02  (-0.3445644E+01)
 number of electron     458.9999975 magnetization      11.5047228
 augmentation part      153.4511321 magnetization      10.6395795

 Free energy of the ion-electron system (eV)
  ---------------------------------------------------
  alpha Z        PSCENC =      1491.50277029
  Ewald energy   TEWEN  =    -26840.82722007
  -Hartree energ DENC   =    -14744.64737774
  -exchange      EXHF   =         0.00000000
  -V(xc)+E(xc)   XCENC  =      1197.61447241
  PAW double counting   =     49115.84520616   -50797.45168380
  entropy T*S    EENTRO =        -0.04571868
  eigenvalues    EBANDS =     -2183.83557627
  atomic energy  EATOM  =     41137.45868494
  ---------------------------------------------------
  free energy    TOTEN  =     -1624.37952999 eV

  energy without entropy =    -1624.33381131  energy(sigma->0) =    -1624.35667065


--------------------------------------------------------------------------------------------------------




--------------------------------------- Iteration      1(  14)  ---------------------------------------


    POTLOK:  cpu time    2.1653: real time    2.1706
    SETDIJ:  cpu time    2.4723: real time    2.4782
    TRIAL :  cpu time   43.3961: real time   43.5012
    CORREC:  cpu time   23.3542: real time   23.4106
    CHARGE:  cpu time    7.4689: real time    7.4870
    --------------------------------------------
      LOOP:  cpu time   78.8573: real time   79.0480

 eigenvalue-minimisations  :     0
 total energy-change (2. order) :-0.1284508E+01  (-0.5399155E+01)
 number of electron     458.9999974 magnetization       9.9980770
 augmentation part      151.6600430 magnetization       9.3725669

 Free energy of the ion-electron system (eV)
  ---------------------------------------------------
  alpha Z        PSCENC =      1491.50277029
  Ewald energy   TEWEN  =    -26840.82722007
  -Hartree energ DENC   =    -14701.43673437
  -exchange      EXHF   =         0.00000000
  -V(xc)+E(xc)   XCENC  =      1204.24207464
  PAW double counting   =     49029.67621233   -50697.37221303
  entropy T*S    EENTRO =        -0.04184849
  eigenvalues    EBANDS =     -2248.86189398
  atomic energy  EATOM  =     41137.45868494
  ---------------------------------------------------
  free energy    TOTEN  =     -1625.66403792 eV

  energy without entropy =    -1625.62218943  energy(sigma->0) =    -1625.64311368


--------------------------------------------------------------------------------------------------------




--------------------------------------- Iteration      1(  15)  ---------------------------------------


    POTLOK:  cpu time    2.1652: real time    2.1704
    SETDIJ:  cpu time    2.4704: real time    2.4763
    TRIAL :  cpu time   43.1790: real time   43.2835
    CORREC:  cpu time   23.3347: real time   23.3911
    CHARGE:  cpu time    7.4658: real time    7.4839
    --------------------------------------------
      LOOP:  cpu time   78.6155: real time   78.8055

 eigenvalue-minimisations  :     0
 total energy-change (2. order) :-0.2439713E+01  (-0.7660772E+01)
 number of electron     458.9999974 magnetization       9.0000011
 augmentation part      149.6795944 magnetization       8.4253844

 Free energy of the ion-electron system (eV)
  ---------------------------------------------------
  alpha Z        PSCENC =      1491.50277029
  Ewald energy   TEWEN  =    -26840.82722007
  -Hartree energ DENC   =    -14604.91775902
  -exchange      EXHF   =         0.00000000
  -V(xc)+E(xc)   XCENC  =      1212.74808141
  PAW double counting   =     48850.45379702   -50499.57435898
  entropy T*S    EENTRO =        -0.02643871
  eigenvalues    EBANDS =     -2374.90589784
  atomic energy  EATOM  =     41137.45868494
  ---------------------------------------------------
  free energy    TOTEN  =     -1628.10375073 eV

  energy without entropy =    -1628.07731202  energy(sigma->0) =    -1628.09053138


--------------------------------------------------------------------------------------------------------




--------------------------------------- Iteration      1(  16)  ---------------------------------------


    POTLOK:  cpu time    2.1657: real time    2.1710
    SETDIJ:  cpu time    2.4609: real time    2.4668
    TRIAL :  cpu time   43.2998: real time   43.4045
    CORREC:  cpu time   23.3787: real time   23.4351
    CHARGE:  cpu time    7.4564: real time    7.4745
    --------------------------------------------
      LOOP:  cpu time   78.7619: real time   78.9522

 eigenvalue-minimisations  :     0
 total energy-change (2. order) :-0.1359282E+01  (-0.4835834E+01)
 number of electron     458.9999975 magnetization       9.0000001
 augmentation part      148.5237639 magnetization       8.2525081

 Free energy of the ion-electron system (eV)
  ---------------------------------------------------
  alpha Z        PSCENC =      1491.50277029
  Ewald energy   TEWEN  =    -26840.82722007
  -Hartree energ DENC   =    -14500.60553317
  -exchange      EXHF   =         0.00000000
  -V(xc)+E(xc)   XCENC  =      1221.84983898
  PAW double counting   =     48654.38929185   -50282.22592948
  entropy T*S    EENTRO =        -0.00167542
  eigenvalues    EBANDS =     -2510.97849750
  atomic energy  EATOM  =     41137.45868494
  ---------------------------------------------------
  free energy    TOTEN  =     -1629.46303286 eV

  energy without entropy =    -1629.46135745  energy(sigma->0) =    -1629.46219516


--------------------------------------------------------------------------------------------------------




--------------------------------------- Iteration      1(  17)  ---------------------------------------


    POTLOK:  cpu time    2.1662: real time    2.1714
    SETDIJ:  cpu time    2.4675: real time    2.4734
    TRIAL :  cpu time   43.3027: real time   43.4075
    CORREC:  cpu time   23.4102: real time   23.4667
    CHARGE:  cpu time    7.4696: real time    7.4876
    --------------------------------------------
      LOOP:  cpu time   78.8166: real time   79.0071

 eigenvalue-minimisations  :     0
 total energy-change (2. order) :-0.5557575E+01  (-0.5809728E+01)
 number of electron     458.9999975 magnetization       9.0000001
 augmentation part      149.1939981 magnetization       8.1800567

 Free energy of the ion-electron system (eV)
  ---------------------------------------------------
  alpha Z        PSCENC =      1491.50277029
  Ewald energy   TEWEN  =    -26840.82722007
  -Hartree energ DENC   =    -14452.80956489
  -exchange      EXHF   =         0.00000000
  -V(xc)+E(xc)   XCENC  =      1227.13979481
  PAW double counting   =     48467.94974517   -50085.01705827
  entropy T*S    EENTRO =        -0.00000002
  eigenvalues    EBANDS =     -2580.41608442
  atomic energy  EATOM  =     41137.45868494
  ---------------------------------------------------
  free energy    TOTEN  =     -1635.02060786 eV

  energy without entropy =    -1635.02060783  energy(sigma->0) =    -1635.02060785


--------------------------------------------------------------------------------------------------------




--------------------------------------- Iteration      1(  18)  ---------------------------------------


    POTLOK:  cpu time    2.1661: real time    2.1713
    SETDIJ:  cpu time    2.4614: real time    2.4673
    TRIAL :  cpu time   43.3488: real time   43.4537
    CORREC:  cpu time   23.3680: real time   23.4244
    CHARGE:  cpu time    7.4769: real time    7.4950
    --------------------------------------------
      LOOP:  cpu time   78.8215: real time   79.0119

 eigenvalue-minimisations  :     0
 total energy-change (2. order) :-0.6076677E+01  (-0.5162891E+01)
 number of electron     458.9999973 magnetization       9.0000001
 augmentation part      150.7724264 magnetization       8.1052812

 Free energy of the ion-electron system (eV)
  ---------------------------------------------------
  alpha Z        PSCENC =      1491.50277029
  Ewald energy   TEWEN  =    -26840.82722007
  -Hartree energ DENC   =    -14570.21928724
  -exchange      EXHF   =         0.00000000
  -V(xc)+E(xc)   XCENC  =      1224.59297696
  PAW double counting   =     48229.46514302   -49876.40330973
  entropy T*S    EENTRO =        -0.00920766
  eigenvalues    EBANDS =     -2436.66704294
  atomic energy  EATOM  =     41137.45868494
  ---------------------------------------------------
  free energy    TOTEN  =     -1641.09728479 eV

  energy without entropy =    -1641.08807713  energy(sigma->0) =    -1641.09268096


--------------------------------------------------------------------------------------------------------




--------------------------------------- Iteration      1(  19)  ---------------------------------------


    POTLOK:  cpu time    2.1657: real time    2.1709
    SETDIJ:  cpu time    2.4636: real time    2.4694
    TRIAL :  cpu time   43.3342: real time   43.4392
    CORREC:  cpu time   23.3423: real time   23.3985
    CHARGE:  cpu time    7.4592: real time    7.4773
    --------------------------------------------
      LOOP:  cpu time   78.7653: real time   78.9557

 eigenvalue-minimisations  :     0
 total energy-change (2. order) :-0.4834882E+01  (-0.1978732E+01)
 number of electron     458.9999973 magnetization       9.0000001
 augmentation part      151.2052263 magnetization       7.9172476

 Free energy of the ion-electron system (eV)
  ---------------------------------------------------
  alpha Z        PSCENC =      1491.50277029
  Ewald energy   TEWEN  =    -26840.82722007
  -Hartree energ DENC   =    -14752.85463646
  -exchange      EXHF   =         0.00000000
  -V(xc)+E(xc)   XCENC  =      1219.43568303
  PAW double counting   =     48032.35399090   -49713.29635290
  entropy T*S    EENTRO =        -0.01256034
  eigenvalues    EBANDS =     -2219.69587897
  atomic energy  EATOM  =     41137.45868494
  ---------------------------------------------------
  free energy    TOTEN  =     -1645.93216689 eV

  energy without entropy =    -1645.91960655  energy(sigma->0) =    -1645.92588672


--------------------------------------------------------------------------------------------------------




--------------------------------------- Iteration      1(  20)  ---------------------------------------


    POTLOK:  cpu time    2.1656: real time    2.1708
    SETDIJ:  cpu time    2.4664: real time    2.4723
    TRIAL :  cpu time   43.1996: real time   43.3041
    CORREC:  cpu time   23.3687: real time   23.4251
    CHARGE:  cpu time    7.4515: real time    7.4695
    --------------------------------------------
      LOOP:  cpu time   78.6521: real time   78.8422

 eigenvalue-minimisations  :     0
 total energy-change (2. order) :-0.1964449E+01  (-0.1346218E+01)
 number of electron     458.9999974 magnetization       9.0000002
 augmentation part      151.1121374 magnetization       7.7416469

 Free energy of the ion-electron system (eV)
  ---------------------------------------------------
  alpha Z        PSCENC =      1491.50277029
  Ewald energy   TEWEN  =    -26840.82722007
  -Hartree energ DENC   =    -14795.19223277
  -exchange      EXHF   =         0.00000000
  -V(xc)+E(xc)   XCENC  =      1219.58698452
  PAW double counting   =     47870.05206015   -49550.22847381
  entropy T*S    EENTRO =        -0.00109279
  eigenvalues    EBANDS =     -2180.23662845
  atomic energy  EATOM  =     41137.45868494
  ---------------------------------------------------
  free energy    TOTEN  =     -1647.89661554 eV

  energy without entropy =    -1647.89552275  energy(sigma->0) =    -1647.89606914


--------------------------------------------------------------------------------------------------------




--------------------------------------- Iteration      1(  21)  ---------------------------------------


    POTLOK:  cpu time    2.1655: real time    2.1708
    SETDIJ:  cpu time    2.4785: real time    2.4844
    TRIAL :  cpu time   43.3168: real time   43.4215
    CORREC:  cpu time   23.3885: real time   23.4450
    CHARGE:  cpu time    7.4645: real time    7.4825
    --------------------------------------------
      LOOP:  cpu time   78.8142: real time   79.0045

 eigenvalue-minimisations  :     0
 total energy-change (2. order) :-0.1169582E+01  (-0.1176444E+01)
 number of electron     458.9999975 magnetization       9.0000002
 augmentation part      150.6159028 magnetization       7.4815945

 Free energy of the ion-electron system (eV)
  ---------------------------------------------------
  alpha Z        PSCENC =      1491.50277029
  Ewald energy   TEWEN  =    -26840.82722007
  -Hartree energ DENC   =    -14776.99583364
  -exchange      EXHF   =         0.00000000
  -V(xc)+E(xc)   XCENC  =      1220.87882153
  PAW double counting   =     47797.04706228   -49468.06892938
  entropy T*S    EENTRO =        -0.00021172
  eigenvalues    EBANDS =     -2210.06046069
  atomic energy  EATOM  =     41137.45868494
  ---------------------------------------------------
  free energy    TOTEN  =     -1649.06619752 eV

  energy without entropy =    -1649.06598580  energy(sigma->0) =    -1649.06609166


--------------------------------------------------------------------------------------------------------




--------------------------------------- Iteration      1(  22)  ---------------------------------------


    POTLOK:  cpu time    2.1656: real time    2.1709
    SETDIJ:  cpu time    2.4966: real time    2.5026
    TRIAL :  cpu time   43.2521: real time   43.3567
    CORREC:  cpu time   23.3768: real time   23.4332
    CHARGE:  cpu time    7.4774: real time    7.4954
    --------------------------------------------
      LOOP:  cpu time   78.7688: real time   78.9591

 eigenvalue-minimisations  :     0
 total energy-change (2. order) :-0.1190890E+01  (-0.8707682E+00)
 number of electron     458.9999975 magnetization       9.0000002
 augmentation part      150.3991094 magnetization       7.2658366

 Free energy of the ion-electron system (eV)
  ---------------------------------------------------
  alpha Z        PSCENC =      1491.50277029
  Ewald energy   TEWEN  =    -26840.82722007
  -Hartree energ DENC   =    -14702.03326124
  -exchange      EXHF   =         0.00000000
  -V(xc)+E(xc)   XCENC  =      1221.91781356
  PAW double counting   =     47866.09464388   -49523.79505679
  entropy T*S    EENTRO =        -0.00672822
  eigenvalues    EBANDS =     -2300.57525012
  atomic energy  EATOM  =     41137.45868494
  ---------------------------------------------------
  free energy    TOTEN  =     -1650.25708728 eV

  energy without entropy =    -1650.25035907  energy(sigma->0) =    -1650.25372317


--------------------------------------------------------------------------------------------------------




--------------------------------------- Iteration      1(  23)  ---------------------------------------


    POTLOK:  cpu time    2.1657: real time    2.1709
    SETDIJ:  cpu time    2.4661: real time    2.4721
    TRIAL :  cpu time   43.2586: real time   43.3632
    CORREC:  cpu time   23.4176: real time   23.4742
    CHARGE:  cpu time    7.4909: real time    7.5089
    --------------------------------------------
      LOOP:  cpu time   78.7992: real time   78.9897

 eigenvalue-minimisations  :     0
 total energy-change (2. order) :-0.8159434E+00  (-0.4100004E+00)
 number of electron     458.9999975 magnetization       9.0000002
 augmentation part      150.3742201 magnetization       7.1585920

 Free energy of the ion-electron system (eV)
  ---------------------------------------------------
  alpha Z        PSCENC =      1491.50277029
  Ewald energy   TEWEN  =    -26840.82722007
  -Hartree energ DENC   =    -14653.69342698
  -exchange      EXHF   =         0.00000000
  -V(xc)+E(xc)   XCENC  =      1219.54134314
  PAW double counting   =     48128.61174903   -49788.93808123
  entropy T*S    EENTRO =        -0.00346251
  eigenvalues    EBANDS =     -2344.72212162
  atomic energy  EATOM  =     41137.45868494
  ---------------------------------------------------
  free energy    TOTEN  =     -1651.07303072 eV

  energy without entropy =    -1651.06956821  energy(sigma->0) =    -1651.07129947


--------------------------------------------------------------------------------------------------------




--------------------------------------- Iteration      1(  24)  ---------------------------------------


    POTLOK:  cpu time    2.1664: real time    2.1716
    SETDIJ:  cpu time    2.4656: real time    2.4715
    TRIAL :  cpu time   43.3122: real time   43.4169
    CORREC:  cpu time   23.4070: real time   23.4635
    CHARGE:  cpu time    7.4624: real time    7.4804
    --------------------------------------------
      LOOP:  cpu time   78.8140: real time   79.0044

 eigenvalue-minimisations  :     0
 total energy-change (2. order) :-0.4121205E+00  (-0.2743794E+00)
 number of electron     458.9999974 magnetization       9.0000002
 augmentation part      150.3713093 magnetization       7.1355240

 Free energy of the ion-electron system (eV)
  ---------------------------------------------------
  alpha Z        PSCENC =      1491.50277029
  Ewald energy   TEWEN  =    -26840.82722007
  -Hartree energ DENC   =    -14634.53993018
  -exchange      EXHF   =         0.00000000
  -V(xc)+E(xc)   XCENC  =      1217.28600677
  PAW double counting   =     48332.02828228   -49998.23209912
  entropy T*S    EENTRO =        -0.00060177
  eigenvalues    EBANDS =     -2356.15818364
  atomic energy  EATOM  =     41137.45868494
  ---------------------------------------------------
  free energy    TOTEN  =     -1651.48515123 eV

  energy without entropy =    -1651.48454946  energy(sigma->0) =    -1651.48485034


--------------------------------------------------------------------------------------------------------




--------------------------------------- Iteration      1(  25)  ---------------------------------------


    POTLOK:  cpu time    2.1651: real time    2.1703
    SETDIJ:  cpu time    2.4941: real time    2.5001
    TRIAL :  cpu time   43.3265: real time   43.4313
    CORREC:  cpu time   23.3895: real time   23.4460
    CHARGE:  cpu time    7.4529: real time    7.4709
    --------------------------------------------
      LOOP:  cpu time   78.8285: real time   79.0189

 eigenvalue-minimisations  :     0
 total energy-change (2. order) :-0.2796130E+00  (-0.2052497E+00)
 number of electron     458.9999975 magnetization       9.0000002
 augmentation part      150.3463982 magnetization       7.1515582

 Free energy of the ion-electron system (eV)
  ---------------------------------------------------
  alpha Z        PSCENC =      1491.50277029
  Ewald energy   TEWEN  =    -26840.82722007
  -Hartree energ DENC   =    -14626.81087914
  -exchange      EXHF   =         0.00000000
  -V(xc)+E(xc)   XCENC  =      1216.61036140
  PAW double counting   =     48405.15851932   -50072.97555780
  entropy T*S    EENTRO =        -0.00094503
  eigenvalues    EBANDS =     -2361.88084143
  atomic energy  EATOM  =     41137.45868494
  ---------------------------------------------------
  free energy    TOTEN  =     -1651.76476426 eV

  energy without entropy =    -1651.76381923  energy(sigma->0) =    -1651.76429175


[...]
   -.392E+03 -.153E+02 -.612E+02   0.414E+03 0.150E+02 0.613E+02   -.225E+02 0.292E+00 -.112E+00
   0.392E+03 -.360E+02 0.134E+03   -.417E+03 0.395E+02 -.143E+03   0.250E+02 -.354E+01 0.901E+01
   -.403E+03 0.425E+02 -.119E+03   0.428E+03 -.459E+02 0.127E+03   -.250E+02 0.340E+01 -.765E+01
   0.407E+03 0.233E+02 0.939E+02   -.433E+03 -.228E+02 -.984E+02   0.267E+02 -.463E+00 0.446E+01
   0.351E+03 -.461E+01 0.801E+01   -.375E+03 0.445E+01 -.759E+01   0.242E+02 0.154E+00 -.411E+00
   -.335E+03 -.111E+01 -.375E+02   0.363E+03 0.116E+01 0.418E+02   -.281E+02 -.479E-01 -.431E+01
   0.346E+03 0.930E+01 0.309E+02   -.374E+03 -.946E+01 -.346E+02   0.280E+02 0.154E+00 0.367E+01
   -.360E+03 0.163E+02 -.330E+02   0.388E+03 -.163E+02 0.362E+02   -.283E+02 0.180E-01 -.325E+01
   -.394E+03 -.556E+02 -.629E+02   0.416E+03 0.572E+02 0.682E+02   -.222E+02 -.161E+01 -.533E+01
   0.356E+03 -.207E+02 0.499E+02   -.378E+03 0.204E+02 -.538E+02   0.221E+02 0.330E+00 0.393E+01
   0.398E+03 0.355E+02 0.406E+02   -.425E+03 -.377E+02 -.452E+02   0.274E+02 0.219E+01 0.461E+01
   -.408E+03 0.409E+02 -.648E+02   0.432E+03 -.433E+02 0.697E+02   -.231E+02 0.243E+01 -.482E+01
   -.372E+03 0.715E+01 -.757E+02   0.393E+03 -.937E+01 0.815E+02   -.218E+02 0.222E+01 -.578E+01
   0.383E+03 0.158E+02 0.784E+02   -.406E+03 -.179E+02 -.835E+02   0.228E+02 0.211E+01 0.515E+01
   0.415E+03 0.308E+02 0.437E+02   -.442E+03 -.311E+02 -.476E+02   0.272E+02 0.286E+00 0.386E+01
   -.372E+03 0.832E+01 -.497E+02   0.394E+03 -.678E+01 0.529E+02   -.220E+02 -.154E+01 -.317E+01
   0.342E+03 0.232E+00 0.875E+02   -.365E+03 0.753E+00 -.937E+02   0.234E+02 -.986E+00 0.619E+01
   -.307E+03 0.456E+02 -.809E+02   0.330E+03 -.492E+02 0.864E+02   -.232E+02 0.355E+01 -.556E+01
   -.331E+03 -.269E+02 -.655E+02   0.359E+03 0.271E+02 0.707E+02   -.283E+02 -.165E+00 -.520E+01
   0.337E+03 -.987E+01 0.802E+02   -.361E+03 0.896E+01 -.850E+02   0.233E+02 0.913E+00 0.480E+01
   0.313E+03 0.624E+02 0.854E+02   -.336E+03 -.660E+02 -.917E+02   0.232E+02 0.367E+01 0.632E+01
   -.318E+03 0.721E+02 -.854E+02   0.341E+03 -.761E+02 0.914E+02   -.233E+02 0.398E+01 -.608E+01
   -.356E+03 -.297E+02 -.729E+02   0.384E+03 0.304E+02 0.785E+02   -.280E+02 -.698E+00 -.559E+01
   0.321E+03 -.521E+02 0.793E+02   -.344E+03 0.560E+02 -.841E+02   0.233E+02 -.392E+01 0.472E+01
   -.365E+03 0.560E+02 -.987E+02   0.386E+03 -.628E+02 0.106E+03   -.208E+02 0.681E+01 -.753E+01
   0.344E+03 -.175E+02 0.268E+02   -.367E+03 0.183E+02 -.282E+02   0.234E+02 -.898E+00 0.137E+01
   0.346E+03 -.540E+01 0.888E+02   -.369E+03 0.623E+01 -.939E+02   0.237E+02 -.823E+00 0.514E+01
   -.369E+03 -.320E+02 -.910E+02   0.392E+03 0.347E+02 0.966E+02   -.235E+02 -.275E+01 -.561E+01
   -.382E+03 -.123E+02 -.437E+01   0.404E+03 0.124E+02 0.743E+00   -.225E+02 -.162E+00 0.362E+01
   0.373E+03 0.193E+02 0.408E+00   -.396E+03 -.205E+02 0.342E+01   0.227E+02 0.118E+01 -.382E+01
   0.353E+03 -.720E+02 0.973E+02   -.374E+03 0.795E+02 -.105E+03   0.210E+02 -.748E+01 0.733E+01
   -.356E+03 0.458E+00 -.332E+02   0.379E+03 -.148E+00 0.352E+02   -.230E+02 -.309E+00 -.192E+01
   0.353E+03 0.255E+02 0.786E+02   -.376E+03 -.275E+02 -.847E+02   0.235E+02 0.208E+01 0.612E+01
   -.332E+03 -.808E+01 -.278E+02   0.357E+03 0.808E+01 0.298E+02   -.246E+02 0.624E-02 -.202E+01
   -.322E+03 -.253E+02 -.712E+02   0.347E+03 0.271E+02 0.769E+02   -.245E+02 -.186E+01 -.567E+01
   0.345E+03 -.380E+02 0.746E+02   -.369E+03 0.409E+02 -.809E+02   0.240E+02 -.290E+01 0.625E+01
   0.349E+03 0.338E+01 0.351E+02   -.373E+03 -.318E+01 -.373E+02   0.238E+02 -.192E+00 0.223E+01
   -.341E+03 0.186E+02 -.310E+02   0.365E+03 -.190E+02 0.330E+02   -.241E+02 0.435E+00 -.198E+01
   -.337E+03 -.475E+02 -.774E+02   0.361E+03 0.502E+02 0.831E+02   -.235E+02 -.271E+01 -.578E+01
   0.344E+03 -.115E+02 0.337E+02   -.368E+03 0.124E+02 -.363E+02   0.242E+02 -.943E+00 0.255E+01
   0.645E-02 0.897E+01 -.839E+00   0.178E+00 -.918E+01 0.848E+00   -.264E+00 0.315E+00 0.120E-01
   -.861E+01 -.135E+02 0.195E+02   0.942E+01 0.133E+02 -.194E+02   -.762E+00 0.322E+00 -.271E+00
   -.142E-03 0.436E+02 -.776E+01   0.363E+00 -.442E+02 0.792E+01   -.378E+00 0.536E+00 -.171E+00
   0.458E+02 0.203E+02 0.127E+02   -.466E+02 -.196E+02 -.132E+02   0.862E+00 -.716E+00 0.528E+00
   -.300E+02 -.319E+02 -.331E+01   0.302E+02 0.321E+02 0.345E+01   -.175E+00 -.212E+00 -.170E+00
   0.856E+01 0.240E+02 0.197E+02   -.979E+01 -.242E+02 -.203E+02   0.124E+01 0.110E+00 0.539E+00
   0.400E+02 0.135E+01 0.235E+01   -.399E+02 -.162E+01 -.239E+01   -.113E+00 0.376E+00 0.852E-01
   -.108E+02 -.123E+01 -.667E+01   0.117E+02 0.126E+01 0.699E+01   -.906E+00 -.179E+00 -.337E+00
   0.107E+01 0.522E+02 -.108E+01   -.116E+01 -.532E+02 0.106E+01   0.742E-01 0.113E+01 0.352E-01
   -.533E+02 -.145E+02 -.116E+02   0.541E+02 0.152E+02 0.119E+02   -.703E+00 -.896E+00 -.383E+00
   -.320E+02 -.678E+01 0.430E+02   0.323E+02 0.699E+01 -.432E+02   -.242E+00 -.340E+00 -.485E-01
   -.240E+02 -.283E+02 -.713E+01   0.240E+02 0.277E+02 0.726E+01   0.903E-01 0.787E+00 -.148E+00
   -.167E+02 -.785E+01 0.183E+01   0.168E+02 0.804E+01 -.185E+01   -.787E-01 -.209E+00 0.176E-01
   -.608E+01 -.263E+01 -.455E+02   0.596E+01 0.264E+01 0.457E+02   0.143E+00 0.804E-02 -.712E-01
   0.719E+01 0.226E+02 0.260E+00   -.727E+01 -.229E+02 -.340E+00   0.856E-01 0.316E+00 0.922E-01
   0.785E+01 -.343E+02 0.265E+02   -.765E+01 0.349E+02 -.269E+02   -.230E+00 -.684E+00 0.396E+00
   0.284E+02 0.153E+02 -.255E+02   -.287E+02 -.158E+02 0.259E+02   0.286E+00 0.490E+00 -.345E+00
   0.270E+02 -.355E+02 0.886E+00   -.269E+02 0.363E+02 -.798E+00   -.182E+00 -.846E+00 -.521E-01
 -----------------------------------------------------------------------------------------------
   -.115E+01 -.419E+01 -.116E+00   0.341E-12 0.284E-13 0.177E-12   0.120E+01 0.419E+01 0.156E+00
 
 
 POSITION                                       TOTAL-FORCE (eV/Angst)
 -----------------------------------------------------------------------------------
      1.74692     13.86372      3.52921         0.001024      0.002390      0.002404
      7.01285      2.76282      1.22038        -0.004162     -0.017010      0.007605
      2.17038      9.67814      1.19510         0.003680      0.009123      0.000967
      6.62960      9.64051      3.55370        -0.002625      0.005761     -0.000662
      2.15178      4.25046      1.16019         0.001630      0.005147     -0.001431
      8.63629     13.87836      4.74947         0.002042      0.021225      0.005214
     -0.35720      6.95977      2.37735        -0.006959     -0.004026     -0.020644
      0.59828     13.86771      1.81464         0.002248     -0.002550      0.003066
      7.94767     13.77615      3.05518         0.001912      0.001311      0.006355
      0.36640      7.05131      4.07856        -0.002756      0.000273     -0.003745
      8.54886      6.99920      0.58634        -0.007059      0.004284     -0.001853
      3.76380     13.91257      0.58105         0.000277      0.001018      0.003004
      5.05872     -0.00961      4.14131         0.006025     -0.001260     -0.001348
      3.35048      6.93445      2.97546        -0.004570      0.000128     -0.001342
      5.46881      6.96749      1.75819         0.003158     -0.001156     -0.001920
      0.21878      1.30899      4.14020         0.000844     -0.002570      0.001421
      8.43996      1.44766      0.63741         0.004369     -0.007724      0.004344
      8.42385     12.48611      0.65917        -0.001156      0.001670      0.003528
      0.22872     12.53748      4.12469         0.003257     -0.004480     -0.000455
      0.73254      8.39203      1.70362        -0.000842      0.001869     -0.005514
      8.11132      8.36052      3.01095        -0.005442      0.004387     -0.001357
      8.11244      5.57444      2.95938        -0.004798      0.002855     -0.000297
      0.70132      5.51907      1.74145        -0.002574      0.004015     -0.003266
      3.31179      1.36682      3.00900         0.002268     -0.000897      0.002241
      5.48269      1.43008      1.72152         0.003879     -0.003211      0.000992
      5.49386     12.50410      1.74446         0.004850      0.001170     -0.000124
      3.34642     12.53997      3.01578         0.000663      0.001764      0.000585
      3.72481      8.40165      0.64096        -0.002947      0.001624      0.001450
      5.06591      8.36537      4.10878         0.002967     -0.000981     -0.001439
      5.05446      5.53744      4.12979         0.002597     -0.001407     -0.003037
      3.73406      5.54237      0.64674        -0.001522     -0.003188      0.000797
      0.73750      2.87136      1.68209         0.001871      0.000106      0.000775
      8.08518      2.78868      2.98588        -0.001081     -0.003199      0.004280
      8.06756     11.07023      3.04060        -0.001764      0.003616      0.000434
      0.65549     11.14508      1.73537        -0.000438     -0.000914     -0.002461
      0.32225      9.77277      4.26631        -0.000682     -0.002015     -0.004462
      8.47985      9.74795      0.48665        -0.002648      0.002925     -0.000719
      8.44269      4.06675      0.69114        -0.003968     -0.003462      0.000868
      0.24388      4.14546      4.14571         0.000504      0.000159     -0.001569
      3.70467      2.80628      0.64576         0.002841     -0.000307      0.002144
      5.05063      2.76215      4.13125         0.003476     -0.001778     -0.000019
      5.08927     11.09346      4.10187         0.003898      0.000091      0.000043
      3.74031     11.13848      0.63845        -0.000234     -0.000964      0.002166
      3.31410      9.74277      2.99635        -0.000466     -0.000116      0.001693
      5.47801      9.75246      1.75818         0.003520     -0.001694     -0.000273
      5.48796      4.12792      1.72062         0.001707     -0.001614     -0.000285
      3.32098      4.17306      2.98113         0.002406     -0.002782      0.000814
      3.98054      6.93850      4.74928        -0.001737      0.001323     -0.000887
      4.42929     -0.01264      2.37418        -0.001180     -0.001518      0.001290
     -0.77591      8.34905      4.73489         0.002221      0.001543      0.002092
      8.75011      5.56279      4.72518        -0.001169     -0.000058     -0.000715
      9.12910      1.37240      2.39443         0.002993     -0.003188      0.001470
      9.08920     12.48672      2.39278         0.002954     -0.000288     -0.002770
      3.97168      1.36539      4.74124        -0.002141      0.002705     -0.001682
      4.85553     12.53809      0.00549        -0.001024     -0.002204     -0.000377
      4.39745      8.33477      2.37226        -0.003588      0.003550     -0.000327
      4.43364      5.56897      2.38360        -0.002338     -0.005674      0.000208
      9.57068      2.78963      0.00475         0.002644     -0.003709      0.001675
      9.57220     11.13860      0.01249         0.001474     -0.002012      0.002895
     -0.38995      9.73978      2.37557         0.001965      0.001871     -0.000893
     -0.39821      4.16440      2.37472         0.002059      0.000601      0.001136
      3.98941      9.72820      4.74706        -0.002926      0.000700     -0.000760
      3.97572      4.16079      4.73850        -0.001532     -0.003196     -0.000672
      4.38629      2.77032      2.37334        -0.004998      0.004050     -0.000014
      4.40413     11.14644      2.37235        -0.002897     -0.002101     -0.000637
 -----------------------------------------------------------------------------------
    total drift:                                0.041719      0.000098      0.039278


--------------------------------------------------------------------------------------------------------



  FREE ENERGIE OF THE ION-ELECTRON SYSTEM (eV)
  ---------------------------------------------------
  free  energy   TOTEN  =     -1652.2241319225 eV

  energy  without entropy=    -1652.2239642098  energy(sigma->0) =    -1652.22404807
 


--------------------------------------------------------------------------------------------------------


    POTLOK:  cpu time    4.6616: real time    4.6726


--------------------------------------------------------------------------------------------------------


     LOOP+:  cpu time 5516.0680: real time 5529.8022
    4ORBIT:  cpu time    0.0000: real time    0.0000

volume of typ            1:     6.1 %

volume of typ            2:     2.1 %

volume of typ            3:    10.3 %

volume of typ            4:     2.1 %

volume of typ            5:    16.1 %
 
total charge     
 
# of ion       s       p       d       tot
------------------------------------------
    1        2.060   0.203   0.083   2.346
    2        2.079   0.251   0.108   2.438
    3        2.076   0.246   0.104   2.426
    4        2.077   0.247   0.105   2.429
    5        2.073   0.235   0.099   2.407
    6        0.240   6.265   4.567  11.072
    7        0.237   6.262   4.556  11.055
    8        1.273   2.817   0.007   4.097
    9        1.286   2.780   0.007   4.073
   10        1.284   2.784   0.007   4.075
   11        1.282   2.790   0.007   4.080
   12        1.279   2.793   0.007   4.079
   13        1.290   2.759   0.008   4.057
   14        1.289   2.766   0.008   4.063
   15        1.288   2.768   0.008   4.064
   16        1.273   2.815   0.007   4.094
   17        1.274   2.821   0.007   4.101
   18        1.286   2.782   0.007   4.075
   19        1.276   2.812   0.007   4.095
   20        1.274   2.821   0.007   4.102
   21        1.274   2.822   0.007   4.103
   22        1.284   2.788   0.008   4.079
   23        1.274   2.819   0.007   4.099
   24        1.278   2.795   0.007   4.080
   25        1.278   2.797   0.007   4.083
   26        1.289   2.766   0.008   4.063
   27        1.277   2.800   0.007   4.084
   28        1.279   2.794   0.007   4.080
   29        1.279   2.795   0.007   4.081
   30        1.289   2.765   0.008   4.061
   31        1.278   2.796   0.007   4.081
   32        1.281   2.787   0.006   4.075
   33        1.277   2.802   0.007   4.085
   34        1.279   2.801   0.007   4.087
   35        1.279   2.797   0.007   4.083
   36        1.280   2.796   0.007   4.083
   37        1.280   2.796   0.007   4.083
   38        1.283   2.787   0.007   4.077
   39        1.277   2.800   0.007   4.083
   40        1.283   2.781   0.007   4.070
   41        1.281   2.788   0.007   4.076
   42        1.283   2.783   0.007   4.073
   43        1.282   2.784   0.007   4.073
   44        1.281   2.786   0.007   4.073
   45        1.282   2.784   0.007   4.072
   46        1.283   2.782   0.007   4.071
   47        1.281   2.787   0.007   4.075
   48        0.258   0.366   6.821   7.446
   49        0.262   0.372   6.831   7.465
   50        0.303   0.438   7.778   8.519
   51        0.267   0.353   7.804   8.423
   52        0.268   0.354   7.810   8.432
   53        0.296   0.420   7.769   8.485
   54        0.299   0.420   7.774   8.493
   55        0.295   0.412   7.768   8.475
   56        0.301   0.424   7.778   8.503
   57        0.297   0.415   7.771   8.483
   58        0.298   0.421   7.768   8.486
   59        0.303   0.433   7.775   8.510
   60        0.271   0.361   7.811   8.443
   61        0.300   0.427   7.770   8.496
   62        0.297   0.419   7.766   8.482
   63        0.299   0.422   7.771   8.492
   64        0.298   0.419   7.767   8.484
   65        0.300   0.423   7.770   8.493
--------------------------------------------------
tot          67.28  132.69  148.01  347.97
 
magnetization (x)
 
# of ion       s       p       d       tot
------------------------------------------
    1        0.000  -0.000  -0.000   0.000
    2        0.001   0.003   0.001   0.005
    3        0.001   0.003   0.001   0.005
    4        0.001   0.003   0.001   0.005
    5        0.001   0.002   0.001   0.004
    6        0.013   0.014   2.664   2.691
    7        0.013   0.014   2.681   2.709
    8        0.002  -0.010   0.000  -0.008
    9        0.008   0.110   0.001   0.118
   10        0.008   0.098   0.001   0.106
   11        0.001  -0.029   0.000  -0.028
   12        0.000  -0.006   0.000  -0.006
   13        0.000  -0.009   0.000  -0.009
   14        0.000  -0.009   0.000  -0.009
   15        0.000  -0.008   0.000  -0.008
   16        0.002  -0.012   0.000  -0.010
   17        0.002   0.014   0.001   0.017
   18        0.001  -0.000   0.000   0.002
   19        0.001   0.004   0.000   0.006
   20        0.002   0.001   0.000   0.003
   21        0.002   0.000   0.000   0.003
   22        0.002  -0.014   0.001  -0.010
   23        0.003   0.015   0.001   0.019
   24        0.000  -0.003   0.000  -0.003
   25        0.000  -0.004   0.000  -0.004
   26        0.000  -0.007   0.000  -0.007
   27        0.000  -0.002   0.000  -0.002
   28        0.000  -0.005   0.000  -0.005
   29        0.000  -0.003   0.000  -0.003
   30        0.000  -0.006   0.000  -0.006
   31        0.000  -0.003   0.000  -0.003
   32        0.007   0.096   0.000   0.104
   33        0.000  -0.026   0.000  -0.026
   34        0.002  -0.016   0.000  -0.014
   35        0.001  -0.018   0.000  -0.016
   36        0.008   0.096   0.000   0.104
   37        0.007   0.086   0.000   0.094
   38        0.007   0.078   0.000   0.085
   39        0.001  -0.021   0.000  -0.021
   40        0.000  -0.002   0.000  -0.002
   41        0.000  -0.004   0.000  -0.003
   42        0.000  -0.004   0.000  -0.003
   43        0.000  -0.003   0.000  -0.003
   44        0.000  -0.002   0.000  -0.002
   45        0.000  -0.003   0.000  -0.003
   46        0.000  -0.003   0.000  -0.003
   47        0.000  -0.004   0.000  -0.004
   48        0.000   0.000  -0.006  -0.006
   49        0.000   0.000  -0.007  -0.006
   50        0.003   0.003  -0.001   0.005
   51        0.008   0.004   0.833   0.845
   52        0.008   0.003   0.844   0.855
   53        0.004   0.004   0.060   0.069
   54        0.000   0.000   0.026   0.027
   55        0.000   0.000   0.033   0.034
   56        0.000   0.000   0.029   0.030
   57        0.000   0.000   0.031   0.031
   58        0.001   0.001   0.000   0.003
   59        0.001   0.002   0.007   0.009
   60        0.006   0.002   0.852   0.860
   61        0.002   0.002   0.003   0.006
   62        0.000   0.000   0.023   0.023
   63        0.000   0.000   0.017   0.018
   64        0.000   0.000   0.030   0.030
   65        0.000   0.000   0.019   0.019
--------------------------------------------------
tot           0.14    0.42    8.15    8.71
 

 total amount of memory used by VASP MPI-rank0   360063. kBytes
=======================================================================

   base      :      30000. kBytes
   nonlr-proj:      30936. kBytes
   fftplans  :       5952. kBytes
   grid      :      56632. kBytes
   one-center:       2021. kBytes
   wavefun   :     234522. kBytes
 
  
  
 General timing and accounting informations for this job:
 ========================================================
  
                  Total CPU time used (sec):     5536.953
                            User time (sec):     5517.113
                          System time (sec):       19.840
                         Elapsed time (sec):     5555.821
  
                   Maximum memory used (kb):      582480.
                   Average memory used (kb):           0.
  
                          Minor page faults:       921383
                          Major page faults:           66
                 Voluntary context switches:          901
