 vasp.5.4.4.18Apr17-6-g9f103f2a35 (build May 12 2020 04:58:55) complex          
  
 MD_VERSION_INFO: Compiled 2020-05-12T11:58:55-UTC in devlin.sd.materialsdesign.
 com:/home/medea2/data/build/wwolf/vasp-gpu5.4.4/13047/x86_64/src/src/build/std 
 from svn 13047
 
 This VASP executable licensed from Materials Design, Inc.
 
 executed on                        Lin64 date 2023.03.25  01:35:05
 running on   16 total cores
 distrk:  each k-point on   16 cores,    1 groups
 distr:  one band on NCORES_PER_BAND=   1 cores,   16 groups


--------------------------------------------------------------------------------------------------------


 INCAR:
 POTCAR:    PAW_PBE Ni 02Aug2007                  
 POTCAR:    PAW_PBE O 08Apr2002                   

 ----------------------------------------------------------------------------- 
|                                                                             |
|           W    W    AA    RRRRR   N    N  II  N    N   GGGG   !!!           |
|           W    W   A  A   R    R  NN   N  II  NN   N  G    G  !!!           |
|           W    W  A    A  R    R  N N  N  II  N N  N  G       !!!           |
|           W WW W  AAAAAA  RRRRR   N  N N  II  N  N N  G  GGG   !            |
|           WW  WW  A    A  R   R   N   NN  II  N   NN  G    G                |
|           W    W  A    A  R    R  N    N  II  N    N   GGGG   !!!           |
|                                                                             |
|      For optimal performance we recommend to set                            |
|        NCORE= 4 - approx SQRT( number of cores)                             |
|      NCORE specifies how many cores store one orbital (NPAR=cpu/NCORE).     |
|      This setting can  greatly improve the performance of VASP for DFT.     |
|      The default,   NCORE=1            might be grossly inefficient         |
|      on modern multi-core architectures or massively parallel machines.     |
|      Do your own testing !!!!                                               |
|      Unfortunately you need to use the default for GW and RPA calculations. |
|      (for HF NCORE is supported but not extensively tested yet)             |
|                                                                             |
 ----------------------------------------------------------------------------- 

 POTCAR:    PAW_PBE Ni 02Aug2007                  
  local pseudopotential read in
  partial core-charges read in
  partial kinetic energy density read in
  atomic valenz-charges read in
  non local Contribution for L=           2  read in
    real space projection operators read in
  non local Contribution for L=           2  read in
    real space projection operators read in
  non local Contribution for L=           0  read in
    real space projection operators read in
  non local Contribution for L=           0  read in
    real space projection operators read in
  non local Contribution for L=           1  read in
    real space projection operators read in
  non local Contribution for L=           1  read in
    real space projection operators read in
    PAW grid and wavefunctions read in
 
   number of l-projection  operators is LMAX  =           6
   number of lm-projection operators is LMMAX =          18
 
 POTCAR:    PAW_PBE O 08Apr2002                   
  local pseudopotential read in
  partial core-charges read in
  partial kinetic energy density read in
  kinetic energy density of atom read in
  atomic valenz-charges read in
  non local Contribution for L=           0  read in
    real space projection operators read in
  non local Contribution for L=           0  read in
    real space projection operators read in
  non local Contribution for L=           1  read in
    real space projection operators read in
  non local Contribution for L=           1  read in
    real space projection operators read in
    PAW grid and wavefunctions read in
 
   number of l-projection  operators is LMAX  =           4
   number of lm-projection operators is LMMAX =           8
 
 Optimization of the real space projectors (new method)

 maximal supplied QI-value         = 16.25
 optimisation between [QCUT,QGAM] = [ 11.38, 22.75] = [ 36.24,144.96] Ry 
 Optimized for a Real-space Cutoff    1.47 Angstroem

   l    n(q)    QCUT    max X(q) W(low)/X(q) W(high)/X(q)  e(spline) 
   2      9    11.376    60.317    0.17E-03    0.16E-04    0.16E-06
   2      9    11.376    55.921    0.17E-03    0.16E-04    0.17E-06
   0     10    11.376    51.690    0.45E-04    0.60E-04    0.21E-06
   0     10    11.376    30.015    0.37E-04    0.55E-04    0.19E-06
   1     10    11.376    18.849    0.83E-04    0.11E-03    0.92E-07
   1     10    11.376    14.624    0.69E-04    0.92E-04    0.82E-07
 Optimization of the real space projectors (new method)

 maximal supplied QI-value         = 24.76
 optimisation between [QCUT,QGAM] = [ 11.39, 22.77] = [ 36.31,145.25] Ry 
 Optimized for a Real-space Cutoff    1.10 Angstroem

   l    n(q)    QCUT    max X(q) W(low)/X(q) W(high)/X(q)  e(spline) 
   0      7    11.387    20.381    0.22E-03    0.48E-03    0.18E-06
   0      7    11.387    15.268    0.22E-03    0.52E-03    0.19E-06
   1      7    11.387     5.964    0.22E-03    0.73E-03    0.24E-06
   1      7    11.387     5.382    0.19E-03    0.60E-03    0.21E-06

 ----------------------------------------------------------------------------- 
|                                                                             |
|  ADVICE TO THIS USER RUNNING 'VASP/VAMP'   (HEAR YOUR MASTER'S VOICE ...):  |
|                                                                             |
|      You enforced a specific xc-type in the INCAR file,                     |
|      a different type was found on the POTCAR file                          |
|          I HOPE YOU KNOW, WHAT YOU ARE  DOING                               |
|                                                                             |
 ----------------------------------------------------------------------------- 

  PAW_PBE Ni 02Aug2007                  :
 energy of atom  1       EATOM=-1077.6739
 kinetic energy error for atom=    0.0030 (will be added to EATOM!!)
  PAW_PBE O 08Apr2002                   :
 energy of atom  2       EATOM= -432.3788
 kinetic energy error for atom=    0.0224 (will be added to EATOM!!)
 
 
 POSCAR: Ni2O3_Cmcm_scale_1_050_disp_0_05_round_1
  positions in direct lattice
  No initial velocities read in
 exchange correlation table for  LEXCH =       14
   RHO(1)=    0.500       N(1)  =     2000
   RHO(2)=  100.500       N(2)  =     4000
 


--------------------------------------------------------------------------------------------------------


 ion  position               nearest neighbor table
   1  0.998  0.351  0.046-  52 1.82  62 2.02  56 2.15 110 2.26 104 2.37  15 2.88   7 2.92  17 2.92
                            47 3.06
   2  0.159  0.134  0.910-  51 1.89  55 1.97  79 2.12  74 2.41  50 2.45  18 2.81   8 2.92
   3  0.008  0.354  0.431-  53 1.91  57 2.03  61 2.06  58 2.06 109 2.46 105 2.52  19 2.81  12 2.86
                            14 2.89   6 2.91   5 3.04   4 3.06
   4  0.155  0.127  0.527-  54 1.71  49 2.06  82 2.07  73 2.09  57 2.11  58 2.13   5 2.92  20 2.93
                            19 3.00   3 3.06
   5  0.169  0.389  0.603-  59 1.86  90 1.87  66 1.91  82 1.98  58 2.10  61 2.20  28 2.82  21 2.89
                             4 2.92  19 2.92  12 3.03   3 3.04
   6  0.001  0.097  0.348-  60 1.83  57 1.97  49 2.19  65 2.36 105 2.38   3 2.91  22 2.93
   7  1.000  0.094  0.131-  60 1.82  56 2.08  50 2.22  64 2.35 104 2.49   1 2.92  23 2.93
   8  0.154  0.389  0.822-  59 1.85  63 1.90  87 1.95  55 2.05  79 2.23  24 2.91   2 2.92  10 3.02
                            26 3.04
   9  0.159  0.820  0.043-  64 1.88  68 1.96  92 1.99  74 2.40  50 2.47  15 2.87  25 2.93
  10  0.995  0.612  0.910-  63 1.90  67 2.07 115 2.33  62 2.41  16 2.79  26 2.97   8 3.02
  11  0.153  0.828  0.443-  70 1.85  65 2.07  69 2.13  93 2.18  49 2.31  73 2.41  12 2.91  13 2.94
                            29 2.98  27 3.01  28 3.02  14 3.02
  12  0.995  0.605  0.515-  69 1.79  66 1.97  61 2.12  70 2.14 109 2.34 118 2.35   3 2.86  11 2.91
                            28 2.93  14 3.00  13 3.03   5 3.03
  13  0.000  0.865  0.610-  71 1.72  70 2.10  54 2.21 118 2.45 102 2.46  49 2.48  11 2.94  29 2.96
                            12 3.03
  14  0.155  0.570  0.345-  72 1.79  77 1.98  53 2.04  69 2.06  93 2.11  61 2.17  30 2.85   3 2.89
                            12 3.00  11 3.02  19 3.07
  15  0.158  0.566  0.123-  52 1.90  72 1.92  76 1.96  68 2.05  92 2.06  62 2.12   9 2.87   1 2.88
                            17 2.91  31 3.05
  16  0.995  0.855  0.827-  71 1.91  67 1.96  51 2.29 115 2.30  10 2.79  32 3.02
  17  0.317  0.345  0.049-  76 1.85  56 2.04  80 2.04  86 2.06  62 2.16  23 2.80  15 2.91   1 2.92
                            33 2.92  31 3.02
  18  0.466  0.132  0.913-  79 1.90  75 2.05 103 2.13  74 2.34  98 2.43   2 2.81  34 2.91  24 2.93

  19  0.315  0.344  0.436-  82 1.92  77 1.97  61 2.02  81 2.09  57 2.10  85 2.15   3 2.81  35 2.86
                             5 2.92  28 2.96  30 2.97   4 3.00  22 3.01  20 3.02  14 3.07
  20  0.475  0.123  0.526-  78 1.79  73 2.02  97 2.11  82 2.13  81 2.13 106 2.17  21 2.93   4 2.93
                            36 2.96  19 3.02  35 3.03
  21  0.484  0.382  0.609-  83 1.83 114 1.85 106 2.01  90 2.09  82 2.14  85 2.32  37 2.79   5 2.89
                            20 2.93  44 2.98  28 3.02  35 3.03
  22  0.320  0.087  0.339-  84 1.72  81 2.13  89 2.15  57 2.19  65 2.21  73 2.27   6 2.93  19 3.01
                            38 3.02
  23  0.319  0.097  0.127-  84 1.82  80 1.99  56 2.00  74 2.25  88 2.31  64 2.38  17 2.80  39 2.84
                             7 2.93
  24  0.472  0.385  0.822-  83 1.83  87 1.90 111 1.92  79 1.98 103 2.09   8 2.91  18 2.93  40 2.98
                            42 2.99  26 3.00
  25  0.479  0.831  0.042-  88 1.89  92 2.13 116 2.22  98 2.29  74 2.36  41 2.87   9 2.93  31 3.04

  26  0.320  0.612  0.908-  87 1.88  91 1.99  67 2.11  86 2.49  62 2.51  42 2.85  32 2.86  10 2.97
                            24 3.00   8 3.04
  27  0.482  0.823  0.434-  89 1.96  94 1.97 117 2.00  93 2.08  97 2.40  73 2.46  43 2.82  44 2.96
                            30 2.98  11 3.01  29 3.03  28 3.05  45 3.06
  28  0.315  0.602  0.525-  90 1.77  61 1.99  70 2.08  93 2.09  94 2.14  85 2.23   5 2.82  29 2.93
                            12 2.93  44 2.94  19 2.96  21 3.02  11 3.02  27 3.05
  29  0.324  0.862  0.607-  95 1.88  94 1.96  70 2.10  78 2.24  54 2.36  73 2.45  45 2.84  28 2.93
                            13 2.96  11 2.98  27 3.03
  30  0.467  0.563  0.346-  77 1.76  96 1.89 101 1.93  93 2.04  85 2.13 117 2.23  14 2.85  19 2.97
                            27 2.98  35 2.98  46 2.99
  31  0.491  0.565  0.131- 100 1.77  96 1.83  76 1.99 116 2.00  92 2.23  86 2.24  47 2.77  33 2.96
                            17 3.02  25 3.04  15 3.05
  32  0.326  0.863  0.824-  95 1.79  91 1.95  67 2.13  75 2.19  51 2.33  48 2.79  26 2.86  16 3.02

  33  0.637  0.341  0.044- 104 1.90 100 1.97  80 2.05  86 2.07 110 2.08  47 2.90  17 2.92  39 2.94
                            31 2.96
  34  0.784  0.136  0.906-  99 1.85 103 1.96  98 2.45  55 2.46  40 2.87  18 2.91
  35  0.629  0.346  0.433- 101 1.91  85 1.91 106 1.95  81 2.01 105 2.09 109 2.12  19 2.86  38 2.96
                            46 2.97  30 2.98  44 2.99  37 2.99  21 3.03  20 3.03
  36  0.799  0.120  0.527- 102 1.81  97 2.07 105 2.10 106 2.17  49 2.33  58 2.43  37 2.95  20 2.96

  37  0.789  0.386  0.601- 114 1.87 107 1.87 106 1.95 109 2.08  66 2.29  58 2.33  21 2.79  44 2.89
                            36 2.95  35 2.99
  38  0.651  0.089  0.344- 108 1.79 105 1.99 113 2.10  97 2.15  81 2.19  89 2.34  35 2.96  22 3.02

  39  0.630  0.083  0.132- 108 1.85  80 2.08 112 2.15  88 2.15  98 2.17 104 2.21  23 2.84  33 2.94

  40  0.798  0.382  0.816- 107 1.76 111 1.91 103 2.11  63 2.31  55 2.47  34 2.87  24 2.98  42 3.08

  41  0.793  0.820  0.047- 112 1.92 116 2.04  68 2.36  98 2.46  25 2.87  47 2.93
  42  0.632  0.606  0.908- 111 1.96 115 2.09  91 2.12  86 2.45  26 2.85  48 2.95  24 2.99  40 3.08

  43  0.790  0.827  0.434- 113 1.88 118 1.99 117 2.01  97 2.33  69 2.46  27 2.82  44 2.99  46 3.04
                            45 3.07
  44  0.636  0.606  0.523- 114 1.82 117 2.03 118 2.03 109 2.04  85 2.05  94 2.14  37 2.89  28 2.94
                            45 2.95  27 2.96  21 2.98  35 2.99  43 2.99
  45  0.634  0.864  0.610- 119 1.75  94 2.07 102 2.15 118 2.16  78 2.24  29 2.84  44 2.95  27 3.06
                            43 3.07
  46  0.793  0.561  0.346- 120 1.91 101 1.95 117 2.15  53 2.17 109 2.21  69 2.43  35 2.97  30 2.99
                            43 3.04
  47  0.793  0.557  0.124- 100 1.84 120 1.89 116 2.00 110 2.12  52 2.30  68 2.51  31 2.77  33 2.90
                            41 2.93   1 3.06
  48  0.631  0.864  0.820- 119 1.93  91 2.09 115 2.13  75 2.23  99 2.29  32 2.79  42 2.95
  49  0.000  0.001  0.476-   4 2.06   6 2.19  11 2.31  36 2.33  13 2.48
  50  0.994  0.001  0.999-   7 2.22   2 2.45   9 2.47
  51  0.151  0.029  0.808-   2 1.89  16 2.29  32 2.33
  52  0.007  0.443  0.148-   1 1.82  15 1.90  47 2.30
  53  0.987  0.443  0.321-   3 1.91  14 2.04  46 2.17
  54  0.152  0.032  0.620-   4 1.71  13 2.21  29 2.36
  55  0.008  0.265  0.882-   2 1.97   8 2.05  34 2.46  40 2.47
  56  0.163  0.205  0.071-  23 2.00  17 2.04   7 2.08   1 2.15
  57  0.153  0.209  0.401-   6 1.97   3 2.03  19 2.10   4 2.11  22 2.19
  58  0.996  0.274  0.554-   3 2.06   5 2.10   4 2.13  37 2.33  36 2.43
  59  0.168  0.311  0.713-   8 1.85   5 1.86
  60  0.006  0.168  0.239-   7 1.82   6 1.83
  61  0.168  0.481  0.474-  28 1.99  19 2.02   3 2.06  12 2.12  14 2.17   5 2.20
  62  0.150  0.475  0.999-   1 2.02  15 2.12  17 2.16  10 2.41  26 2.51
  63  0.003  0.514  0.805-  10 1.90   8 1.90  40 2.31
  64  0.159  0.915  0.148-   9 1.88   7 2.35  23 2.38
  65  0.166  0.923  0.323-  11 2.07  22 2.21   6 2.36
  66  0.002  0.499  0.623-   5 1.91  12 1.97  37 2.29
  67  0.153  0.747  0.876-  16 1.96  10 2.07  26 2.11  32 2.13
  68  0.005  0.694  0.074-   9 1.96  15 2.05  41 2.36  47 2.51
  69  0.998  0.680  0.409-  12 1.79  14 2.06  11 2.13  46 2.43  43 2.46
  70  0.159  0.746  0.550-  11 1.85  28 2.08  13 2.10  29 2.10  12 2.14
  71  0.998  0.788  0.710-  13 1.72  16 1.91
  72  0.169  0.640  0.238-  14 1.79  15 1.92
  73  0.319  0.004  0.477-  20 2.02   4 2.09  22 2.27  11 2.41  29 2.45  27 2.46
  74  0.315  0.996  0.996-  23 2.25  18 2.34  25 2.36   9 2.40   2 2.41
  75  0.474  0.028  0.798-  18 2.05  32 2.19  48 2.23
  76  0.321  0.447  0.149-  17 1.85  15 1.96  31 1.99
  77  0.323  0.451  0.329-  30 1.76  19 1.97  14 1.98
  78  0.477  0.031  0.626-  20 1.79  29 2.24  45 2.24
  79  0.332  0.265  0.880-  18 1.90  24 1.98   2 2.12   8 2.23
  80  0.476  0.210  0.077-  23 1.99  17 2.04  33 2.05  39 2.08
  81  0.478  0.211  0.400-  35 2.01  19 2.09  22 2.13  20 2.13  38 2.19
  82  0.313  0.268  0.551-  19 1.92   5 1.98   4 2.07  20 2.13  21 2.14
  83  0.482  0.303  0.717-  24 1.83  21 1.83
  84  0.321  0.161  0.238-  22 1.72  23 1.82
  85  0.490  0.474  0.471-  35 1.91  44 2.05  30 2.13  19 2.15  28 2.23  21 2.32
  86  0.477  0.468  1.000-  17 2.06  33 2.07  31 2.24  42 2.45  26 2.49
  87  0.318  0.508  0.806-  26 1.88  24 1.90   8 1.95
  88  0.478  0.924  0.149-  25 1.89  39 2.15  23 2.31
  89  0.471  0.926  0.326-  27 1.96  22 2.15  38 2.34
  90  0.312  0.515  0.625-  28 1.77   5 1.87  21 2.09
  91  0.469  0.748  0.878-  32 1.95  26 1.99  48 2.09  42 2.12
  92  0.315  0.694  0.078-   9 1.99  15 2.06  25 2.13  31 2.23
  93  0.320  0.689  0.401-  30 2.04  27 2.08  28 2.09  14 2.11  11 2.18
  94  0.474  0.750  0.553-  29 1.96  27 1.97  45 2.07  28 2.14  44 2.14
  95  0.325  0.786  0.719-  32 1.79  29 1.88
  96  0.479  0.649  0.236-  31 1.83  30 1.89
  97  0.639  0.002  0.472-  36 2.07  20 2.11  38 2.15  43 2.33  27 2.40
  98  0.630  0.999  0.001-  39 2.17  25 2.29  18 2.43  34 2.45  41 2.46
  99  0.795  0.033  0.807-  34 1.85  48 2.29
 100  0.635  0.452  0.150-  31 1.77  47 1.84  33 1.97
 101  0.627  0.444  0.327-  35 1.91  30 1.93  46 1.95
 102  0.794  0.019  0.623-  36 1.81  45 2.15  13 2.46
 103  0.635  0.266  0.876-  34 1.96  24 2.09  40 2.11  18 2.13
 104  0.788  0.219  0.071-  33 1.90  39 2.21   1 2.37   7 2.49
 105  0.790  0.209  0.403-  38 1.99  35 2.09  36 2.10   6 2.38   3 2.52
 106  0.639  0.273  0.551-  37 1.95  35 1.95  21 2.01  36 2.17  20 2.17
 107  0.804  0.310  0.712-  40 1.76  37 1.87
 108  0.644  0.167  0.239-  38 1.79  39 1.85
 109  0.791  0.477  0.480-  44 2.04  37 2.08  35 2.12  46 2.21  12 2.34   3 2.46
 110  0.801  0.466  0.000-  33 2.08  47 2.12   1 2.26
 111  0.636  0.498  0.802-  40 1.91  24 1.92  42 1.96
 112  0.788  0.930  0.149-  41 1.92  39 2.15
 113  0.788  0.925  0.330-  43 1.88  38 2.10
 114  0.634  0.502  0.621-  44 1.82  21 1.85  37 1.87
 115  0.795  0.745  0.880-  42 2.09  48 2.13  16 2.30  10 2.33
 116  0.643  0.677  0.073-  47 2.00  31 2.00  41 2.04  25 2.22
 117  0.637  0.693  0.404-  27 2.00  43 2.01  44 2.03  46 2.15  30 2.23
 118  0.795  0.739  0.550-  43 1.99  44 2.03  45 2.16  12 2.35  13 2.45
 119  0.632  0.777  0.708-  45 1.75  48 1.93
 120  0.803  0.643  0.234-  47 1.89  46 1.91
 
  LATTYP: Found a simple orthorhombic cell.
 ALAT       =     9.1436835000
 B/A-ratio  =     1.1146370060
 C/A-ratio  =     1.6738812646
  
  Lattice vectors:
  
 A1 = (   9.1436835000,   0.0000000000,   0.0000000000)
 A2 = (   0.0000000000,  10.1918880000,   0.0000000000)
 A3 = (   0.0000000000,   0.0000000000,  15.3054405000)


Analysis of symmetry for initial positions (statically):
=====================================================================
 Subroutine PRICEL returns:
 Original cell was already a primitive cell.
 

 Routine SETGRP: Setting up the symmetry group for a 
 simple orthorhombic supercell.


 Subroutine GETGRP returns: Found  1 space group operations
 (whereof  1 operations were pure point group operations)
 out of a pool of  8 trial point group operations.


The static configuration has the point symmetry C_1 .


Analysis of symmetry for dynamics (positions and initial velocities):
=====================================================================
 Subroutine PRICEL returns:
 Original cell was already a primitive cell.
 

 Routine SETGRP: Setting up the symmetry group for a 
 simple orthorhombic supercell.


 Subroutine GETGRP returns: Found  1 space group operations
 (whereof  1 operations were pure point group operations)
 out of a pool of  8 trial point group operations.


The dynamic configuration has the point symmetry C_1 .


Analysis of structural, dynamic, and magnetic symmetry:
=====================================================================
 Subroutine PRICEL returns:
 Original cell was already a primitive cell.
 

 Routine SETGRP: Setting up the symmetry group for a 
 simple orthorhombic supercell.


 Subroutine GETGRP returns: Found  1 space group operations
 (whereof  1 operations were pure point group operations)
 out of a pool of  8 trial point group operations.


The magnetic configuration has the point symmetry C_1 .


 Subroutine INISYM returns: Found  1 space group operations
 (whereof  1 operations are pure point group operations),
 and found     1 'primitive' translations

 
 
 KPOINTS: Automatic mesh                          

Automatic generation of k-mesh.
Space group operators:
 irot       det(A)        alpha          n_x          n_y          n_z        tau_x        tau_y        tau_z
    1     1.000000     0.000000     1.000000     0.000000     0.000000     0.000000     0.000000     0.000000
 
 Subroutine IBZKPT returns following result:
 ===========================================
 
 Found     10 irreducible k-points:
 
 Following reciprocal coordinates:
            Coordinates               Weight
  0.000000  0.000000  0.000000      1.000000
  0.333333  0.000000  0.000000      2.000000
  0.000000  0.333333  0.000000      2.000000
  0.333333  0.333333  0.000000      2.000000
 -0.333333  0.333333  0.000000      2.000000
  0.000000  0.000000  0.500000      1.000000
  0.333333  0.000000  0.500000      2.000000
  0.000000  0.333333  0.500000      2.000000
  0.333333  0.333333  0.500000      2.000000
 -0.333333  0.333333  0.500000      2.000000
 
 Following cartesian coordinates:
            Coordinates               Weight
  0.000000  0.000000  0.000000      1.000000
  0.036455  0.000000  0.000000      2.000000
  0.000000  0.032706  0.000000      2.000000
  0.036455  0.032706  0.000000      2.000000
 -0.036455  0.032706  0.000000      2.000000
  0.000000  0.000000  0.032668      1.000000
  0.036455  0.000000  0.032668      2.000000
  0.000000  0.032706  0.032668      2.000000
  0.036455  0.032706  0.032668      2.000000
 -0.036455  0.032706  0.032668      2.000000
 


--------------------------------------------------------------------------------------------------------




 Dimension of arrays:
   k-points           NKPTS =     10   k-points in BZ     NKDIM =     10   number of bands    NBANDS=    608
   number of dos      NEDOS =    301   number of ions     NIONS =    120
   non local maximal  LDIM  =      6   non local SUM 2l+1 LMDIM =     18
   total plane-waves  NPLWV = 627200
   max r-space proj   IRMAX =   5953   max aug-charges    IRDMAX=  14452
   dimension x,y,z NGX =    70 NGY =   80 NGZ =  112
   dimension x,y,z NGXF=   140 NGYF=  160 NGZF=  224
   support grid    NGXF=   140 NGYF=  160 NGZF=  224
   ions per type =              48  72
   NGX,Y,Z   is equivalent  to a cutoff of  12.73, 13.05, 12.17 a.u.
   NGXF,Y,Z  is equivalent  to a cutoff of  25.45, 26.10, 24.33 a.u.

 SYSTEM =  unknown system                          
 POSCAR =  Ni2O3_Cmcm_scale_1_050_disp_0_05_round_1

 Startparameter for this run:
   NWRITE =      1    write-flag & timer
   PREC   = accura    normal or accurate (medium, high low for compatibility)
   ISTART =      0    job   : 0-new  1-cont  2-samecut
   ICHARG =      2    charge: 1-file 2-atom 10-const
   ISPIN  =      2    spin polarized calculation?
   LNONCOLLINEAR =      F non collinear calculations
   LSORBIT =      F    spin-orbit coupling
   INIWAV =      1    electr: 0-lowe 1-rand  2-diag
   LASPH  =      F    aspherical Exc in radial PAW
   METAGGA=      F    non-selfconsistent MetaGGA calc.

 Electronic Relaxation 1
   ENCUT  =  500.0 eV  36.75 Ry    6.06 a.u.  16.67 18.58 27.91*2*pi/ulx,y,z
   ENINI  =  500.0     initial cutoff
   ENAUG  =  605.4 eV  augmentation charge cutoff
   NELM   =     80;   NELMIN=  2; NELMDL= -5     # of ELM steps 
   EDIFF  = 0.1E-04   stopping-criterion for ELM
   LREAL  =      T    real-space projection
   NLSPLINE    = F    spline interpolate recip. space projectors
   LCOMPAT=      F    compatible to vasp.4.4
   GGA_COMPAT  = T    GGA compatible to vasp.4.4-vasp.4.6
   LMAXPAW     = -100 max onsite density
   LMAXMIX     =    2 max onsite mixed and CHGCAR
   VOSKOWN=      1    Vosko Wilk Nusair interpolation
   ROPT   =   -0.00025  -0.00025
 Ionic relaxation
   EDIFFG = 0.1E-03   stopping-criterion for IOM
   NSW    =      0    number of steps for IOM
   NBLOCK =      1;   KBLOCK =      1    inner block; outer block 
   IBRION =     -1    ionic relax: 0-MD 1-quasi-New 2-CG
   NFREE  =      0    steps in history (QN), initial steepest desc. (CG)
   ISIF   =      2    stress and relaxation
   IWAVPR =     10    prediction:  0-non 1-charg 2-wave 3-comb
   ISYM   =      2    0-nonsym 1-usesym 2-fastsym
   LCORR  =      T    Harris-Foulkes like correction to forces

   POTIM  = 0.5000    time-step for ionic-motion
   TEIN   =    0.0    initial temperature
   TEBEG  =    0.0;   TEEND  =   0.0 temperature during run
   SMASS  =  -3.00    Nose mass-parameter (am)
   estimated Nose-frequenzy (Omega)   =  0.10E-29 period in steps =****** mass=  -0.191E-26a.u.
   SCALEE = 1.0000    scale energy and forces
   NPACO  =    256;   APACO  = 16.0  distance and # of slots for P.C.
   PSTRESS=    0.0 pullay stress

  Mass of Ions in am
   POMASS =  58.69 16.00
  Ionic Valenz
   ZVAL   =  10.00  6.00
  Atomic Wigner-Seitz radii
   RWIGS  =   1.15  0.73
  virtual crystal weights 
   VCA    =   1.00  1.00
   NELECT =     912.0000    total number of electrons
   NUPDOWN=      -1.0000    fix difference up-down

 DOS related values:
   EMIN   =  10.00;   EMAX   =-10.00  energy-range for DOS
   EFERMI =   0.00
   ISMEAR =     0;   SIGMA  =   0.05  broadening in eV -4-tet -1-fermi 0-gaus

 Electronic relaxation 2 (details)
   IALGO  =     38    algorithm
   LDIAG  =      T    sub-space diagonalisation (order eigenvalues)
   LSUBROT=      F    optimize rotation matrix (better conditioning)
   TURBO    =      0    0=normal 1=particle mesh
   IRESTART =      0    0=no restart 2=restart with 2 vectors
   NREBOOT  =      0    no. of reboots
   NMIN     =      0    reboot dimension
   EREF     =   0.00    reference energy to select bands
   IMIX   =      4    mixing-type and parameters
     AMIX     =   0.40;   BMIX     =  1.00
     AMIX_MAG =   1.60;   BMIX_MAG =  1.00
     AMIN     =   0.10
     WC   =   100.;   INIMIX=   1;  MIXPRE=   1;  MAXMIX= -45

 Intra band minimization:
   WEIMIN = 0.0000     energy-eigenvalue tresh-hold
   EBREAK =  0.41E-08  absolut break condition
   DEPER  =   0.30     relativ break condition  

   TIME   =   0.40     timestep for ELM

  volume/ion in A,a.u.               =      11.89        80.21
  Fermi-wavevector in a.u.,A,eV,Ry     =   1.410368  2.665210 27.063878  1.989139
  Thomas-Fermi vector in A             =   2.532329
 
 Write flags
   LWAVE        =      F    write WAVECAR
   LDOWNSAMPLE  =      F    k-point downsampling of WAVECAR
   LCHARG       =      T    write CHGCAR
   LVTOT        =      F    write LOCPOT, total local potential
   LVHAR        =      F    write LOCPOT, Hartree potential only
   LELF         =      F    write electronic localiz. function (ELF)
   LORBIT       =      0    0 simple, 1 ext, 2 COOP (PROOUT), +10 PAW based schemes


 Dipole corrections
   LMONO  =      F    monopole corrections only (constant potential shift)
   LDIPOL =      F    correct potential (dipole corrections)
   IDIPOL =      0    1-x, 2-y, 3-z, 4-all directions 
   EPSILON=  1.0000000 bulk dielectric constant

 Exchange correlation treatment:
   GGA     =    PS    GGA type
   LEXCH   =    14    internal setting for exchange type
   VOSKOWN=      1    Vosko Wilk Nusair interpolation
   LHFCALC =     F    Hartree Fock is set to
   LHFONE  =     F    Hartree Fock one center treatment
   AEXX    =    0.0000 exact exchange contribution

 Linear response parameters
   LEPSILON=     F    determine dielectric tensor
   LRPA    =     F    only Hartree local field effects (RPA)
   LNABLA  =     F    use nabla operator in PAW spheres
   LVEL    =     F    velocity operator in full k-point grid
   LINTERFAST=   F  fast interpolation
   KINTER  =     0    interpolate to denser k-point grid
   CSHIFT  =0.1000    complex shift for real part using Kramers Kronig
   OMEGAMAX=  -1.0    maximum frequency
   DEG_THRESHOLD= 0.2000000E-02 threshold for treating states as degnerate
   RTIME   =   -0.100 relaxation time in fs
  (WPLASMAI=    0.000 imaginary part of plasma frequency in eV, 0.658/RTIME)
   DFIELD  = 0.0000000 0.0000000 0.0000000 field for delta impulse in time
 
 Orbital magnetization related:
   ORBITALMAG=     F  switch on orbital magnetization
   LCHIMAG   =     F  perturbation theory with respect to B field
   DQ        =  0.001000  dq finite difference perturbation B field
   LLRAUG    =     F  two centre corrections for induced B field



--------------------------------------------------------------------------------------------------------


 Static calculation
 charge density and potential will be updated during run
 spin polarized calculation
 Variant of blocked Davidson
 Davidson routine will perform the subspace rotation
 perform sub-space diagonalisation
    after iterative eigenvector-optimisation
 modified Broyden-mixing scheme, WC =      100.0
 initial mixing is a Kerker type mixing with AMIX =  0.4000 and BMIX =      1.0000
 Hartree-type preconditioning will be used
 using additional bands          152
 real space projection scheme for non local part
 use partial core corrections
 calculate Harris-corrections to forces 
   (improved forces if not selfconsistent)
 use gradient corrections 
 use of overlap-Matrix (Vanderbilt PP)
 Gauss-broadening in eV      SIGMA  =   0.05


--------------------------------------------------------------------------------------------------------


  energy-cutoff  :      500.00
  volume of cell :     1426.34
      direct lattice vectors                 reciprocal lattice vectors
     9.143683500  0.000000000  0.000000000     0.109365115  0.000000000  0.000000000
     0.000000000 10.191888000  0.000000000     0.000000000  0.098117248  0.000000000
     0.000000000  0.000000000 15.305440500     0.000000000  0.000000000  0.065336244

  length of vectors
     9.143683500 10.191888000 15.305440500     0.109365115  0.098117248  0.065336244


 
 k-points in units of 2pi/SCALE and weight: Automatic mesh                          
   0.00000000  0.00000000  0.00000000       0.056
   0.03645504  0.00000000  0.00000000       0.111
   0.00000000  0.03270575  0.00000000       0.111
   0.03645504  0.03270575  0.00000000       0.111
  -0.03645504  0.03270575  0.00000000       0.111
   0.00000000  0.00000000  0.03266812       0.056
   0.03645504  0.00000000  0.03266812       0.111
   0.00000000  0.03270575  0.03266812       0.111
   0.03645504  0.03270575  0.03266812       0.111
  -0.03645504  0.03270575  0.03266812       0.111
 
 k-points in reciprocal lattice and weights: Automatic mesh                          
   0.00000000  0.00000000  0.00000000       0.056
   0.33333333  0.00000000  0.00000000       0.111
   0.00000000  0.33333333  0.00000000       0.111
   0.33333333  0.33333333  0.00000000       0.111
  -0.33333333  0.33333333  0.00000000       0.111
   0.00000000  0.00000000  0.50000000       0.056
   0.33333333  0.00000000  0.50000000       0.111
   0.00000000  0.33333333  0.50000000       0.111
   0.33333333  0.33333333  0.50000000       0.111
  -0.33333333  0.33333333  0.50000000       0.111
 
 position of ions in fractional coordinates (direct lattice) 
   0.99809216  0.35088306  0.04642158
   0.15911767  0.13394780  0.90975829
   0.00804813  0.35421648  0.43081345
   0.15496747  0.12672414  0.52705328
   0.16860581  0.38892433  0.60323648
   0.00062437  0.09693018  0.34841375
   0.99951369  0.09400321  0.13057566
   0.15427522  0.38859484  0.82206887
   0.15895000  0.81965750  0.04285674
   0.99514263  0.61165955  0.91005699
   0.15289697  0.82822320  0.44265528
   0.99544903  0.60465411  0.51464268
   0.00000450  0.86460097  0.61008477
   0.15501233  0.57029722  0.34504061
   0.15763368  0.56560944  0.12308304
   0.99534247  0.85488796  0.82661614
   0.31747877  0.34491127  0.04881909
   0.46599089  0.13204246  0.91262597
   0.31548682  0.34383630  0.43616124
   0.47539251  0.12280175  0.52642982
   0.48411492  0.38174639  0.60922579
   0.32035065  0.08698200  0.33949576
   0.31940983  0.09692908  0.12700768
   0.47240833  0.38521480  0.82232360
   0.47941853  0.83087974  0.04189798
   0.32032596  0.61228353  0.90761639
   0.48191439  0.82296478  0.43426964
   0.31508424  0.60212535  0.52500243
   0.32407001  0.86159731  0.60669428
   0.46668112  0.56347704  0.34565273
   0.49115158  0.56474151  0.13091240
   0.32561579  0.86334061  0.82375619
   0.63702690  0.34083057  0.04444316
   0.78415051  0.13554058  0.90621344
   0.62858012  0.34569284  0.43293000
   0.79893274  0.12013754  0.52659719
   0.78869745  0.38630082  0.60127595
   0.65076294  0.08853483  0.34367861
   0.62982517  0.08346165  0.13150462
   0.79778108  0.38198441  0.81622860
   0.79290978  0.82009047  0.04718280
   0.63212902  0.60601989  0.90792496
   0.79018952  0.82749585  0.43431116
   0.63603828  0.60565690  0.52336368
   0.63427748  0.86449690  0.60993967
   0.79331494  0.56079841  0.34611043
   0.79328033  0.55692078  0.12431395
   0.63083854  0.86363389  0.82047210
   0.00029045  0.00142129  0.47639447
   0.99399515  0.00064038  0.99939454
   0.15140185  0.02864850  0.80806818
   0.00718030  0.44285107  0.14788271
   0.98704846  0.44305457  0.32143252
   0.15155433  0.03246428  0.61952659
   0.00779509  0.26522786  0.88194814
   0.16269993  0.20471202  0.07147386
   0.15264920  0.20932787  0.40077588
   0.99628415  0.27408611  0.55435005
   0.16807367  0.31097265  0.71278319
   0.00633394  0.16763497  0.23876083
   0.16842965  0.48104046  0.47353970
   0.15040376  0.47471384  0.99872395
   0.00255935  0.51385383  0.80460627
   0.15940235  0.91533525  0.14763617
   0.16569769  0.92274001  0.32305134
   0.00220528  0.49920177  0.62271453
   0.15308596  0.74729823  0.87608841
   0.00509729  0.69380282  0.07406942
   0.99846509  0.67976734  0.40905416
   0.15869438  0.74603034  0.55016920
   0.99830368  0.78788958  0.71000073
   0.16894924  0.63971695  0.23788727
   0.31865093  0.00411813  0.47746889
   0.31532864  0.99560441  0.99649824
   0.47429882  0.02774230  0.79815650
   0.32050860  0.44682802  0.14872896
   0.32341331  0.45075071  0.32908862
   0.47669015  0.03066910  0.62633702
   0.33152592  0.26502313  0.87976927
   0.47617541  0.21047521  0.07746776
   0.47792024  0.21067442  0.39992562
   0.31319326  0.26814102  0.55089175
   0.48225362  0.30286628  0.71653243
   0.32148913  0.16089183  0.23827492
   0.49023528  0.47443138  0.47061393
   0.47665259  0.46758167  0.99979318
   0.31808566  0.50836367  0.80642584
   0.47849545  0.92355903  0.14874890
   0.47133472  0.92648304  0.32619440
   0.31226006  0.51505082  0.62491781
   0.46944789  0.74761163  0.87823088
   0.31495174  0.69350695  0.07756975
   0.31992720  0.68861116  0.40100813
   0.47368193  0.74990781  0.55327488
   0.32539594  0.78634617  0.71865053
   0.47897771  0.64913677  0.23647548
   0.63900586  0.00241219  0.47199370
   0.63025386  0.99915357  0.00113037
   0.79477606  0.03266152  0.80673792
   0.63494416  0.45196805  0.14952976
   0.62715468  0.44407011  0.32664149
   0.79359770  0.01860590  0.62337282
   0.63464606  0.26599461  0.87628387
   0.78844500  0.21929672  0.07126764
   0.79044536  0.20883731  0.40276258
   0.63886550  0.27337005  0.55078714
   0.80447713  0.30950953  0.71198462
   0.64364822  0.16660072  0.23897119
   0.79066878  0.47702093  0.47959302
   0.80145956  0.46567033  0.00024864
   0.63619383  0.49827386  0.80161305
   0.78820333  0.93028154  0.14875380
   0.78763449  0.92495897  0.33002976
   0.63403735  0.50239817  0.62058162
   0.79455979  0.74461561  0.88032192
   0.64264918  0.67674652  0.07260362
   0.63740545  0.69293549  0.40415308
   0.79548733  0.73871055  0.55034242
   0.63170306  0.77712747  0.70826717
   0.80337658  0.64255237  0.23369202
 
 position of ions in cartesian coordinates  (Angst):
   9.12623881  3.57616085  0.71050273
   1.45492161  1.36518098 13.92425138
   0.07358955  3.61013469  6.59378963
   1.41697350  1.29155824  8.06678262
   1.54167816  3.96387321  9.23280005
   0.00570904  0.98790154  5.33262592
   9.13923684  0.95807019  1.99851799
   1.41064378  3.96051509 12.58212618
   1.45338849  8.35385744  0.65594128
   9.09926925  6.23396563 13.92882311
   1.39804150  8.44115809  6.77503405
   9.10207087  6.16256697  7.87683292
   0.00004115  8.81191625  9.33761615
   1.41738368  5.81240539  5.28099853
   1.44135248  5.76462806  1.88384015
   9.10109652  8.71292234 12.65172415
   2.90292539  3.51529703  0.74719768
   4.26087321  1.34576196 13.96814248
   2.88471163  3.50434106  6.67563991
   4.34683865  1.25158168  8.05724029
   4.42659361  3.89071645  9.32446908
   2.92918495  0.88651080  5.19613215
   2.92058239  0.98789033  1.94390849
   4.31955225  3.92606610 12.58602493
   4.38365130  8.46823325  0.64126704
   2.92895920  6.24032516 13.89146865
   4.40647266  8.38756487  6.64668814
   2.88103057  6.13679413  8.03539345
   2.96319360  8.78130328  9.28572320
   4.26718446  5.74289488  5.29036729
   4.49093460  5.75578222  2.00367195
   2.97732773  8.79907080 12.60795135
   5.82477235  3.47370700  0.68022214
   7.17002408  1.38141441 13.86999589
   5.74753767  3.52326271  6.62618436
   7.30518811  1.22442835  8.05980196
   7.21159986  3.93713469  9.20279328
   5.95037036  0.90233707  5.26015252
   5.75892201  0.85063179  2.01273614
   7.29465770  3.89314232 12.49273827
   7.25011607  8.35827022  0.72215354
   5.77998769  6.17648684 13.89619145
   7.22524288  8.43374502  6.64732362
   5.81573273  6.17278729  8.01031166
   5.79963253  8.81085558  9.33539533
   7.25382073  5.71559459  5.29737259
   7.25350426  5.67607421  1.90267977
   5.76818795  8.80205988 12.55768691
   0.00265578  0.01448563  7.29142722
   9.08877705  0.00652668 15.29617367
   1.38437060  0.29198230 12.36783945
   0.06565439  4.51348851  2.26341002
   9.02525872  4.51556256  4.91966631
   1.38576483  0.33087231  9.48212736
   0.07127584  2.70317264 13.49860478
   1.48767667  2.08640198  1.09393891
   1.39577597  2.13344621  6.13405139
   9.10970694  2.79345494  8.48457171
   1.53681244  3.16939842 10.90946070
   0.05791554  1.70851684  3.65433968
   1.54006741  4.90271049  7.24773370
   1.37524438  4.83823029 15.28590999
   0.02340189  5.23714068 12.31485339
   1.45752464  9.32899435  2.25963662
   1.51508723  9.40446284  4.94444306
   0.02016438  5.08780853  9.53092019
   1.39976957  7.61637986 13.40891903
   0.04660801  7.07116064  1.13366510
   9.12964877  6.92811260  6.26075411
   1.45105118  7.60345767  8.42058196
   9.12817289  8.03008236 10.86687393
   1.54481838  6.51992351  3.64096946
   2.91364325  0.04197152  7.30787169
   2.88326528 10.14708864 15.25184452
   4.33683829  0.28274641 12.21613682
   2.93062920  4.55402114  2.27636225
   2.95718895  4.59400075  5.03684629
   4.35870386  0.31257603  9.58636399
   3.03136808  2.70108606 13.46525622
   4.35399724  2.14513977  1.18567819
   4.36995141  2.14717009  6.12103778
   2.86374004  2.73286324  8.43164090
   4.40957447  3.08677920 10.96684447
   2.93959485  1.63979151  3.64690261
   4.48255624  4.83535149  7.20295350
   4.35836042  4.76554001 15.30227503
   2.90847460  5.18118559 12.34270271
   4.37521095  9.41281020  2.27666744
   4.30973550  9.44261138  4.99254898
   2.85520716  5.24934027  9.56464236
   4.29248293  7.61957400 13.44171048
   2.87981903  7.06814516  1.18723919
   2.92531306  7.01824782  6.13760607
   4.33119765  7.64297641  8.46811576
   2.97531749  8.01435209 10.99926293
   4.37962058  6.61592926  3.61936139
   5.84286734  0.02458477  7.22407149
   5.76284182 10.18326128  0.01730081
   7.26718075  0.33288255 12.34747923
   5.80572844  4.60640775  2.28861884
   5.73450390  4.52591283  4.99939189
   7.25640620  0.18962925  9.54099561
   5.80300271  2.71098727 13.41191063
   7.20929154  2.23504761  1.09078262
   7.22758220  2.12844647  6.16445870
   5.84158393  2.78615693  8.43003980
   7.35588426  3.15448646 10.89723824
   5.88531561  1.69797588  3.65755933
   7.22962508  4.86174389  7.34038243
   7.32829255  4.74605985  0.00380554
   5.81715503  5.07835137 12.26904084
   7.20708178  9.48132526  2.27674244
   7.20188049  9.42707823  5.05125085
   5.79743686  5.12038588  9.49827506
   7.26520324  7.58903890 13.47371477
   5.87618070  6.89732474  1.11123039
   5.82823370  7.06232091  6.18574092
   7.27368437  7.52885519  8.42323316
   5.77609285  7.92039614 10.84034103
   7.34582118  6.54882179  3.57675931
 


--------------------------------------------------------------------------------------------------------


 k-point  1 :   0.0000 0.0000 0.0000  plane waves:   36299
 k-point  2 :   0.3333 0.0000 0.0000  plane waves:   36236
 k-point  3 :   0.0000 0.3333 0.0000  plane waves:   36225
 k-point  4 :   0.3333 0.3333 0.0000  plane waves:   36169
 k-point  5 :  -0.3333 0.3333 0.0000  plane waves:   36169
 k-point  6 :   0.0000 0.0000 0.5000  plane waves:   36164
 k-point  7 :   0.3333 0.0000 0.5000  plane waves:   36252
 k-point  8 :   0.0000 0.3333 0.5000  plane waves:   36222
 k-point  9 :   0.3333 0.3333 0.5000  plane waves:   36204
 k-point 10 :  -0.3333 0.3333 0.5000  plane waves:   36204

 maximum and minimum number of plane-waves per node :     36299    36164

 maximum number of plane-waves:     36299
 maximum index in each direction: 
   IXMAX=   17   IYMAX=   18   IZMAX=   27
   IXMIN=  -17   IYMIN=  -18   IZMIN=  -28

 The following grids will avoid any aliasing or wrap around errors in the Hartre
 e energy
  - symmetry arguments have not been applied
  - exchange correlation energies might require even more grid points
  - we recommend to set PREC=Normal or Accurate and rely on VASP defaults
 NGX is ok and might be reduce to    70
 NGY is ok and might be reduce to    80
 NGZ is ok and might be reduce to   112

 serial   3D FFT for wavefunctions
 parallel 3D FFT for charge:
    minimum data exchange during FFTs selected (reduces bandwidth)


 total amount of memory used by VASP MPI-rank0   650119. kBytes
=======================================================================

   base      :      30000. kBytes
   nonlr-proj:      67654. kBytes
   fftplans  :      13422. kBytes
   grid      :      76344. kBytes
   one-center:       3732. kBytes
   wavefun   :     458967. kBytes
 
     INWAV:  cpu time    0.0000: real time    0.0000
 Broyden mixing: mesh for mixing (old mesh)
   NGX = 33   NGY = 37   NGZ = 55
  (NGX  =140   NGY  =160   NGZ  =224)
  gives a total of  67155 points

 initial charge density was supplied:
 charge density of overlapping atoms calculated
 number of electron     912.0000000 magnetization     120.0000000
 keeping initial charge density in first step


--------------------------------------------------------------------------------------------------------


 Maximum index for non-local projection operator         5746
 Maximum index for augmentation-charges          992 (set IRDMAX)


--------------------------------------------------------------------------------------------------------


 First call to EWALD:  gamma=   0.157
 Maximum number of real-space cells 3x 3x 2
 Maximum number of reciprocal cells 2x 3x 4

    FEWALD:  cpu time    0.0055: real time    0.0055


--------------------------------------- Iteration      1(   1)  ---------------------------------------


    POTLOK:  cpu time    0.4079: real time    0.4099
    SETDIJ:  cpu time    0.0423: real time    0.0424
     EDDAV:  cpu time  168.2601: real time  168.6588
    --------------------------------------------
      LOOP:  cpu time  168.7129: real time  169.1136

 eigenvalue-minimisations  : 24320
 total energy-change (2. order) : 0.1109081E+05  (-0.3838355E+05)
 number of electron     912.0000000 magnetization     120.0000000
 augmentation part      912.0000000 magnetization     120.0000000

 Free energy of the ion-electron system (eV)
  ---------------------------------------------------
  alpha Z        PSCENC =      2631.40587157
  Ewald energy   TEWEN  =    -55586.80898717
  -Hartree energ DENC   =    -29329.09711081
  -exchange      EXHF   =         0.00000000
  -V(xc)+E(xc)   XCENC  =      3545.70516589
  PAW double counting   =     71080.72462945   -74396.17323249
  entropy T*S    EENTRO =        -0.01933979
  eigenvalues    EBANDS =     10439.25502547
  atomic energy  EATOM  =     82705.81968683
  Solvation  Ediel_sol  =         0.00000000
  ---------------------------------------------------
  free energy    TOTEN  =     11090.81170895 eV

  energy without entropy =    11090.83104875  energy(sigma->0) =    11090.82137885


--------------------------------------------------------------------------------------------------------




--------------------------------------- Iteration      1(   2)  ---------------------------------------


     EDDAV:  cpu time  167.5365: real time  167.9332
    --------------------------------------------
      LOOP:  cpu time  167.5360: real time  167.9328

 eigenvalue-minimisations  : 24320
 total energy-change (2. order) :-0.9370705E+04  (-0.8577345E+04)
 number of electron     912.0000000 magnetization     120.0000000
 augmentation part      912.0000000 magnetization     120.0000000

 Free energy of the ion-electron system (eV)
  ---------------------------------------------------
  alpha Z        PSCENC =      2631.40587157
  Ewald energy   TEWEN  =    -55586.80898717
  -Hartree energ DENC   =    -29329.09711081
  -exchange      EXHF   =         0.00000000
  -V(xc)+E(xc)   XCENC  =      3545.70516589
  PAW double counting   =     71080.72462945   -74396.17323249
  entropy T*S    EENTRO =        -0.05474362
  eigenvalues    EBANDS =      1068.58591270
  atomic energy  EATOM  =     82705.81968683
  Solvation  Ediel_sol  =         0.00000000
  ---------------------------------------------------
  free energy    TOTEN  =      1720.10719236 eV

  energy without entropy =     1720.16193598  energy(sigma->0) =     1720.13456417


--------------------------------------------------------------------------------------------------------




--------------------------------------- Iteration      1(   3)  ---------------------------------------


     EDDAV:  cpu time  171.1079: real time  171.5133
    --------------------------------------------
      LOOP:  cpu time  171.1083: real time  171.5137

 eigenvalue-minimisations  : 24896
 total energy-change (2. order) :-0.2364052E+04  (-0.2056790E+04)
 number of electron     912.0000000 magnetization     120.0000000
 augmentation part      912.0000000 magnetization     120.0000000

 Free energy of the ion-electron system (eV)
  ---------------------------------------------------
  alpha Z        PSCENC =      2631.40587157
  Ewald energy   TEWEN  =    -55586.80898717
  -Hartree energ DENC   =    -29329.09711081
  -exchange      EXHF   =         0.00000000
  -V(xc)+E(xc)   XCENC  =      3545.70516589
  PAW double counting   =     71080.72462945   -74396.17323249
  entropy T*S    EENTRO =        -0.23207157
  eigenvalues    EBANDS =     -1295.28841585
  atomic energy  EATOM  =     82705.81968683
  Solvation  Ediel_sol  =         0.00000000
  ---------------------------------------------------
  free energy    TOTEN  =      -643.94446415 eV

  energy without entropy =     -643.71239258  energy(sigma->0) =     -643.82842836


--------------------------------------------------------------------------------------------------------




--------------------------------------- Iteration      1(   4)  ---------------------------------------


     EDDAV:  cpu time  183.8293: real time  184.2647
    --------------------------------------------
      LOOP:  cpu time  183.8293: real time  184.2647

 eigenvalue-minimisations  : 27216
 total energy-change (2. order) :-0.3325451E+03  (-0.3176700E+03)
 number of electron     912.0000000 magnetization     120.0000000
 augmentation part      912.0000000 magnetization     120.0000000

 Free energy of the ion-electron system (eV)
  ---------------------------------------------------
  alpha Z        PSCENC =      2631.40587157
  Ewald energy   TEWEN  =    -55586.80898717
  -Hartree energ DENC   =    -29329.09711081
  -exchange      EXHF   =         0.00000000
  -V(xc)+E(xc)   XCENC  =      3545.70516589
  PAW double counting   =     71080.72462945   -74396.17323249
  entropy T*S    EENTRO =        -0.23545456
  eigenvalues    EBANDS =     -1627.83013292
  atomic energy  EATOM  =     82705.81968683
  Solvation  Ediel_sol  =         0.00000000
  ---------------------------------------------------
  free energy    TOTEN  =      -976.48956420 eV

  energy without entropy =     -976.25410964  energy(sigma->0) =     -976.37183692


--------------------------------------------------------------------------------------------------------




--------------------------------------- Iteration      1(   5)  ---------------------------------------


     EDDAV:  cpu time  182.3903: real time  182.8223
    CHARGE:  cpu time    7.2427: real time    7.2599
    MIXING:  cpu time    0.0082: real time    0.0082
    --------------------------------------------
      LOOP:  cpu time  189.6387: real time  190.0879

 eigenvalue-minimisations  : 26880
 total energy-change (2. order) :-0.1247099E+02  (-0.1231263E+02)
 number of electron     912.0000025 magnetization     125.8062392
 augmentation part      299.7597356 magnetization      88.8443936

 Broyden mixing:
  rms(total) = 0.15319E+02    rms(broyden)= 0.15317E+02
  rms(prec ) = 0.17278E+02
  weight for this iteration     100.00

 Free energy of the ion-electron system (eV)
  ---------------------------------------------------
  alpha Z        PSCENC =      2631.40587157
  Ewald energy   TEWEN  =    -55586.80898717
  -Hartree energ DENC   =    -29329.09711081
  -exchange      EXHF   =         0.00000000
  -V(xc)+E(xc)   XCENC  =      3545.70516589
  PAW double counting   =     71080.72462945   -74396.17323249
  entropy T*S    EENTRO =        -0.23591618
  eigenvalues    EBANDS =     -1640.30066038
  atomic energy  EATOM  =     82705.81968683
  Solvation  Ediel_sol  =         0.00000000
  ---------------------------------------------------
  free energy    TOTEN  =      -988.96055328 eV

  energy without entropy =     -988.72463711  energy(sigma->0) =     -988.84259520


--------------------------------------------------------------------------------------------------------




--------------------------------------- Iteration      1(   6)  ---------------------------------------


    POTLOK:  cpu time    0.3718: real time    0.3727
    SETDIJ:  cpu time    0.0432: real time    0.0434
     EDDAV:  cpu time  233.9907: real time  234.5448
    CHARGE:  cpu time    7.4937: real time    7.5115
    MIXING:  cpu time    0.0088: real time    0.0088
    --------------------------------------------
      LOOP:  cpu time  241.9083: real time  242.4811

 eigenvalue-minimisations  : 37200
 total energy-change (2. order) :-0.2249423E+03  (-0.2184727E+03)
 number of electron     912.0000036 magnetization     118.5569577
 augmentation part      391.3303063 magnetization     118.8378644

 Broyden mixing:
  rms(total) = 0.32145E+02    rms(broyden)= 0.32143E+02
  rms(prec ) = 0.34492E+02
  weight for this iteration     100.00

 eigenvalues of (default mixing * dielectric matrix)
  average eigenvalue GAMMA=   0.2354
  0.2354

 Free energy of the ion-electron system (eV)
  ---------------------------------------------------
  alpha Z        PSCENC =      2631.40587157
  Ewald energy   TEWEN  =    -55586.80898717
  -Hartree energ DENC   =    -28001.89584483
  -exchange      EXHF   =         0.00000000
  -V(xc)+E(xc)   XCENC  =      3579.14376543
  PAW double counting   =     74117.84792498   -76940.22472357
  entropy T*S    EENTRO =        -0.09368467
  eigenvalues    EBANDS =     -3719.09683956
  atomic energy  EATOM  =     82705.81968683
  Solvation  Ediel_sol  =         0.00000000
  ---------------------------------------------------
  free energy    TOTEN  =     -1213.90283100 eV

  energy without entropy =    -1213.80914633  energy(sigma->0) =    -1213.85598866


--------------------------------------------------------------------------------------------------------




--------------------------------------- Iteration      1(   7)  ---------------------------------------


    POTLOK:  cpu time    0.3913: real time    0.3922
    SETDIJ:  cpu time    0.0459: real time    0.0461
     EDDAV:  cpu time  210.2698: real time  210.7678
    CHARGE:  cpu time    7.7237: real time    7.7420
    MIXING:  cpu time    0.0083: real time    0.0083
    --------------------------------------------
      LOOP:  cpu time  218.4389: real time  218.9563

 eigenvalue-minimisations  : 32688
 total energy-change (2. order) : 0.3975006E+03  (-0.6969199E+02)
 number of electron     912.0000035 magnetization     113.4758940
 augmentation part      367.9799311 magnetization     100.1134407

 Broyden mixing:
  rms(total) = 0.16105E+02    rms(broyden)= 0.16102E+02
  rms(prec ) = 0.18597E+02
  weight for this iteration     100.00

 eigenvalues of (default mixing * dielectric matrix)
  average eigenvalue GAMMA=   0.4029
  0.4029  0.4029

 Free energy of the ion-electron system (eV)
  ---------------------------------------------------
  alpha Z        PSCENC =      2631.40587157
  Ewald energy   TEWEN  =    -55586.80898717
  -Hartree energ DENC   =    -28441.45155791
  -exchange      EXHF   =         0.00000000
  -V(xc)+E(xc)   XCENC  =      3538.81668193
  PAW double counting   =     76375.89805533   -79487.13429615
  entropy T*S    EENTRO =        -0.12149248
  eigenvalues    EBANDS =     -2552.82621418
  atomic energy  EATOM  =     82705.81968683
  Solvation  Ediel_sol  =         0.00000000
  ---------------------------------------------------
  free energy    TOTEN  =      -816.40225221 eV

  energy without entropy =     -816.28075974  energy(sigma->0) =     -816.34150598


--------------------------------------------------------------------------------------------------------




--------------------------------------- Iteration      1(   8)  ---------------------------------------


    POTLOK:  cpu time    0.3903: real time    0.3912
    SETDIJ:  cpu time    0.0466: real time    0.0467
     EDDAV:  cpu time  235.2967: real time  235.8539
    CHARGE:  cpu time    7.5303: real time    7.5481
    MIXING:  cpu time    0.0091: real time    0.0091
    --------------------------------------------
      LOOP:  cpu time  243.2730: real time  243.8490

 eigenvalue-minimisations  : 36048
 total energy-change (2. order) :-0.1072161E+03  (-0.3188842E+02)
 number of electron     912.0000021 magnetization     109.0632233
 augmentation part      345.2923307 magnetization      95.5605525

 Broyden mixing:
  rms(total) = 0.17314E+02    rms(broyden)= 0.17311E+02
  rms(prec ) = 0.25227E+02
  weight for this iteration     100.00

 eigenvalues of (default mixing * dielectric matrix)
  average eigenvalue GAMMA=   0.3590
  0.4762  0.4762  0.1246

 Free energy of the ion-electron system (eV)
  ---------------------------------------------------
  alpha Z        PSCENC =      2631.40587157
  Ewald energy   TEWEN  =    -55586.80898717
  -Hartree energ DENC   =    -28605.37626065
  -exchange      EXHF   =         0.00000000
  -V(xc)+E(xc)   XCENC  =      3525.88359842
  PAW double counting   =     77451.95053296   -80687.70573732
  entropy T*S    EENTRO =        -0.10753656
  eigenvalues    EBANDS =     -2358.67951513
  atomic energy  EATOM  =     82705.81968683
  Solvation  Ediel_sol  =         0.00000000
  ---------------------------------------------------
  free energy    TOTEN  =      -923.61834704 eV

  energy without entropy =     -923.51081049  energy(sigma->0) =     -923.56457876


--------------------------------------------------------------------------------------------------------




--------------------------------------- Iteration      1(   9)  ---------------------------------------


    POTLOK:  cpu time    0.3966: real time    0.3975
    SETDIJ:  cpu time    0.0465: real time    0.0466
     EDDAV:  cpu time  202.5522: real time  203.0320
    CHARGE:  cpu time    7.5005: real time    7.5183
    MIXING:  cpu time    0.0085: real time    0.0085
    --------------------------------------------
      LOOP:  cpu time  210.5043: real time  211.0030

 eigenvalue-minimisations  : 29824
 total energy-change (2. order) : 0.7052731E+02  (-0.3412675E+02)
 number of electron     912.0000044 magnetization     103.7495862
 augmentation part      341.8088784 magnetization      88.1195590

 Broyden mixing:
  rms(total) = 0.16368E+02    rms(broyden)= 0.16367E+02
  rms(prec ) = 0.19738E+02
  weight for this iteration     100.00

 eigenvalues of (default mixing * dielectric matrix)
  average eigenvalue GAMMA=   0.3439
  0.5437  0.5437  0.1694  0.1190

 Free energy of the ion-electron system (eV)
  ---------------------------------------------------
  alpha Z        PSCENC =      2631.40587157
  Ewald energy   TEWEN  =    -55586.80898717
  -Hartree energ DENC   =    -28515.90264886
  -exchange      EXHF   =         0.00000000
  -V(xc)+E(xc)   XCENC  =      3520.65963258
  PAW double counting   =     78257.87647849   -81540.10013470
  entropy T*S    EENTRO =        -0.11473703
  eigenvalues    EBANDS =     -2325.92619780
  atomic energy  EATOM  =     82705.81968683
  Solvation  Ediel_sol  =         0.00000000
  ---------------------------------------------------
  free energy    TOTEN  =      -853.09103610 eV

  energy without entropy =     -852.97629906  energy(sigma->0) =     -853.03366758


--------------------------------------------------------------------------------------------------------




--------------------------------------- Iteration      1(  10)  ---------------------------------------


    POTLOK:  cpu time    0.3871: real time    0.3880
    SETDIJ:  cpu time    0.0464: real time    0.0465
     EDDAV:  cpu time  226.7534: real time  227.2904
    CHARGE:  cpu time    7.5936: real time    7.6116
    MIXING:  cpu time    0.0093: real time    0.0093
    --------------------------------------------
      LOOP:  cpu time  234.7897: real time  235.3458

 eigenvalue-minimisations  : 34448
 total energy-change (2. order) : 0.3830917E+02  (-0.1991515E+02)
 number of electron     912.0000003 magnetization      99.6350897
 augmentation part      328.2784742 magnetization      79.3589521

 Broyden mixing:
  rms(total) = 0.18034E+02    rms(broyden)= 0.18032E+02
  rms(prec ) = 0.22950E+02
  weight for this iteration     100.00

 eigenvalues of (default mixing * dielectric matrix)
  average eigenvalue GAMMA=   0.3249
  0.5928  0.5928  0.2067  0.1161  0.1161

 Free energy of the ion-electron system (eV)
  ---------------------------------------------------
  alpha Z        PSCENC =      2631.40587157
  Ewald energy   TEWEN  =    -55586.80898717
  -Hartree energ DENC   =    -28553.93404745
  -exchange      EXHF   =         0.00000000
  -V(xc)+E(xc)   XCENC  =      3516.74431725
  PAW double counting   =     79318.19585094   -82650.89342239
  entropy T*S    EENTRO =        -0.14450825
  eigenvalues    EBANDS =     -2195.16662640
  atomic energy  EATOM  =     82705.81968683
  Solvation  Ediel_sol  =         0.00000000
  ---------------------------------------------------
  free energy    TOTEN  =      -814.78186507 eV

  energy without entropy =     -814.63735682  energy(sigma->0) =     -814.70961094


--------------------------------------------------------------------------------------------------------




--------------------------------------- Iteration      1(  11)  ---------------------------------------


    POTLOK:  cpu time    0.3851: real time    0.3860
    SETDIJ:  cpu time    0.0461: real time    0.0462
     EDDAV:  cpu time  222.3298: real time  222.8563
    CHARGE:  cpu time    7.4762: real time    7.4939
    MIXING:  cpu time    0.0099: real time    0.0099
    --------------------------------------------
      LOOP:  cpu time  230.2470: real time  230.7923

 eigenvalue-minimisations  : 34368
 total energy-change (2. order) : 0.7189305E+02  (-0.1291032E+02)
 number of electron     912.0000038 magnetization      96.9049382
 augmentation part      337.1042314 magnetization      76.3270916

 Broyden mixing:
  rms(total) = 0.10160E+02    rms(broyden)= 0.10158E+02
  rms(prec ) = 0.12397E+02
  weight for this iteration     100.00

 eigenvalues of (default mixing * dielectric matrix)
  average eigenvalue GAMMA=   0.3293
  0.6516  0.6516  0.2363  0.2363  0.1000  0.1000

 Free energy of the ion-electron system (eV)
  ---------------------------------------------------
  alpha Z        PSCENC =      2631.40587157
  Ewald energy   TEWEN  =    -55586.80898717
  -Hartree energ DENC   =    -28513.64437154
  -exchange      EXHF   =         0.00000000
  -V(xc)+E(xc)   XCENC  =      3514.76521200
  PAW double counting   =     80033.20813374   -83384.46537480
  entropy T*S    EENTRO =        -0.14139607
  eigenvalues    EBANDS =     -2143.02759252
  atomic energy  EATOM  =     82705.81968683
  Solvation  Ediel_sol  =         0.00000000
  ---------------------------------------------------
  free energy    TOTEN  =      -742.88881796 eV

  energy without entropy =     -742.74742190  energy(sigma->0) =     -742.81811993


--------------------------------------------------------------------------------------------------------




--------------------------------------- Iteration      1(  12)  ---------------------------------------


    POTLOK:  cpu time    0.3882: real time    0.3891
    SETDIJ:  cpu time    0.0454: real time    0.0455
     EDDAV:  cpu time  204.7904: real time  205.2754
    CHARGE:  cpu time    7.2348: real time    7.2519
    MIXING:  cpu time    0.0108: real time    0.0109
    --------------------------------------------
      LOOP:  cpu time  212.4696: real time  212.9728

 eigenvalue-minimisations  : 31488
 total energy-change (2. order) :-0.4901329E+01  (-0.8584560E+01)
 number of electron     912.0000023 magnetization      92.4833210
 augmentation part      335.6645959 magnetization      70.3576081

 Broyden mixing:
  rms(total) = 0.13728E+02    rms(broyden)= 0.13727E+02
  rms(prec ) = 0.17391E+02
  weight for this iteration     100.00

 eigenvalues of (default mixing * dielectric matrix)
  average eigenvalue GAMMA=   0.3331
  0.7248  0.7248  0.2979  0.2979  0.1135  0.0865  0.0865

 Free energy of the ion-electron system (eV)
  ---------------------------------------------------
  alpha Z        PSCENC =      2631.40587157
  Ewald energy   TEWEN  =    -55586.80898717
  -Hartree energ DENC   =    -28471.42944416
  -exchange      EXHF   =         0.00000000
  -V(xc)+E(xc)   XCENC  =      3513.93719165
  PAW double counting   =     80373.88955795   -83729.10058325
  entropy T*S    EENTRO =        -0.15435957
  eigenvalues    EBANDS =     -2185.34908124
  atomic energy  EATOM  =     82705.81968683
  Solvation  Ediel_sol  =         0.00000000
  ---------------------------------------------------
  free energy    TOTEN  =      -747.79014738 eV

  energy without entropy =     -747.63578781  energy(sigma->0) =     -747.71296760


--------------------------------------------------------------------------------------------------------




--------------------------------------- Iteration      1(  13)  ---------------------------------------


    POTLOK:  cpu time    0.4040: real time    0.4050
    SETDIJ:  cpu time    0.0462: real time    0.0463
     EDDAV:  cpu time  214.7099: real time  215.2184
    CHARGE:  cpu time    6.9315: real time    6.9479
    MIXING:  cpu time    0.0116: real time    0.0116
    --------------------------------------------
      LOOP:  cpu time  222.1032: real time  222.6292

 eigenvalue-minimisations  : 32880
 total energy-change (2. order) : 0.2763159E+02  (-0.8038996E+01)
 number of electron     912.0000042 magnetization      89.5345283
 augmentation part      339.5737658 magnetization      68.7597002

 Broyden mixing:
  rms(total) = 0.10303E+02    rms(broyden)= 0.10302E+02
  rms(prec ) = 0.13420E+02
  weight for this iteration     100.00

 eigenvalues of (default mixing * dielectric matrix)
  average eigenvalue GAMMA=   0.3316
  0.7917  0.7917  0.3220  0.3220  0.1319  0.1319  0.0807  0.0807

 Free energy of the ion-electron system (eV)
  ---------------------------------------------------
  alpha Z        PSCENC =      2631.40587157
  Ewald energy   TEWEN  =    -55586.80898717
  -Hartree energ DENC   =    -28464.87177036
  -exchange      EXHF   =         0.00000000
  -V(xc)+E(xc)   XCENC  =      3513.12168668
  PAW double counting   =     80977.43955061   -84346.48868940
  entropy T*S    EENTRO =        -0.14041538
  eigenvalues    EBANDS =     -2149.63548787
  atomic energy  EATOM  =     82705.81968683
  Solvation  Ediel_sol  =         0.00000000
  ---------------------------------------------------
  free energy    TOTEN  =      -720.15855449 eV

  energy without entropy =     -720.01813912  energy(sigma->0) =     -720.08834681


--------------------------------------------------------------------------------------------------------




--------------------------------------- Iteration      1(  14)  ---------------------------------------


    POTLOK:  cpu time    0.3896: real time    0.3905
    SETDIJ:  cpu time    0.0463: real time    0.0464
     EDDAV:  cpu time  204.6241: real time  205.1091
    CHARGE:  cpu time    7.8899: real time    7.9086
    MIXING:  cpu time    0.0118: real time    0.0118
    --------------------------------------------
      LOOP:  cpu time  212.9616: real time  213.4663

 eigenvalue-minimisations  : 29888
 total energy-change (2. order) : 0.1971348E+02  (-0.4545740E+01)
 number of electron     912.0000032 magnetization      86.4265383
 augmentation part      340.4648092 magnetization      63.7040648

 Broyden mixing:
  rms(total) = 0.66295E+01    rms(broyden)= 0.66281E+01
  rms(prec ) = 0.82493E+01
  weight for this iteration     100.00

 eigenvalues of (default mixing * dielectric matrix)
  average eigenvalue GAMMA=   0.3367
  0.8598  0.8598  0.3570  0.3570  0.2048  0.1349  0.0930  0.0930  0.0712

 Free energy of the ion-electron system (eV)
  ---------------------------------------------------
  alpha Z        PSCENC =      2631.40587157
  Ewald energy   TEWEN  =    -55586.80898717
  -Hartree energ DENC   =    -28464.51202000
  -exchange      EXHF   =         0.00000000
  -V(xc)+E(xc)   XCENC  =      3512.84726057
  PAW double counting   =     81308.94217751   -84686.13906190
  entropy T*S    EENTRO =        -0.15600537
  eigenvalues    EBANDS =     -2121.84399471
  atomic energy  EATOM  =     82705.81968683
  Solvation  Ediel_sol  =         0.00000000
  ---------------------------------------------------
  free energy    TOTEN  =      -700.44507267 eV

  energy without entropy =     -700.28906730  energy(sigma->0) =     -700.36706999


--------------------------------------------------------------------------------------------------------




--------------------------------------- Iteration      1(  15)  ---------------------------------------


    POTLOK:  cpu time    0.3789: real time    0.3798
    SETDIJ:  cpu time    0.0454: real time    0.0455
     EDDAV:  cpu time  193.6495: real time  194.1082
    CHARGE:  cpu time    7.8062: real time    7.8487
    MIXING:  cpu time    0.0121: real time    0.0121
    --------------------------------------------
      LOOP:  cpu time  201.8920: real time  202.3942

 eigenvalue-minimisations  : 28496
 total energy-change (2. order) : 0.5109426E+01  (-0.3780870E+01)
 number of electron     912.0000021 magnetization      84.3772728
 augmentation part      336.9152075 magnetization      60.4046403

 Broyden mixing:
  rms(total) = 0.61108E+01    rms(broyden)= 0.61091E+01
  rms(prec ) = 0.77046E+01
  weight for this iteration     100.00

 eigenvalues of (default mixing * dielectric matrix)
  average eigenvalue GAMMA=   0.3336
  0.8764  0.8764  0.3975  0.3975  0.2661  0.1431  0.1069  0.1069  0.0827  0.0827

 Free energy of the ion-electron system (eV)
  ---------------------------------------------------
  alpha Z        PSCENC =      2631.40587157
  Ewald energy   TEWEN  =    -55586.80898717
  -Hartree energ DENC   =    -28499.59013381
  -exchange      EXHF   =         0.00000000
  -V(xc)+E(xc)   XCENC  =      3512.21391202
  PAW double counting   =     81632.45221687   -85021.14564195
  entropy T*S    EENTRO =        -0.17283514
  eigenvalues    EBANDS =     -2069.50973602
  atomic energy  EATOM  =     82705.81968683
  Solvation  Ediel_sol  =         0.00000000
  ---------------------------------------------------
  free energy    TOTEN  =      -695.33564681 eV

  energy without entropy =     -695.16281166  energy(sigma->0) =     -695.24922924


--------------------------------------------------------------------------------------------------------




--------------------------------------- Iteration      1(  16)  ---------------------------------------


    POTLOK:  cpu time    0.3907: real time    0.3917
    SETDIJ:  cpu time    0.0461: real time    0.0462
     EDDAV:  cpu time  208.6649: real time  209.1590
    CHARGE:  cpu time    7.5871: real time    7.6050
    MIXING:  cpu time    0.0112: real time    0.0112
    --------------------------------------------
      LOOP:  cpu time  216.7000: real time  217.2131

 eigenvalue-minimisations  : 31408
 total energy-change (2. order) : 0.3164328E+01  (-0.4409084E+01)
 number of electron     912.0000024 magnetization      82.5831315
 augmentation part      335.8438626 magnetization      60.7763455

 Broyden mixing:
  rms(total) = 0.65943E+01    rms(broyden)= 0.65932E+01
  rms(prec ) = 0.84192E+01
  weight for this iteration     100.00

 eigenvalues of (default mixing * dielectric matrix)
  average eigenvalue GAMMA=   0.3230
  0.9760  0.7271  0.4290  0.4290  0.3194  0.1978  0.1302  0.1023  0.0872  0.0872
  0.0679

 Free energy of the ion-electron system (eV)
  ---------------------------------------------------
  alpha Z        PSCENC =      2631.40587157
  Ewald energy   TEWEN  =    -55586.80898717
  -Hartree energ DENC   =    -28501.26689707
  -exchange      EXHF   =         0.00000000
  -V(xc)+E(xc)   XCENC  =      3511.57500165
  PAW double counting   =     81835.35884804   -85228.88988247
  entropy T*S    EENTRO =        -0.16873078
  eigenvalues    EBANDS =     -2059.19622943
  atomic energy  EATOM  =     82705.81968683
  Solvation  Ediel_sol  =         0.00000000
  ---------------------------------------------------
  free energy    TOTEN  =      -692.17131882 eV

  energy without entropy =     -692.00258805  energy(sigma->0) =     -692.08695344


--------------------------------------------------------------------------------------------------------




--------------------------------------- Iteration      1(  17)  ---------------------------------------


    POTLOK:  cpu time    0.3860: real time    0.3870
    SETDIJ:  cpu time    0.0457: real time    0.0458
     EDDAV:  cpu time  200.4091: real time  200.8835
    CHARGE:  cpu time    7.5800: real time    7.5980
    MIXING:  cpu time    0.0124: real time    0.0125
    --------------------------------------------
      LOOP:  cpu time  208.4333: real time  208.9268

 eigenvalue-minimisations  : 29840
 total energy-change (2. order) :-0.5429547E+01  (-0.3759834E+01)
 number of electron     912.0000036 magnetization      80.2746303
 augmentation part      335.2733738 magnetization      57.7389323

 Broyden mixing:
  rms(total) = 0.76614E+01    rms(broyden)= 0.76609E+01
  rms(prec ) = 0.94133E+01
  weight for this iteration     100.00

 eigenvalues of (default mixing * dielectric matrix)
  average eigenvalue GAMMA=   0.3216
  1.1583  0.5829  0.5829  0.3549  0.3549  0.2756  0.1314  0.0992  0.0895  0.0895
  0.0702  0.0702

 Free energy of the ion-electron system (eV)
  ---------------------------------------------------
  alpha Z        PSCENC =      2631.40587157
  Ewald energy   TEWEN  =    -55586.80898717
  -Hartree energ DENC   =    -28503.10400269
  -exchange      EXHF   =         0.00000000
  -V(xc)+E(xc)   XCENC  =      3511.05376362
  PAW double counting   =     82000.80258952   -85395.69716694
  entropy T*S    EENTRO =        -0.14569971
  eigenvalues    EBANDS =     -2060.92692126
  atomic energy  EATOM  =     82705.81968683
  Solvation  Ediel_sol  =         0.00000000
  ---------------------------------------------------
  free energy    TOTEN  =      -697.60086623 eV

  energy without entropy =     -697.45516651  energy(sigma->0) =     -697.52801637


--------------------------------------------------------------------------------------------------------




--------------------------------------- Iteration      1(  18)  ---------------------------------------


    POTLOK:  cpu time    0.3826: real time    0.3835
    SETDIJ:  cpu time    0.0452: real time    0.0454
     EDDAV:  cpu time  200.0226: real time  200.4963
    CHARGE:  cpu time    7.7239: real time    7.7422
    MIXING:  cpu time    0.0128: real time    0.0128
    --------------------------------------------
      LOOP:  cpu time  208.1871: real time  208.6801

 eigenvalue-minimisations  : 29840
 total energy-change (2. order) : 0.7238296E+01  (-0.1216202E+01)
 number of electron     912.0000031 magnetization      78.8156324
 augmentation part      336.2139703 magnetization      56.8802752

 Broyden mixing:
  rms(total) = 0.52035E+01    rms(broyden)= 0.52030E+01
  rms(prec ) = 0.64183E+01
  weight for this iteration     100.00

 eigenvalues of (default mixing * dielectric matrix)
  average eigenvalue GAMMA=   0.3199
  1.2428  0.6322  0.6322  0.3491  0.3491  0.2895  0.1444  0.1057  0.1057  0.0791
  0.0791  0.0775  0.0717

 Free energy of the ion-electron system (eV)
  ---------------------------------------------------
  alpha Z        PSCENC =      2631.40587157
  Ewald energy   TEWEN  =    -55586.80898717
  -Hartree energ DENC   =    -28500.55241256
  -exchange      EXHF   =         0.00000000
  -V(xc)+E(xc)   XCENC  =      3510.48448432
  PAW double counting   =     82218.93155803   -85616.10763794
  entropy T*S    EENTRO =        -0.16738763
  eigenvalues    EBANDS =     -2053.36774602
  atomic energy  EATOM  =     82705.81968683
  Solvation  Ediel_sol  =         0.00000000
  ---------------------------------------------------
  free energy    TOTEN  =      -690.36257057 eV

  energy without entropy =     -690.19518294  energy(sigma->0) =     -690.27887676


--------------------------------------------------------------------------------------------------------




--------------------------------------- Iteration      1(  19)  ---------------------------------------


    POTLOK:  cpu time    0.3848: real time    0.3857
    SETDIJ:  cpu time    0.0452: real time    0.0453
     EDDAV:  cpu time  203.8203: real time  204.3030
    CHARGE:  cpu time    7.5372: real time    7.5551
    MIXING:  cpu time    0.0134: real time    0.0134
    --------------------------------------------
      LOOP:  cpu time  211.8009: real time  212.3026

 eigenvalue-minimisations  : 30560
 total energy-change (2. order) : 0.4557509E+01  (-0.1495955E+01)
 number of electron     912.0000031 magnetization      76.5164159
 augmentation part      337.3805575 magnetization      53.7833349

 Broyden mixing:
  rms(total) = 0.30665E+01    rms(broyden)= 0.30657E+01
  rms(prec ) = 0.37055E+01
  weight for this iteration     100.00

 eigenvalues of (default mixing * dielectric matrix)
  average eigenvalue GAMMA=   0.3340
  1.3508  0.7063  0.7063  0.3541  0.3541  0.3499  0.2295  0.1184  0.1184  0.0857
  0.0857  0.0766  0.0704  0.0704

 Free energy of the ion-electron system (eV)
  ---------------------------------------------------
  alpha Z        PSCENC =      2631.40587157
  Ewald energy   TEWEN  =    -55586.80898717
  -Hartree energ DENC   =    -28495.94676105
  -exchange      EXHF   =         0.00000000
  -V(xc)+E(xc)   XCENC  =      3510.09687213
  PAW double counting   =     82348.45186421   -85746.10818804
  entropy T*S    EENTRO =        -0.15218503
  eigenvalues    EBANDS =     -2052.56323497
  atomic energy  EATOM  =     82705.81968683
  Solvation  Ediel_sol  =         0.00000000
  ---------------------------------------------------
  free energy    TOTEN  =      -685.80506153 eV

  energy without entropy =     -685.65287649  energy(sigma->0) =     -685.72896901


--------------------------------------------------------------------------------------------------------




--------------------------------------- Iteration      1(  20)  ---------------------------------------


    POTLOK:  cpu time    0.3844: real time    0.3853
    SETDIJ:  cpu time    0.0457: real time    0.0458
     EDDAV:  cpu time  204.7597: real time  205.2444
    CHARGE:  cpu time    7.5677: real time    7.5856
    MIXING:  cpu time    0.0121: real time    0.0121
    --------------------------------------------
      LOOP:  cpu time  212.7694: real time  213.2732

 eigenvalue-minimisations  : 30624
 total energy-change (2. order) :-0.3770160E+01  (-0.1138276E+01)
 number of electron     912.0000032 magnetization      74.1271608
 augmentation part      337.2336531 magnetization      52.7434770

 Broyden mixing:
  rms(total) = 0.43712E+01    rms(broyden)= 0.43704E+01
  rms(prec ) = 0.52350E+01
  weight for this iteration     100.00

 eigenvalues of (default mixing * dielectric matrix)
  average eigenvalue GAMMA=   0.3366
  1.4556  0.7597  0.7597  0.3849  0.3554  0.3554  0.2398  0.1366  0.1249  0.0880
  0.0880  0.0891  0.0699  0.0708  0.0708

 Free energy of the ion-electron system (eV)
  ---------------------------------------------------
  alpha Z        PSCENC =      2631.40587157
  Ewald energy   TEWEN  =    -55586.80898717
  -Hartree energ DENC   =    -28494.60789351
  -exchange      EXHF   =         0.00000000
  -V(xc)+E(xc)   XCENC  =      3509.35765649
  PAW double counting   =     82541.15547459   -85939.90305870
  entropy T*S    EENTRO =        -0.13897898
  eigenvalues    EBANDS =     -2055.85499227
  atomic energy  EATOM  =     82705.81968683
  Solvation  Ediel_sol  =         0.00000000
  ---------------------------------------------------
  free energy    TOTEN  =      -689.57522114 eV

  energy without entropy =     -689.43624216  energy(sigma->0) =     -689.50573165


--------------------------------------------------------------------------------------------------------




--------------------------------------- Iteration      1(  21)  ---------------------------------------


    POTLOK:  cpu time    0.3666: real time    0.3674
    SETDIJ:  cpu time    0.0467: real time    0.0468
     EDDAV:  cpu time  210.7341: real time  211.2330
    CHARGE:  cpu time    7.5122: real time    7.5300
    MIXING:  cpu time    0.0155: real time    0.0155
    --------------------------------------------
      LOOP:  cpu time  218.6750: real time  219.1928

 eigenvalue-minimisations  : 31856
 total energy-change (2. order) : 0.9405305E+00  (-0.1247969E+01)
 number of electron     912.0000037 magnetization      72.4061012
 augmentation part      338.5515329 magnetization      50.6358705

 Broyden mixing:
  rms(total) = 0.26569E+01    rms(broyden)= 0.26562E+01
  rms(prec ) = 0.34033E+01
  weight for this iteration     100.00

 eigenvalues of (default mixing * dielectric matrix)
  average eigenvalue GAMMA=   0.3406
  1.4779  0.8121  0.8121  0.4635  0.3504  0.3504  0.2603  0.2172  0.1258  0.0979
  0.0979  0.0879  0.0879  0.0744  0.0666  0.0666

 Free energy of the ion-electron system (eV)
  ---------------------------------------------------
  alpha Z        PSCENC =      2631.40587157
  Ewald energy   TEWEN  =    -55586.80898717
  -Hartree energ DENC   =    -28487.86030588
  -exchange      EXHF   =         0.00000000
  -V(xc)+E(xc)   XCENC  =      3508.51686721
  PAW double counting   =     82722.35436374   -86120.58097233
  entropy T*S    EENTRO =        -0.13446646
  eigenvalues    EBANDS =     -2061.34674819
  atomic energy  EATOM  =     82705.81968683
  Solvation  Ediel_sol  =         0.00000000
  ---------------------------------------------------
  free energy    TOTEN  =      -688.63469067 eV

  energy without entropy =     -688.50022422  energy(sigma->0) =     -688.56745745


--------------------------------------------------------------------------------------------------------




--------------------------------------- Iteration      1(  22)  ---------------------------------------


    POTLOK:  cpu time    0.3883: real time    0.3892
    SETDIJ:  cpu time    0.0459: real time    0.0460
     EDDAV:  cpu time  200.7822: real time  201.2576
    CHARGE:  cpu time    7.4188: real time    7.4364
    MIXING:  cpu time    0.0151: real time    0.0151
    --------------------------------------------
      LOOP:  cpu time  208.6504: real time  209.1444

 eigenvalue-minimisations  : 30048
[...]
      7.30519      1.22443      8.05980        -0.063549     -0.976176     -0.754423
      7.21160      3.93713      9.20279         2.297473      0.038183      1.116023
      5.95037      0.90234      5.26015        -0.113435     -1.880313     -0.071381
      5.75892      0.85063      2.01274         1.018744     -1.509257     -0.720493
      7.29466      3.89314     12.49274        -0.000275      0.071262     -0.385909
      7.25012      8.35827      0.72215        -0.028052      1.173635      1.179098
      5.77999      6.17649     13.89619         0.506262     -0.161759     -0.487537
      7.22524      8.43375      6.64732        -0.224883      0.886806     -1.069413
      5.81573      6.17279      8.01031         0.567744      0.039186     -0.754984
      5.79963      8.81086      9.33540         0.764055      1.357347      0.115477
      7.25382      5.71559      5.29737         0.514731      0.000450     -1.725109
      7.25350      5.67607      1.90268         1.131275      0.476097      0.413897
      5.76819      8.80206     12.55769         0.564765      0.610684     -1.027661
      0.00266      0.01449      7.29143         0.172281      0.381566     -0.016514
      9.08878      0.00653     15.29617         0.257615      0.113411      0.763676
      1.38437      0.29198     12.36784         0.007232     -1.204817      1.945212
      0.06565      4.51349      2.26341        -0.403704      0.908904     -0.976089
      9.02526      4.51556      4.91967         0.242837      0.553624      2.309856
      1.38576      0.33087      9.48213         0.006407     -1.974981      0.501856
      0.07128      2.70317     13.49860         0.573281      0.378595      0.510446
      1.48768      2.08640      1.09394        -0.004767      0.593727     -0.222612
      1.39578      2.13345      6.13405         0.025938      0.157162      1.048877
      9.10971      2.79345      8.48457         0.583908      0.008341     -1.352057
      1.53681      3.16940     10.90946        -0.005070      0.985042     -0.016856
      0.05792      1.70852      3.65434        -0.360987     -1.563440     -0.100525
      1.54007      4.90271      7.24773        -0.212757     -0.209397      0.062615
      1.37524      4.83823     15.28591         0.100210     -0.016473      0.596301
      0.02340      5.23714     12.31485        -0.263180     -0.770286      1.929884
      1.45752      9.32899      2.25964        -0.102682      1.140034     -1.904700
      1.51509      9.40446      4.94444        -0.271347      1.251128      2.447573
      0.02016      5.08781      9.53092        -0.297458      0.411191     -1.865131
      1.39977      7.61638     13.40892        -0.312165     -0.048941      1.282174
      0.04661      7.07116      1.13367         0.474840      0.018614     -1.009587
      9.12965      6.92811      6.26075         0.208913      0.641780     -0.389036
      1.45105      7.60346      8.42058        -0.222961      0.267549      0.201650
      9.12817      8.03008     10.86687        -0.235322      1.031083      1.335862
      1.54482      6.51992      3.64097        -0.289524     -0.618960     -0.413016
      2.91364      0.04197      7.30787        -0.158940      0.418426     -0.076987
      2.88327     10.14709     15.25184         0.168882      0.056173      0.151096
      4.33684      0.28275     12.21614         0.095333     -1.907365      2.481859
      2.93063      4.55402      2.27636         0.019896      0.888972     -0.923237
      2.95719      4.59400      5.03685        -1.277828     -0.705547      0.981498
      4.35870      0.31258      9.58636         0.012313     -1.735743     -0.964545
      3.03137      2.70109     13.46526        -0.250693      0.138620      0.615605
      4.35400      2.14514      1.18568         0.292583      0.447434     -0.628405
      4.36995      2.14717      6.12104        -0.224760     -0.048227      1.297681
      2.86374      2.73286      8.43164         0.109826     -0.193782     -0.224449
      4.40957      3.08678     10.96684        -0.275826      1.005866     -0.308712
      2.93959      1.63979      3.64690        -0.051901     -0.661089     -0.966820
      4.48256      4.83535      7.20295        -0.528911      0.483481      0.203971
      4.35836      4.76554     15.30228         0.361517     -0.302293      0.710589
      2.90847      5.18119     12.34270        -0.090644     -0.859386      1.464699
      4.37521      9.41281      2.27667         0.201639      1.749452     -1.701594
      4.30974      9.44261      4.99255         0.286174      1.320278      1.850569
      2.85521      5.24934      9.56464         0.654415     -1.322375     -0.273049
      4.29248      7.61957     13.44171         0.598072     -0.094410      1.001015
      2.87982      7.06815      1.18724        -0.017886      0.101954     -1.127551
      2.92531      7.01825      6.13761         0.082260     -0.201026      1.244995
      4.33120      7.64298      8.46812         0.361133     -0.006258     -0.768277
      2.97532      8.01435     10.99926        -0.232558      1.461804     -0.862644
      4.37962      6.61593      3.61936        -0.059298     -1.315996      0.352348
      5.84287      0.02458      7.22407         0.040145      0.370724      0.064892
      5.76284     10.18326      0.01730        -0.219722     -0.177025      0.421157
      7.26718      0.33288     12.34748        -0.402916     -1.036173      2.071059
      5.80573      4.60641      2.28862         0.637847     -1.054699     -0.847567
      5.73450      4.52591      4.99939         0.179265      0.404084      1.170757
      7.25641      0.18963      9.54100         0.024394     -1.064639     -1.220166
      5.80300      2.71099     13.41191         0.184991     -0.292556      0.952493
      7.20929      2.23505      1.09078        -0.552745      0.064469     -0.521260
      7.22758      2.12845      6.16446        -0.179187     -0.196799      1.111964
      5.84158      2.78616      8.43004        -0.353606     -0.886599     -0.599482
      7.35588      3.15449     10.89724        -0.019659      0.955596     -0.863001
      5.88532      1.69798      3.65756        -0.067451     -1.521806     -0.240144
      7.22963      4.86174      7.34038         0.158173     -0.041138     -0.197307
      7.32829      4.74606      0.00381        -0.136036     -0.112249      1.108588
      5.81716      5.07835     12.26904        -0.166354      0.020418      1.970128
      7.20708      9.48133      2.27674        -0.161168      0.927677     -1.761672
      7.20188      9.42708      5.05125        -0.000135      0.798451      1.948082
      5.79744      5.12039      9.49828         0.153063      0.195016     -0.003502
      7.26520      7.58904     13.47371        -0.291713      0.052528      0.627585
      5.87618      6.89732      1.11123         0.085282      0.962680     -0.825326
      5.82823      7.06232      6.18574         0.079628     -0.348946      0.938752
      7.27368      7.52886      8.42323        -0.225750      0.459256     -0.980577
      5.77609      7.92040     10.84034         0.108021      1.619078      1.152832
      7.34582      6.54882      3.57676        -0.076714     -1.707035      0.139762
 -----------------------------------------------------------------------------------
    total drift:                                0.018295     -0.014380      0.016045


--------------------------------------------------------------------------------------------------------



  FREE ENERGIE OF THE ION-ELECTRON SYSTEM (eV)
  ---------------------------------------------------
  free  energy   TOTEN  =      -697.2292920262 eV

  energy  without entropy=     -697.1044773120  energy(sigma->0) =     -697.16688467
 


--------------------------------------------------------------------------------------------------------


    POTLOK:  cpu time    0.4097: real time    0.4107


--------------------------------------------------------------------------------------------------------


     LOOP+:  cpu time17748.0059: real time17790.3516
    4ORBIT:  cpu time    0.0000: real time    0.0000

volume of typ            1:    21.4 %

volume of typ            2:     8.2 %
 
total charge     
 
# of ion       s       p       d       tot
------------------------------------------
    1        0.209   0.195   7.844   8.249
    2        0.204   0.185   7.809   8.199
    3        0.205   0.204   7.885   8.293
    4        0.243   0.276   7.844   8.363
    5        0.254   0.296   7.823   8.373
    6        0.204   0.190   7.842   8.236
    7        0.195   0.177   7.830   8.202
    8        0.238   0.249   7.819   8.306
    9        0.212   0.192   7.844   8.248
   10        0.183   0.151   7.873   8.208
   11        0.202   0.205   7.879   8.286
   12        0.216   0.237   7.886   8.338
   13        0.217   0.198   7.869   8.284
   14        0.239   0.266   7.808   8.314
   15        0.239   0.274   7.790   8.303
   16        0.186   0.158   7.848   8.193
   17        0.217   0.221   7.850   8.288
   18        0.194   0.172   7.856   8.223
   19        0.219   0.244   7.895   8.357
   20        0.224   0.242   7.862   8.327
   21        0.242   0.268   7.851   8.361
   22        0.226   0.233   7.824   8.283
   23        0.214   0.223   7.826   8.263
   24        0.249   0.277   7.828   8.354
   25        0.190   0.162   7.846   8.198
   26        0.193   0.177   7.891   8.261
   27        0.208   0.213   7.872   8.293
   28        0.232   0.256   7.907   8.394
   29        0.204   0.198   7.861   8.263
   30        0.259   0.296   7.836   8.391
   31        0.257   0.294   7.814   8.366
   32        0.220   0.214   7.834   8.268
   33        0.219   0.229   7.848   8.296
   34        0.199   0.166   7.836   8.201
   35        0.236   0.279   7.861   8.376
   36        0.207   0.210   7.855   8.272
   37        0.231   0.251   7.846   8.328
   38        0.227   0.238   7.802   8.267
   39        0.211   0.215   7.805   8.231
   40        0.226   0.218   7.848   8.292
   41        0.182   0.142   7.849   8.173
   42        0.181   0.154   7.868   8.204
   43        0.208   0.201   7.873   8.282
   44        0.230   0.264   7.872   8.366
   45        0.225   0.223   7.834   8.282
   46        0.208   0.200   7.822   8.230
   47        0.229   0.241   7.824   8.294
   48        0.192   0.167   7.848   8.207
   49        1.289   2.648   0.003   3.940
   50        1.291   2.604   0.001   3.896
   51        1.293   2.620   0.003   3.917
   52        1.292   2.664   0.006   3.962
   53        1.290   2.648   0.004   3.942
   54        1.293   2.660   0.006   3.960
   55        1.277   2.667   0.003   3.947
   56        1.274   2.694   0.004   3.973
   57        1.274   2.713   0.005   3.992
   58        1.283   2.668   0.003   3.955
   59        1.295   2.645   0.005   3.945
   60        1.283   2.677   0.006   3.966
   61        1.285   2.724   0.007   4.015
   62        1.283   2.671   0.003   3.957
   63        1.290   2.654   0.005   3.949
   64        1.306   2.587   0.003   3.896
   65        1.301   2.589   0.002   3.892
   66        1.288   2.653   0.004   3.945
   67        1.267   2.705   0.004   3.977
   68        1.279   2.664   0.003   3.947
   69        1.276   2.712   0.006   3.995
   70        1.275   2.722   0.007   4.004
   71        1.286   2.682   0.007   3.975
   72        1.294   2.646   0.006   3.946
   73        1.292   2.658   0.003   3.953
   74        1.290   2.624   0.002   3.915
   75        1.300   2.597   0.003   3.900
   76        1.289   2.675   0.006   3.971
   77        1.285   2.705   0.008   3.998
   78        1.294   2.641   0.005   3.941
   79        1.270   2.714   0.005   3.990
   80        1.272   2.706   0.005   3.983
   81        1.276   2.703   0.005   3.984
   82        1.269   2.742   0.006   4.017
   83        1.293   2.659   0.006   3.958
   84        1.285   2.695   0.008   3.988
   85        1.285   2.722   0.006   4.013
   86        1.283   2.667   0.003   3.953
   87        1.284   2.690   0.007   3.981
   88        1.302   2.605   0.004   3.911
   89        1.298   2.606   0.003   3.908
   90        1.284   2.708   0.008   4.000
   91        1.267   2.716   0.005   3.988
   92        1.273   2.691   0.004   3.968
   93        1.276   2.707   0.005   3.988
   94        1.269   2.732   0.006   4.007
   95        1.290   2.664   0.006   3.960
   96        1.293   2.646   0.005   3.945
   97        1.294   2.653   0.004   3.951
   98        1.289   2.624   0.002   3.914
   99        1.295   2.614   0.004   3.913
  100        1.289   2.703   0.009   4.002
  101        1.286   2.685   0.006   3.977
  102        1.291   2.642   0.005   3.937
  103        1.275   2.695   0.004   3.974
  104        1.281   2.658   0.003   3.943
  105        1.278   2.681   0.004   3.963
  106        1.274   2.732   0.006   4.012
  107        1.289   2.671   0.007   3.966
  108        1.288   2.668   0.006   3.963
  109        1.287   2.686   0.004   3.978
  110        1.284   2.654   0.003   3.940
  111        1.284   2.685   0.006   3.975
  112        1.298   2.604   0.003   3.905
  113        1.294   2.623   0.004   3.921
  114        1.281   2.728   0.009   4.017
  115        1.275   2.659   0.002   3.937
  116        1.273   2.703   0.005   3.980
  117        1.274   2.714   0.005   3.994
  118        1.279   2.681   0.004   3.964
  119        1.292   2.662   0.007   3.960
  120        1.292   2.636   0.004   3.932
--------------------------------------------------
tot         102.93  202.80  376.99  682.71
 
magnetization (x)
 
# of ion       s       p       d       tot
------------------------------------------
    1       -0.003  -0.009  -1.148  -1.159
    2        0.001   0.012   1.363   1.377
    3        0.003   0.003   0.329   0.334
    4        0.000   0.003   0.292   0.295
    5       -0.001   0.005   0.295   0.299
    6        0.001   0.004   1.146   1.151
    7        0.000   0.002   0.935   0.938
    8       -0.003   0.011   0.635   0.643
    9       -0.000   0.005   0.611   0.615
   10        0.008   0.011   1.194   1.213
   11        0.002   0.001   0.464   0.466
   12        0.001   0.002   0.057   0.059
   13        0.005   0.011   1.112   1.128
   14       -0.002   0.007   0.959   0.964
   15       -0.002  -0.001   0.012   0.009
   16       -0.001   0.010   1.327   1.336
   17        0.001   0.008   0.867   0.876
   18        0.001   0.009   1.081   1.091
   19       -0.002   0.001  -0.519  -0.520
   20       -0.002   0.003  -0.410  -0.410
   21       -0.000   0.012   0.819   0.830
   22        0.000   0.004   0.938   0.942
   23        0.002   0.003   0.614   0.619
   24       -0.001   0.009   0.133   0.141
   25       -0.002  -0.005  -1.229  -1.236
   26        0.005   0.009   1.065   1.079
   27       -0.004  -0.002  -0.791  -0.797
   28       -0.003   0.001  -0.491  -0.494
   29       -0.001   0.006   0.904   0.910
   30       -0.001   0.008   0.195   0.202
   31       -0.002   0.007   0.247   0.252
   32       -0.004   0.011   1.211   1.217
   33        0.000   0.003   0.285   0.289
   34        0.006   0.011   1.371   1.388
   35       -0.000   0.001  -0.123  -0.123
   36        0.002   0.004   0.587   0.593
   37        0.001   0.008   0.568   0.576
   38       -0.000   0.003   0.755   0.757
   39       -0.000   0.001   0.183   0.184
   40        0.001   0.016   1.045   1.062
   41        0.004   0.009   1.376   1.390
   42       -0.001  -0.006  -1.223  -1.230
   43        0.010   0.004   0.778   0.792
   44       -0.000   0.001  -0.146  -0.146
   45        0.000   0.011   1.016   1.027
   46       -0.001   0.008   1.182   1.189
   47        0.002   0.008   0.685   0.695
   48       -0.003   0.009   0.801   0.807
   49        0.004   0.078   0.000   0.082
   50        0.008   0.273   0.000   0.282
   51        0.014   0.559   0.000   0.573
   52       -0.003  -0.232   0.000  -0.235
   53        0.006   0.204   0.000   0.210
   54        0.008   0.317  -0.000   0.325
   55        0.008   0.195   0.000   0.203
   56        0.005   0.038   0.000   0.043
   57        0.004   0.025   0.000   0.029
   58        0.002  -0.031   0.000  -0.028
   59        0.011   0.521  -0.000   0.532
   60        0.011   0.462  -0.000   0.474
   61        0.001   0.003   0.000   0.004
   62        0.000   0.002   0.000   0.002
   63        0.008   0.308  -0.000   0.316
   64        0.010   0.438  -0.000   0.447
   65        0.010   0.407  -0.000   0.417
   66        0.002  -0.035   0.000  -0.033
   67        0.015   0.216   0.000   0.231
   68        0.005   0.053   0.000   0.058
   69        0.006   0.066   0.000   0.072
   70        0.004  -0.011   0.000  -0.007
   71        0.013   0.543  -0.000   0.555
   72        0.011   0.534  -0.000   0.544
   73       -0.000   0.004  -0.000   0.003
   74        0.002  -0.002   0.000  -0.000
   75        0.010   0.437  -0.000   0.448
   76        0.006   0.211  -0.000   0.217
   77        0.004   0.104   0.000   0.108
   78        0.007   0.243   0.000   0.249
   79        0.008   0.113   0.000   0.122
   80        0.006   0.041   0.000   0.047
   81        0.001  -0.026   0.000  -0.026
   82       -0.001  -0.018   0.000  -0.018
   83        0.010   0.462  -0.000   0.472
   84        0.010   0.416  -0.000   0.425
   85       -0.002  -0.023  -0.000  -0.025
   86        0.003   0.010   0.000   0.013
   87        0.005   0.167  -0.000   0.172
   88       -0.006  -0.358   0.000  -0.365
   89        0.004   0.180  -0.000   0.184
   90        0.003   0.062   0.000   0.065
   91        0.006   0.041   0.000   0.046
   92        0.000   0.004   0.000   0.005
   93        0.001  -0.030   0.000  -0.030
   94        0.001  -0.007   0.000  -0.007
   95        0.013   0.548  -0.000   0.561
   96        0.006   0.311  -0.000   0.317
   97        0.001   0.023   0.000   0.025
   98        0.003   0.112   0.000   0.115
   99        0.013   0.539  -0.000   0.551
  100        0.006   0.180   0.000   0.186
  101        0.006   0.158   0.000   0.164
  102        0.008   0.283   0.000   0.292
  103        0.008   0.143   0.000   0.152
  104        0.001   0.054  -0.000   0.055
  105        0.004   0.021   0.000   0.025
  106        0.004   0.045   0.000   0.049
  107        0.011   0.511  -0.000   0.523
  108        0.008   0.366  -0.000   0.373
  109        0.002  -0.004   0.000  -0.003
  110       -0.002  -0.091   0.000  -0.092
  111        0.000  -0.085   0.000  -0.085
  112        0.012   0.522  -0.000   0.534
  113        0.010   0.361   0.000   0.371
  114        0.005   0.117   0.000   0.122
  115        0.003   0.020   0.000   0.023
  116        0.005   0.080   0.000   0.085
  117        0.003   0.023   0.000   0.027
  118        0.003   0.003   0.000   0.006
  119        0.013   0.556  -0.000   0.569
  120        0.011   0.507  -0.000   0.519
--------------------------------------------------
tot           0.41   12.52   23.36   36.29
 

 total amount of memory used by VASP MPI-rank0   650119. kBytes
=======================================================================

   base      :      30000. kBytes
   nonlr-proj:      67654. kBytes
   fftplans  :      13422. kBytes
   grid      :      76344. kBytes
   one-center:       3732. kBytes
   wavefun   :     458967. kBytes
 
  
  
 General timing and accounting informations for this job:
 ========================================================
  
                  Total CPU time used (sec):    17943.666
                            User time (sec):    17927.618
                          System time (sec):       16.047
                         Elapsed time (sec):    17991.264
  
                   Maximum memory used (kb):      765980.
                   Average memory used (kb):           0.
  
                          Minor page faults:        44891
                          Major page faults:           19
                 Voluntary context switches:         1205
