 vasp.5.4.4.18Apr17-6-g9f103f2a35 (build May 12 2020 04:58:55) complex          
  
 MD_VERSION_INFO: Compiled 2020-05-12T11:58:55-UTC in devlin.sd.materialsdesign.
 com:/home/medea2/data/build/wwolf/vasp-gpu5.4.4/13047/x86_64/src/src/build/std 
 from svn 13047
 
 This VASP executable licensed from Materials Design, Inc.
 
 executed on                        Lin64 date 2023.03.25  01:44:22
 running on   16 total cores
 distrk:  each k-point on   16 cores,    1 groups
 distr:  one band on NCORES_PER_BAND=   1 cores,   16 groups


--------------------------------------------------------------------------------------------------------


 INCAR:
 POTCAR:    PAW_PBE Ni 02Aug2007                  
 POTCAR:    PAW_PBE O 08Apr2002                   

 ----------------------------------------------------------------------------- 
|                                                                             |
|           W    W    AA    RRRRR   N    N  II  N    N   GGGG   !!!           |
|           W    W   A  A   R    R  NN   N  II  NN   N  G    G  !!!           |
|           W    W  A    A  R    R  N N  N  II  N N  N  G       !!!           |
|           W WW W  AAAAAA  RRRRR   N  N N  II  N  N N  G  GGG   !            |
|           WW  WW  A    A  R   R   N   NN  II  N   NN  G    G                |
|           W    W  A    A  R    R  N    N  II  N    N   GGGG   !!!           |
|                                                                             |
|      For optimal performance we recommend to set                            |
|        NCORE= 4 - approx SQRT( number of cores)                             |
|      NCORE specifies how many cores store one orbital (NPAR=cpu/NCORE).     |
|      This setting can  greatly improve the performance of VASP for DFT.     |
|      The default,   NCORE=1            might be grossly inefficient         |
|      on modern multi-core architectures or massively parallel machines.     |
|      Do your own testing !!!!                                               |
|      Unfortunately you need to use the default for GW and RPA calculations. |
|      (for HF NCORE is supported but not extensively tested yet)             |
|                                                                             |
 ----------------------------------------------------------------------------- 

 POTCAR:    PAW_PBE Ni 02Aug2007                  
  local pseudopotential read in
  partial core-charges read in
  partial kinetic energy density read in
  atomic valenz-charges read in
  non local Contribution for L=           2  read in
    real space projection operators read in
  non local Contribution for L=           2  read in
    real space projection operators read in
  non local Contribution for L=           0  read in
    real space projection operators read in
  non local Contribution for L=           0  read in
    real space projection operators read in
  non local Contribution for L=           1  read in
    real space projection operators read in
  non local Contribution for L=           1  read in
    real space projection operators read in
    PAW grid and wavefunctions read in
 
   number of l-projection  operators is LMAX  =           6
   number of lm-projection operators is LMMAX =          18
 
 POTCAR:    PAW_PBE O 08Apr2002                   
  local pseudopotential read in
  partial core-charges read in
  partial kinetic energy density read in
  kinetic energy density of atom read in
  atomic valenz-charges read in
  non local Contribution for L=           0  read in
    real space projection operators read in
  non local Contribution for L=           0  read in
    real space projection operators read in
  non local Contribution for L=           1  read in
    real space projection operators read in
  non local Contribution for L=           1  read in
    real space projection operators read in
    PAW grid and wavefunctions read in
 
   number of l-projection  operators is LMAX  =           4
   number of lm-projection operators is LMMAX =           8
 
 Optimization of the real space projectors (new method)

 maximal supplied QI-value         = 16.25
 optimisation between [QCUT,QGAM] = [ 11.38, 22.75] = [ 36.24,144.96] Ry 
 Optimized for a Real-space Cutoff    1.47 Angstroem

   l    n(q)    QCUT    max X(q) W(low)/X(q) W(high)/X(q)  e(spline) 
   2      9    11.376    60.317    0.17E-03    0.16E-04    0.16E-06
   2      9    11.376    55.921    0.17E-03    0.16E-04    0.17E-06
   0     10    11.376    51.690    0.45E-04    0.60E-04    0.21E-06
   0     10    11.376    30.015    0.37E-04    0.55E-04    0.19E-06
   1     10    11.376    18.849    0.83E-04    0.11E-03    0.92E-07
   1     10    11.376    14.624    0.69E-04    0.92E-04    0.82E-07
 Optimization of the real space projectors (new method)

 maximal supplied QI-value         = 24.76
 optimisation between [QCUT,QGAM] = [ 11.39, 22.77] = [ 36.31,145.25] Ry 
 Optimized for a Real-space Cutoff    1.10 Angstroem

   l    n(q)    QCUT    max X(q) W(low)/X(q) W(high)/X(q)  e(spline) 
   0      7    11.387    20.381    0.22E-03    0.48E-03    0.18E-06
   0      7    11.387    15.268    0.22E-03    0.52E-03    0.19E-06
   1      7    11.387     5.964    0.22E-03    0.73E-03    0.24E-06
   1      7    11.387     5.382    0.19E-03    0.60E-03    0.21E-06

 ----------------------------------------------------------------------------- 
|                                                                             |
|  ADVICE TO THIS USER RUNNING 'VASP/VAMP'   (HEAR YOUR MASTER'S VOICE ...):  |
|                                                                             |
|      You enforced a specific xc-type in the INCAR file,                     |
|      a different type was found on the POTCAR file                          |
|          I HOPE YOU KNOW, WHAT YOU ARE  DOING                               |
|                                                                             |
 ----------------------------------------------------------------------------- 

  PAW_PBE Ni 02Aug2007                  :
 energy of atom  1       EATOM=-1077.6739
 kinetic energy error for atom=    0.0030 (will be added to EATOM!!)
  PAW_PBE O 08Apr2002                   :
 energy of atom  2       EATOM= -432.3788
 kinetic energy error for atom=    0.0224 (will be added to EATOM!!)
 
 
 POSCAR: Ni2O3_Cmcm_scale_1_025_disp_0_20_round_1
  positions in direct lattice
  No initial velocities read in
 exchange correlation table for  LEXCH =       14
   RHO(1)=    0.500       N(1)  =     2000
   RHO(2)=  100.500       N(2)  =     4000
 


--------------------------------------------------------------------------------------------------------


 ion  position               nearest neighbor table
   1  0.029  0.348  0.054-  62 1.54  56 1.62  52 1.82 104 2.26 110 2.41  55 2.51   7 2.88  17 2.91
                            15 2.94   2 3.08
   2  0.171  0.138  0.929-  56 2.06  51 2.10  74 2.15  50 2.26  79 2.27  55 2.28   8 2.94   1 3.08

   3  0.996  0.359  0.453-  53 1.91  58 1.97  57 1.98  61 1.99 109 2.27 105 2.46  36 2.89  37 2.89
                            46 2.91  35 2.91  12 2.92  19 2.95   4 3.03   5 3.07
   4  0.190  0.145  0.538-  73 1.79  54 1.81  49 1.89  57 2.08  82 2.13  58 2.14  20 2.60   5 2.75
                            11 2.83  19 2.89   3 3.03
   5  0.150  0.376  0.636-  59 1.49  58 1.63  66 1.98  90 2.15  82 2.21  61 2.24   4 2.75  21 2.83
                            28 2.96   8 3.03   3 3.07
   6  0.988  0.086  0.352-  60 1.80  57 2.18 105 2.19  65 2.27 113 2.38  49 2.40
   7  0.995  0.081  0.125-  50 2.00  60 2.07  56 2.10  64 2.24 112 2.25 104 2.41  23 2.62  41 2.85
                             1 2.88  39 2.92
   8  0.173  0.400  0.838-  59 1.75  87 1.82  63 1.99  79 2.34  55 2.41  24 2.92   2 2.94  26 2.98
                             5 3.03
   9  0.171  0.818  0.051-  68 1.78  64 2.01  92 2.02  67 2.13  50 2.35  15 2.65  26 2.95  41 3.00

  10  0.941  0.636  0.918- 115 1.56  63 1.70 110 1.84  16 2.48  40 2.69  42 2.87  41 3.09
  11  0.159  0.877  0.477-  49 1.82  70 1.99  73 2.08  69 2.40  65 2.41  29 2.69  13 2.76   4 2.83
                            27 2.97  12 3.07  43 3.07
  12  0.996  0.623  0.540-  70 1.60 118 1.72  69 1.99  61 2.00  66 2.09 109 2.40  28 2.72  43 2.90
                             3 2.92  37 3.00  46 3.01  11 3.07
  13  0.981  0.915  0.626-  71 1.75  54 2.04  49 2.18 102 2.20  70 2.31 118 2.42  11 2.76  43 2.96
                            36 3.04
  14  0.167  0.600  0.340-  72 1.37  77 1.90  93 2.17  69 2.21  53 2.24  30 2.36  46 2.79
  15  0.186  0.581  0.132-  76 1.67  52 1.72  72 1.95  92 1.95  68 2.24  62 2.35   9 2.65  31 2.79
                             1 2.94  17 3.03
  16  0.018  0.853  0.852-  67 1.85  71 2.07 115 2.23  51 2.45  10 2.48  32 2.88  48 2.98
  17  0.349  0.371  0.021-  86 1.28  79 1.91  80 2.07  76 2.12  62 2.27  56 2.51  33 2.64  31 2.77
                            24 2.88   1 2.91  26 2.93  18 2.96  15 3.03
  18  0.521  0.137  0.955-  80 1.89 103 1.91  98 2.03  79 2.12  74 2.15  34 2.35  33 2.76  17 2.96
                            39 3.03  24 3.05
  19  0.326  0.367  0.443-  77 1.67  85 1.97  57 2.18  61 2.18  82 2.20  81 2.43  30 2.81  28 2.84
                             4 2.89   3 2.95  22 2.99  20 2.99  35 3.08
  20  0.481  0.141  0.537-  82 1.94  73 1.96  78 2.00 106 2.07  81 2.27  97 2.52   4 2.60  22 2.81
                            19 2.99  35 2.99  36 3.04
  21  0.465  0.399  0.652-  90 1.41  83 1.44 114 1.67  82 1.83 106 2.22   5 2.83  28 2.97  24 3.00
                            37 3.06  44 3.08
  22  0.370  0.094  0.364-  81 1.71  89 2.02  73 2.08  84 2.14  65 2.49  57 2.50  38 2.51  27 2.52
                            20 2.81  19 2.99
  23  0.286  0.086  0.145-  64 1.70  84 2.03  88 2.22  74 2.27  56 2.31  80 2.34   7 2.62
  24  0.499  0.400  0.851- 111 1.79  79 1.87  87 2.00 103 2.29  86 2.37  83 2.50  42 2.68  17 2.88
                             8 2.92  21 3.00  26 3.00  40 3.01  18 3.05
  25  0.520  0.842  0.030-  98 1.78 116 1.82  88 2.14  91 2.15  92 2.32  74 2.49  41 2.86  42 2.90
                            48 2.96  39 3.01
  26  0.323  0.630  0.929-  91 1.74  87 1.85  67 2.04  92 2.17  86 2.41  42 2.66  32 2.84  17 2.93
                             9 2.95   8 2.98  24 3.00
  27  0.476  0.873  0.417-  89 1.45  93 2.00  94 2.22  97 2.32  73 2.35 117 2.42  38 2.51  22 2.52
                            30 2.93  11 2.97
  28  0.300  0.605  0.547-  90 1.92  61 1.92  70 2.13  85 2.14  93 2.45  94 2.46  12 2.72  29 2.82
                            19 2.84   5 2.96  21 2.97  44 2.99
  29  0.328  0.861  0.625-  95 1.63  78 1.98  94 2.14  54 2.31  70 2.44  45 2.48  11 2.69  28 2.82

  30  0.430  0.597  0.354-  93 1.47  96 1.48  77 2.02  85 2.19 117 2.30  14 2.36  19 2.81  27 2.93
                            44 3.00
  31  0.497  0.556  0.128-  76 1.90 100 1.95  92 2.10  86 2.15 116 2.16  96 2.40  33 2.68  47 2.77
                            17 2.77  15 2.79
  32  0.339  0.887  0.848-  67 1.90  95 1.97  75 2.02  51 2.16  91 2.29  26 2.84  16 2.88
  33  0.641  0.356  0.043- 100 1.52 104 1.97  86 1.99  80 2.16 103 2.52  17 2.64  31 2.68  18 2.76
                            47 2.87  34 2.94
  34  0.782  0.145  0.934- 103 1.51  99 2.12  55 2.15  18 2.35  98 2.36  33 2.94  48 2.99
  35  0.670  0.357  0.456- 106 1.78 109 1.81 105 2.07  85 2.26  81 2.30 101 2.38  44 2.40  37 2.53
                            36 2.74   3 2.91  20 2.99  19 3.08
  36  0.821  0.150  0.538- 102 2.00 105 2.01 106 2.26  97 2.30  49 2.40  58 2.41  37 2.68  35 2.74
                             3 2.89  20 3.04  13 3.04
  37  0.798  0.400  0.604- 114 1.72 106 1.92  66 1.93 109 2.20 107 2.31  58 2.35  35 2.53  44 2.67
                            36 2.68   3 2.89  12 3.00  21 3.06
  38  0.645  0.046  0.347-  89 1.59 108 1.74 113 1.83  81 2.09  97 2.24 105 2.24  22 2.51  27 2.51

  39  0.668  0.067  0.132- 112 1.83  88 1.93  98 2.02 108 2.18 104 2.29  80 2.46  41 2.86   7 2.92
                            25 3.01  18 3.03
  40  0.830  0.433  0.819- 107 1.41 111 1.81  63 1.84  55 2.36  10 2.69  24 3.01  42 3.04
  41  0.839  0.863  0.045- 112 2.14  50 2.16  68 2.17  98 2.21 115 2.30 116 2.37   7 2.85  39 2.86
                            25 2.86   9 3.00  48 3.07  10 3.09
  42  0.620  0.627  0.913-  91 1.55 111 1.94 115 2.16 116 2.50  26 2.66  24 2.68  48 2.69  10 2.87
                            25 2.90  40 3.04
  43  0.819  0.838  0.461- 118 1.78  97 1.90  69 2.14 113 2.14 117 2.30  12 2.90  13 2.96  46 3.00
                            11 3.07
  44  0.630  0.577  0.516-  85 1.64 117 1.71 109 1.81 114 2.11  94 2.29  35 2.40  37 2.67  28 2.99
                            30 3.00  21 3.08
  45  0.605  0.867  0.623- 119 1.61  94 1.71  78 1.73 102 2.32  97 2.36  29 2.48
  46  0.857  0.581  0.358- 120 1.43  53 1.81  69 1.98 109 1.98 101 2.22 117 2.39  14 2.79   3 2.91
                            43 3.00  12 3.01
  47  0.807  0.568  0.128- 110 2.06 100 2.15 120 2.18 116 2.20  68 2.48  52 2.50  31 2.77  33 2.87

  48  0.686  0.879  0.861- 115 1.92  99 2.06 119 2.39  75 2.43  91 2.49  98 2.50  42 2.69  25 2.96
                            16 2.98  34 2.99  41 3.07
  49  0.041  0.020  0.503-  11 1.82   4 1.89  13 2.18   6 2.40  36 2.40
  50  0.018  0.996  0.004-   7 2.00  41 2.16   2 2.26   9 2.35
  51  0.181  0.039  0.805-   2 2.10  32 2.16  16 2.45
  52  0.056  0.456  0.151-  15 1.72   1 1.82  47 2.50
  53  0.986  0.444  0.338-  46 1.81   3 1.91  14 2.24
  54  0.161  0.039  0.636-   4 1.81  13 2.04  29 2.31
  55  0.969  0.270  0.898-  34 2.15   2 2.28  40 2.36   8 2.41   1 2.51
  56  0.134  0.216  0.055-   1 1.62   2 2.06   7 2.10  23 2.31  17 2.51
  57  0.145  0.226  0.413-   3 1.98   4 2.08   6 2.18  19 2.18  22 2.50
  58  0.029  0.294  0.576-   5 1.63   3 1.97   4 2.14  37 2.35  36 2.41
  59  0.159  0.329  0.731-   5 1.49   8 1.75
  60  0.016  0.175  0.248-   6 1.80   7 2.07
  61  0.147  0.485  0.505-  28 1.92   3 1.99  12 2.00  19 2.18   5 2.24
  62  0.116  0.459  0.004-   1 1.54  17 2.27  15 2.35
  63  0.003  0.530  0.837-  10 1.70  40 1.84   8 1.99
  64  0.184  0.942  0.157-  23 1.70   9 2.01   7 2.24
  65  0.170  0.933  0.320-   6 2.27  11 2.41  22 2.49
  66  0.972  0.493  0.649-  37 1.93   5 1.98  12 2.09
  67  0.187  0.792  0.910-  16 1.85  32 1.90  26 2.04   9 2.13
  68  0.012  0.717  0.074-   9 1.78  41 2.17  15 2.24  47 2.48
  69  0.995  0.707  0.419-  46 1.98  12 1.99  43 2.14  14 2.21  11 2.40
  70  0.114  0.736  0.567-  12 1.60  11 1.99  28 2.13  13 2.31  29 2.44
  71  0.009  0.807  0.717-  13 1.75  16 2.07
  72  0.178  0.646  0.255-  14 1.37  15 1.95
  73  0.319  0.026  0.492-   4 1.79  20 1.96  11 2.08  22 2.08  27 2.35
  74  0.334  0.022  0.002-   2 2.15  18 2.15  23 2.27  25 2.49
  75  0.490  0.995  0.778-  32 2.02  48 2.43
  76  0.315  0.462  0.148-  15 1.67  31 1.90  17 2.12
  77  0.287  0.442  0.346-  19 1.67  14 1.90  30 2.02
  78  0.484  0.002  0.634-  45 1.73  29 1.98  20 2.00
  79  0.366  0.282  0.908-  24 1.87  17 1.91  18 2.12   2 2.27   8 2.34
  80  0.469  0.208  0.068-  18 1.89  17 2.07  33 2.16  23 2.34  39 2.46
  81  0.509  0.204  0.392-  22 1.71  38 2.09  20 2.27  35 2.30  19 2.43
  82  0.355  0.286  0.579-  21 1.83  20 1.94   4 2.13  19 2.20   5 2.21
  83  0.558  0.305  0.700-  21 1.44  24 2.50
  84  0.298  0.212  0.252-  23 2.03  22 2.14
  85  0.478  0.499  0.482-  44 1.64  19 1.97  28 2.14  30 2.19  35 2.26
  86  0.457  0.452  0.004-  17 1.28  33 1.99  31 2.15  24 2.37  26 2.41
  87  0.324  0.521  0.828-   8 1.82  26 1.85  24 2.00
  88  0.491  0.959  0.149-  39 1.93  25 2.14  23 2.22
  89  0.512  0.942  0.335-  27 1.45  38 1.59  22 2.02
  90  0.349  0.496  0.648-  21 1.41  28 1.92   5 2.15
  91  0.484  0.724  0.912-  42 1.55  26 1.74  25 2.15  32 2.29  48 2.49
  92  0.339  0.685  0.069-  15 1.95   9 2.02  31 2.10  26 2.17  25 2.32
  93  0.353  0.707  0.401-  30 1.47  27 2.00  14 2.17  28 2.45
  94  0.504  0.772  0.549-  45 1.71  29 2.14  27 2.22  44 2.29  28 2.46
  95  0.325  0.806  0.728-  29 1.63  32 1.97
  96  0.481  0.663  0.271-  30 1.48  31 2.40
  97  0.678  0.974  0.488-  43 1.90  38 2.24  36 2.30  27 2.32  45 2.36  20 2.52
  98  0.638  0.983  0.010-  25 1.78  39 2.02  18 2.03  41 2.21  34 2.36  48 2.50
  99  0.796  0.044  0.809-  48 2.06  34 2.12
 100  0.643  0.411  0.138-  33 1.52  31 1.95  47 2.15
 101  0.662  0.461  0.313-  46 2.22  35 2.38
 102  0.778  0.037  0.645-  36 2.00  13 2.20  45 2.32
 103  0.670  0.241  0.894-  34 1.51  18 1.91  24 2.29  33 2.52
 104  0.809  0.250  0.092-  33 1.97   1 2.26  39 2.29   7 2.41
 105  0.800  0.199  0.408-  36 2.01  35 2.07   6 2.19  38 2.24   3 2.46
 106  0.630  0.295  0.565-  35 1.78  37 1.92  20 2.07  21 2.22  36 2.26
 107  0.845  0.337  0.750-  40 1.41  37 2.31
 108  0.624  0.161  0.261-  38 1.74  39 2.18
 109  0.796  0.497  0.472-  35 1.81  44 1.81  46 1.98  37 2.20   3 2.27  12 2.40
 110  0.859  0.516  0.998-  10 1.84  47 2.06   1 2.41
 111  0.646  0.507  0.812-  24 1.79  40 1.81  42 1.94
 112  0.808  0.948  0.175-  39 1.83  41 2.14   7 2.25
 113  0.796  0.924  0.331-  38 1.83  43 2.14   6 2.38
 114  0.631  0.470  0.637-  21 1.67  37 1.72  44 2.11
 115  0.821  0.749  0.911-  10 1.56  48 1.92  42 2.16  16 2.23  41 2.30
 116  0.642  0.708  0.072-  25 1.82  31 2.16  47 2.20  41 2.37  42 2.50
 117  0.641  0.681  0.424-  44 1.71  43 2.30  30 2.30  46 2.39  27 2.42
 118  0.848  0.731  0.556-  12 1.72  43 1.78  13 2.42
 119  0.659  0.791  0.713-  45 1.61  48 2.39
 120  0.846  0.624  0.267-  46 1.43  47 2.18
 
  LATTYP: Found a simple orthorhombic cell.
 ALAT       =     8.9259767500
 B/A-ratio  =     1.1146370060
 C/A-ratio  =     1.6738812646
  
  Lattice vectors:
  
 A1 = (   8.9259767500,   0.0000000000,   0.0000000000)
 A2 = (   0.0000000000,   9.9492240000,   0.0000000000)
 A3 = (   0.0000000000,   0.0000000000,  14.9410252500)


Analysis of symmetry for initial positions (statically):
=====================================================================
 Subroutine PRICEL returns:
 Original cell was already a primitive cell.
 

 Routine SETGRP: Setting up the symmetry group for a 
 simple orthorhombic supercell.


 Subroutine GETGRP returns: Found  1 space group operations
 (whereof  1 operations were pure point group operations)
 out of a pool of  8 trial point group operations.


The static configuration has the point symmetry C_1 .


Analysis of symmetry for dynamics (positions and initial velocities):
=====================================================================
 Subroutine PRICEL returns:
 Original cell was already a primitive cell.
 

 Routine SETGRP: Setting up the symmetry group for a 
 simple orthorhombic supercell.


 Subroutine GETGRP returns: Found  1 space group operations
 (whereof  1 operations were pure point group operations)
 out of a pool of  8 trial point group operations.


The dynamic configuration has the point symmetry C_1 .


Analysis of structural, dynamic, and magnetic symmetry:
=====================================================================
 Subroutine PRICEL returns:
 Original cell was already a primitive cell.
 

 Routine SETGRP: Setting up the symmetry group for a 
 simple orthorhombic supercell.


 Subroutine GETGRP returns: Found  1 space group operations
 (whereof  1 operations were pure point group operations)
 out of a pool of  8 trial point group operations.


The magnetic configuration has the point symmetry C_1 .


 Subroutine INISYM returns: Found  1 space group operations
 (whereof  1 operations are pure point group operations),
 and found     1 'primitive' translations

 
 
 KPOINTS: Automatic mesh                          

Automatic generation of k-mesh.
Space group operators:
 irot       det(A)        alpha          n_x          n_y          n_z        tau_x        tau_y        tau_z
    1     1.000000     0.000001     1.000000     0.000000     0.000000     0.000000     0.000000     0.000000
 
 Subroutine IBZKPT returns following result:
 ===========================================
 
 Found     10 irreducible k-points:
 
 Following reciprocal coordinates:
            Coordinates               Weight
  0.000000  0.000000  0.000000      1.000000
  0.333333  0.000000  0.000000      2.000000
  0.000000  0.333333  0.000000      2.000000
  0.333333  0.333333  0.000000      2.000000
 -0.333333  0.333333  0.000000      2.000000
  0.000000  0.000000  0.500000      1.000000
  0.333333  0.000000  0.500000      2.000000
  0.000000  0.333333  0.500000      2.000000
  0.333333  0.333333  0.500000      2.000000
 -0.333333  0.333333  0.500000      2.000000
 
 Following cartesian coordinates:
            Coordinates               Weight
  0.000000  0.000000  0.000000      1.000000
  0.037344  0.000000  0.000000      2.000000
  0.000000  0.033503  0.000000      2.000000
  0.037344  0.033503  0.000000      2.000000
 -0.037344  0.033503  0.000000      2.000000
  0.000000  0.000000  0.033465      1.000000
  0.037344  0.000000  0.033465      2.000000
  0.000000  0.033503  0.033465      2.000000
  0.037344  0.033503  0.033465      2.000000
 -0.037344  0.033503  0.033465      2.000000
 


--------------------------------------------------------------------------------------------------------




 Dimension of arrays:
   k-points           NKPTS =     10   k-points in BZ     NKDIM =     10   number of bands    NBANDS=    608
   number of dos      NEDOS =    301   number of ions     NIONS =    120
   non local maximal  LDIM  =      6   non local SUM 2l+1 LMDIM =     18
   total plane-waves  NPLWV = 627200
   max r-space proj   IRMAX =   6396   max aug-charges    IRDMAX=  15520
   dimension x,y,z NGX =    70 NGY =   80 NGZ =  112
   dimension x,y,z NGXF=   140 NGYF=  160 NGZF=  224
   support grid    NGXF=   140 NGYF=  160 NGZF=  224
   ions per type =              48  72
   NGX,Y,Z   is equivalent  to a cutoff of  13.04, 13.37, 12.46 a.u.
   NGXF,Y,Z  is equivalent  to a cutoff of  26.07, 26.74, 24.92 a.u.

 SYSTEM =  unknown system                          
 POSCAR =  Ni2O3_Cmcm_scale_1_025_disp_0_20_round_1

 Startparameter for this run:
   NWRITE =      1    write-flag & timer
   PREC   = accura    normal or accurate (medium, high low for compatibility)
   ISTART =      0    job   : 0-new  1-cont  2-samecut
   ICHARG =      2    charge: 1-file 2-atom 10-const
   ISPIN  =      2    spin polarized calculation?
   LNONCOLLINEAR =      F non collinear calculations
   LSORBIT =      F    spin-orbit coupling
   INIWAV =      1    electr: 0-lowe 1-rand  2-diag
   LASPH  =      F    aspherical Exc in radial PAW
   METAGGA=      F    non-selfconsistent MetaGGA calc.

 Electronic Relaxation 1
   ENCUT  =  500.0 eV  36.75 Ry    6.06 a.u.  16.27 18.14 27.24*2*pi/ulx,y,z
   ENINI  =  500.0     initial cutoff
   ENAUG  =  605.4 eV  augmentation charge cutoff
   NELM   =     80;   NELMIN=  2; NELMDL= -5     # of ELM steps 
   EDIFF  = 0.1E-04   stopping-criterion for ELM
   LREAL  =      T    real-space projection
   NLSPLINE    = F    spline interpolate recip. space projectors
   LCOMPAT=      F    compatible to vasp.4.4
   GGA_COMPAT  = T    GGA compatible to vasp.4.4-vasp.4.6
   LMAXPAW     = -100 max onsite density
   LMAXMIX     =    2 max onsite mixed and CHGCAR
   VOSKOWN=      1    Vosko Wilk Nusair interpolation
   ROPT   =   -0.00025  -0.00025
 Ionic relaxation
   EDIFFG = 0.1E-03   stopping-criterion for IOM
   NSW    =      0    number of steps for IOM
   NBLOCK =      1;   KBLOCK =      1    inner block; outer block 
   IBRION =     -1    ionic relax: 0-MD 1-quasi-New 2-CG
   NFREE  =      0    steps in history (QN), initial steepest desc. (CG)
   ISIF   =      2    stress and relaxation
   IWAVPR =     10    prediction:  0-non 1-charg 2-wave 3-comb
   ISYM   =      2    0-nonsym 1-usesym 2-fastsym
   LCORR  =      T    Harris-Foulkes like correction to forces

   POTIM  = 0.5000    time-step for ionic-motion
   TEIN   =    0.0    initial temperature
   TEBEG  =    0.0;   TEEND  =   0.0 temperature during run
   SMASS  =  -3.00    Nose mass-parameter (am)
   estimated Nose-frequenzy (Omega)   =  0.10E-29 period in steps =****** mass=  -0.182E-26a.u.
   SCALEE = 1.0000    scale energy and forces
   NPACO  =    256;   APACO  = 16.0  distance and # of slots for P.C.
   PSTRESS=    0.0 pullay stress

  Mass of Ions in am
   POMASS =  58.69 16.00
  Ionic Valenz
   ZVAL   =  10.00  6.00
  Atomic Wigner-Seitz radii
   RWIGS  =   1.15  0.73
  virtual crystal weights 
   VCA    =   1.00  1.00
   NELECT =     912.0000    total number of electrons
   NUPDOWN=      -1.0000    fix difference up-down

 DOS related values:
   EMIN   =  10.00;   EMAX   =-10.00  energy-range for DOS
   EFERMI =   0.00
   ISMEAR =     0;   SIGMA  =   0.05  broadening in eV -4-tet -1-fermi 0-gaus

 Electronic relaxation 2 (details)
   IALGO  =     38    algorithm
   LDIAG  =      T    sub-space diagonalisation (order eigenvalues)
   LSUBROT=      F    optimize rotation matrix (better conditioning)
   TURBO    =      0    0=normal 1=particle mesh
   IRESTART =      0    0=no restart 2=restart with 2 vectors
   NREBOOT  =      0    no. of reboots
   NMIN     =      0    reboot dimension
   EREF     =   0.00    reference energy to select bands
   IMIX   =      4    mixing-type and parameters
     AMIX     =   0.40;   BMIX     =  1.00
     AMIX_MAG =   1.60;   BMIX_MAG =  1.00
     AMIN     =   0.10
     WC   =   100.;   INIMIX=   1;  MIXPRE=   1;  MAXMIX= -45

 Intra band minimization:
   WEIMIN = 0.0000     energy-eigenvalue tresh-hold
   EBREAK =  0.41E-08  absolut break condition
   DEPER  =   0.30     relativ break condition  

   TIME   =   0.40     timestep for ELM

  volume/ion in A,a.u.               =      11.06        74.62
  Fermi-wavevector in a.u.,A,eV,Ry     =   1.444768  2.730215 28.400167  2.087353
  Thomas-Fermi vector in A             =   2.563025
 
 Write flags
   LWAVE        =      F    write WAVECAR
   LDOWNSAMPLE  =      F    k-point downsampling of WAVECAR
   LCHARG       =      T    write CHGCAR
   LVTOT        =      F    write LOCPOT, total local potential
   LVHAR        =      F    write LOCPOT, Hartree potential only
   LELF         =      F    write electronic localiz. function (ELF)
   LORBIT       =      0    0 simple, 1 ext, 2 COOP (PROOUT), +10 PAW based schemes


 Dipole corrections
   LMONO  =      F    monopole corrections only (constant potential shift)
   LDIPOL =      F    correct potential (dipole corrections)
   IDIPOL =      0    1-x, 2-y, 3-z, 4-all directions 
   EPSILON=  1.0000000 bulk dielectric constant

 Exchange correlation treatment:
   GGA     =    PS    GGA type
   LEXCH   =    14    internal setting for exchange type
   VOSKOWN=      1    Vosko Wilk Nusair interpolation
   LHFCALC =     F    Hartree Fock is set to
   LHFONE  =     F    Hartree Fock one center treatment
   AEXX    =    0.0000 exact exchange contribution

 Linear response parameters
   LEPSILON=     F    determine dielectric tensor
   LRPA    =     F    only Hartree local field effects (RPA)
   LNABLA  =     F    use nabla operator in PAW spheres
   LVEL    =     F    velocity operator in full k-point grid
   LINTERFAST=   F  fast interpolation
   KINTER  =     0    interpolate to denser k-point grid
   CSHIFT  =0.1000    complex shift for real part using Kramers Kronig
   OMEGAMAX=  -1.0    maximum frequency
   DEG_THRESHOLD= 0.2000000E-02 threshold for treating states as degnerate
   RTIME   =   -0.100 relaxation time in fs
  (WPLASMAI=    0.000 imaginary part of plasma frequency in eV, 0.658/RTIME)
   DFIELD  = 0.0000000 0.0000000 0.0000000 field for delta impulse in time
 
 Orbital magnetization related:
   ORBITALMAG=     F  switch on orbital magnetization
   LCHIMAG   =     F  perturbation theory with respect to B field
   DQ        =  0.001000  dq finite difference perturbation B field
   LLRAUG    =     F  two centre corrections for induced B field



--------------------------------------------------------------------------------------------------------


 Static calculation
 charge density and potential will be updated during run
 spin polarized calculation
 Variant of blocked Davidson
 Davidson routine will perform the subspace rotation
 perform sub-space diagonalisation
    after iterative eigenvector-optimisation
 modified Broyden-mixing scheme, WC =      100.0
 initial mixing is a Kerker type mixing with AMIX =  0.4000 and BMIX =      1.0000
 Hartree-type preconditioning will be used
 using additional bands          152
 real space projection scheme for non local part
 use partial core corrections
 calculate Harris-corrections to forces 
   (improved forces if not selfconsistent)
 use gradient corrections 
 use of overlap-Matrix (Vanderbilt PP)
 Gauss-broadening in eV      SIGMA  =   0.05


--------------------------------------------------------------------------------------------------------


  energy-cutoff  :      500.00
  volume of cell :     1326.86
      direct lattice vectors                 reciprocal lattice vectors
     8.925976750  0.000000000  0.000000000     0.112032557  0.000000000  0.000000000
     0.000000000  9.949224000  0.000000000     0.000000000  0.100510351  0.000000000
     0.000000000  0.000000000 14.941025250     0.000000000  0.000000000  0.066929811

  length of vectors
     8.925976750  9.949224000 14.941025250     0.112032557  0.100510351  0.066929811


 
 k-points in units of 2pi/SCALE and weight: Automatic mesh                          
   0.00000000  0.00000000  0.00000000       0.056
   0.03734419  0.00000000  0.00000000       0.111
   0.00000000  0.03350345  0.00000000       0.111
   0.03734419  0.03350345  0.00000000       0.111
  -0.03734419  0.03350345  0.00000000       0.111
   0.00000000  0.00000000  0.03346491       0.056
   0.03734419  0.00000000  0.03346491       0.111
   0.00000000  0.03350345  0.03346491       0.111
   0.03734419  0.03350345  0.03346491       0.111
  -0.03734419  0.03350345  0.03346491       0.111
 
 k-points in reciprocal lattice and weights: Automatic mesh                          
   0.00000000  0.00000000  0.00000000       0.056
   0.33333333  0.00000000  0.00000000       0.111
   0.00000000  0.33333333  0.00000000       0.111
   0.33333333  0.33333333  0.00000000       0.111
  -0.33333333  0.33333333  0.00000000       0.111
   0.00000000  0.00000000  0.50000000       0.056
   0.33333333  0.00000000  0.50000000       0.111
   0.00000000  0.33333333  0.50000000       0.111
   0.33333333  0.33333333  0.50000000       0.111
  -0.33333333  0.33333333  0.50000000       0.111
 
 position of ions in fractional coordinates (direct lattice) 
   0.02880593  0.34839551  0.05389668
   0.17147782  0.13779823  0.92927261
   0.99598304  0.35937899  0.45318575
   0.18987480  0.14455339  0.53845770
   0.15003171  0.37586055  0.63628681
   0.98811432  0.08615002  0.35183801
   0.99468082  0.08142877  0.12476152
   0.17288339  0.40004884  0.83795076
   0.17103479  0.81791109  0.05123075
   0.94125706  0.63564723  0.91801393
   0.15878249  0.87686059  0.47662205
   0.99566703  0.62275074  0.53952300
   0.98110618  0.91461285  0.62579666
   0.16742285  0.59953090  0.34037536
   0.18628135  0.58063492  0.13179224
   0.01818695  0.85334250  0.85185282
   0.34895932  0.37111895  0.02106715
   0.52143927  0.13724471  0.95545938
   0.32605715  0.36664635  0.44345364
   0.48127022  0.14066301  0.53713660
   0.46453815  0.39851874  0.65159917
   0.36997045  0.09429453  0.36384714
   0.28621926  0.08565253  0.14521219
   0.49888997  0.39976677  0.85116221
   0.52039988  0.84165485  0.03044193
   0.32333996  0.62960011  0.92871961
   0.47593410  0.87330366  0.41711570
   0.29990589  0.60503953  0.54671952
   0.32755895  0.86142858  0.62517237
   0.43035647  0.59734872  0.35433943
   0.49726860  0.55592022  0.12779489
   0.33885226  0.88706954  0.84776887
   0.64139070  0.35623801  0.04325251
   0.78211346  0.14491787  0.93411799
   0.67043807  0.35652884  0.45589549
   0.82131646  0.15046285  0.53793257
   0.79807708  0.39969010  0.60424448
   0.64504890  0.04621711  0.34749079
   0.66815921  0.06700429  0.13213002
   0.83032391  0.43280348  0.81949105
   0.83879717  0.86287832  0.04453222
   0.62038366  0.62745839  0.91343101
   0.81897515  0.83763236  0.46089588
   0.62969147  0.57741662  0.51553016
   0.60478192  0.86671900  0.62275783
   0.85695310  0.58119452  0.35770332
   0.80726943  0.56788923  0.12763736
   0.68558453  0.87933122  0.86074701
   0.04054074  0.02036451  0.50306295
   0.01762704  0.99626837  0.00394924
   0.18089483  0.03866269  0.80515609
   0.05569141  0.45610780  0.15061842
   0.98588431  0.44420063  0.33834295
   0.16139048  0.03918044  0.63582478
   0.96928513  0.26981681  0.89806821
   0.13403883  0.21595150  0.05507646
   0.14544255  0.22600639  0.41287143
   0.02881487  0.29391706  0.57585622
   0.15936879  0.32924351  0.73120979
   0.01602449  0.17463493  0.24817088
   0.14690518  0.48454629  0.50470953
   0.11578603  0.45911947  0.00362848
   0.00346704  0.53009307  0.83663823
   0.18415196  0.94192325  0.15708564
   0.16990005  0.93345528  0.32007850
   0.97235704  0.49329332  0.64867952
   0.18730919  0.79155441  0.91030553
   0.01164646  0.71669762  0.07433102
   0.99491409  0.70675491  0.41861953
   0.11407086  0.73615632  0.56712172
   0.00902820  0.80672805  0.71686145
   0.17759375  0.64635013  0.25460772
   0.31931729  0.02622772  0.49180988
   0.33359871  0.02212358  0.00227751
   0.49040625  0.99486710  0.77808052
   0.31501505  0.46182071  0.14750785
   0.28666311  0.44150151  0.34618055
   0.48440584  0.00208968  0.63410397
   0.36627307  0.28186497  0.90837948
   0.46891386  0.20819865  0.06845914
   0.50944118  0.20385843  0.39211488
   0.35530505  0.28599319  0.57946230
   0.55798901  0.30528743  0.70039457
   0.29773223  0.21225200  0.25184703
   0.47807107  0.49863111  0.48196810
   0.45675961  0.45170492  0.00396966
   0.32426930  0.52121236  0.82800532
   0.49117973  0.95935091  0.14944298
   0.51222476  0.94209678  0.33450035
   0.34908886  0.49553308  0.64822620
   0.48433712  0.72395082  0.91151620
   0.33904011  0.68458703  0.06919826
   0.35328933  0.70699753  0.40090093
   0.50363496  0.77203439  0.54856199
   0.32539565  0.80641292  0.72773665
   0.48148626  0.66299102  0.27112804
   0.67750346  0.97365544  0.48831261
   0.63812697  0.98290191  0.01044620
   0.79578475  0.04405559  0.80929588
   0.64261185  0.41083969  0.13847431
   0.66224790  0.46050746  0.31283422
   0.77779949  0.03681708  0.64508270
   0.66966556  0.24064246  0.89414954
   0.80916694  0.25000339  0.09206499
   0.79980394  0.19899470  0.40787062
   0.63029527  0.29466164  0.56478169
   0.84505623  0.33705269  0.75018819
   0.62352513  0.16142684  0.26102757
   0.79586197  0.49684237  0.47207254
   0.85866412  0.51582468  0.99755057
   0.64583485  0.50724746  0.81248217
   0.80828226  0.94826121  0.17464302
   0.79607471  0.92395491  0.33067341
   0.63128857  0.47046782  0.63743534
   0.82066466  0.74893326  0.91118171
   0.64197643  0.70797395  0.07157800
   0.64052542  0.68086276  0.42437212
   0.84799890  0.73149743  0.55554413
   0.65930911  0.79146452  0.71256994
   0.84612768  0.62400802  0.26685829
 
 position of ions in cartesian coordinates  (Angst):
   0.25712106  3.46626497  0.80527166
   1.53060703  1.37098546 13.88428553
   8.89012146  3.57554207  6.77105973
   1.69481805  1.43819406  8.04511009
   1.33917956  3.73952080  9.50677729
   8.81988545  0.85712585  5.25682059
   8.87849787  0.81015307  1.86406502
   1.54315312  3.98017552 12.51984346
   1.52665256  8.13758065  0.76543993
   8.40163863  6.32419668 13.71606931
   1.41728881  8.72408243  7.12122208
   8.88730076  6.19588661  8.06102677
   8.75733095  9.09968812  9.35004370
   1.49441247  5.96486722  5.08555685
   1.66274300  5.77686688  1.96911119
   0.16233629  8.49009568 12.72755449
   3.11480278  3.69234556  0.31476482
   4.65435480  1.36547836 14.27554272
   2.91037854  3.64784666  6.62565203
   4.29580679  1.39948780  8.02537150
   4.14645673  3.96495221  9.73555965
   3.30234763  0.93815740  5.43624931
   2.55478646  0.85217621  2.16961900
   4.45308027  3.97736914 12.71723607
   4.64507723  8.37381263  0.45483364
   2.88612497  6.26403252 13.87602314
   4.24817671  8.68869373  6.23213621
   2.67695300  6.01967381  8.16855015
   2.92378357  8.57054590  9.34071617
   3.84135185  5.94315622  5.29419437
   4.43860796  5.53097479  1.90938668
   3.02458739  8.82565356 12.66653609
   5.72503848  3.54429176  0.64623684
   6.98112656  1.44182035 13.95668048
   5.98431463  3.54718529  6.81154603
   7.33105163  1.49698860  8.03726411
   7.12361746  3.97660634  9.02803203
   5.75769148  0.45982438  5.19186867
   5.96397357  0.66664069  1.97415797
   7.41145192  4.30605877 12.24403647
   7.48708404  8.58496969  0.66535702
   5.53753013  6.24272407 13.64759578
   7.31015315  8.33379198  6.88625698
   5.62061142  5.74484729  7.70254914
   5.39826936  8.62318148  9.30464046
   7.64914345  5.78243447  5.34445434
   7.20566816  5.65005716  1.90703302
   6.11951157  8.74866328 12.86044281
   0.36186570  0.20261107  7.51627624
   0.15733855  9.91209718  0.05900569
   1.61466305  0.38466376 12.02985747
   0.49710023  4.53791867  2.25039362
   8.79998043  4.41945157  5.05519056
   1.44056767  0.38981497  9.49987409
   8.65181653  2.68446788 13.41805980
   1.19642748  2.14854985  0.82289878
   1.29821682  2.24858820  6.16872246
   0.25720086  2.92424667  8.60388232
   1.42252211  3.27571743 10.92502394
   0.14303423  1.73748204  3.70792738
   1.31127222  4.82085958  7.54087783
   1.03350341  4.56788245  0.05421321
   0.03094672  5.27401469 12.50023292
   1.64373611  9.37140541  2.34702051
   1.51652390  9.28715567  4.78230095
   8.67923633  4.90788574  9.69193709
   1.67191748  7.87535213 13.60089791
   0.10395603  7.13058516  1.11058165
   8.88058004  7.03166291  6.25460497
   1.01819384  7.32418413  8.47337994
   0.08058550  8.02631808 10.71064503
   1.58519768  6.43068223  3.80410037
   2.85021871  0.26094546  7.34814384
   2.97769433  0.22011245  0.03402833
   4.37735479  9.89815563 11.62532070
   2.81181701  4.59475769  2.20391851
   2.55874825  4.39259742  5.17229234
   4.32379527  0.02079069  9.47416343
   3.26934491  2.80433772 13.57212075
   4.18551421  2.07141501  1.02284974
   4.54726013  2.02823318  5.85859832
   3.17144462  2.84541031  8.65776086
   4.98059693  3.03737303 10.46461296
   2.65755096  2.11174269  3.76285283
   4.26725126  4.96099261  7.20109755
   4.07702566  4.49411343  0.05931079
   2.89442023  5.18565852 12.37124839
   4.38425885  9.54479710  2.23283134
   4.57210630  9.37313189  4.99777818
   3.11595905  4.93016961  9.68516402
   4.32318187  7.20274887 13.61898656
   3.02626414  6.81110971  1.03389295
   3.15345235  7.03407679  5.98987092
   4.49543394  7.68114308  8.19607854
   2.90447401  8.02318278 10.87313166
   4.29773516  6.59624617  4.05093089
   6.04738013  9.68711607  7.29589104
   5.69590650  9.77911127  0.15607694
   7.10315618  0.43831893 12.09171018
   5.73593843  4.08753610  2.06894816
   5.91120936  4.58169187  4.67406398
   6.94262016  0.36630138  9.63819691
   5.97741922  2.39420574 13.35951085
   7.22260529  2.48733973  1.37554534
   7.13903137  1.97984285  6.09400523
   5.62600093  2.93165466  8.43841749
   7.54295226  3.35341271 11.20858069
   5.56557081  1.60607179  3.90001951
   7.10384544  4.94319603  7.05324774
   7.66441597  5.13205529 14.90442825
   5.76470686  5.04671860 12.13931662
   7.21470866  9.43446319  2.60934577
   7.10574435  9.19263437  4.94059977
   5.63486710  4.68078973  9.52393751
   7.32523367  7.45130476 13.61398894
   5.73026669  7.04379141  1.06944871
   5.71731501  6.77405611  6.34055456
   7.56921847  7.27783179  8.30039887
   5.88497779  7.87445780 10.64652547
   7.55251600  6.20839557  3.98713645
 


--------------------------------------------------------------------------------------------------------


 k-point  1 :   0.0000 0.0000 0.0000  plane waves:   33683
 k-point  2 :   0.3333 0.0000 0.0000  plane waves:   33688
 k-point  3 :   0.0000 0.3333 0.0000  plane waves:   33656
 k-point  4 :   0.3333 0.3333 0.0000  plane waves:   33676
 k-point  5 :  -0.3333 0.3333 0.0000  plane waves:   33676
 k-point  6 :   0.0000 0.0000 0.5000  plane waves:   33710
 k-point  7 :   0.3333 0.0000 0.5000  plane waves:   33628
 k-point  8 :   0.0000 0.3333 0.5000  plane waves:   33658
 k-point  9 :   0.3333 0.3333 0.5000  plane waves:   33710
 k-point 10 :  -0.3333 0.3333 0.5000  plane waves:   33710

 maximum and minimum number of plane-waves per node :     33710    33628

 maximum number of plane-waves:     33710
 maximum index in each direction: 
   IXMAX=   16   IYMAX=   18   IZMAX=   27
   IXMIN=  -16   IYMIN=  -18   IZMIN=  -27

 The following grids will avoid any aliasing or wrap around errors in the Hartre
 e energy
  - symmetry arguments have not been applied
  - exchange correlation energies might require even more grid points
  - we recommend to set PREC=Normal or Accurate and rely on VASP defaults
 NGX is ok and might be reduce to    70
 NGY is ok and might be reduce to    80
 NGZ is ok and might be reduce to   112

 serial   3D FFT for wavefunctions
 parallel 3D FFT for charge:
    minimum data exchange during FFTs selected (reduces bandwidth)


 total amount of memory used by VASP MPI-rank0   623692. kBytes
=======================================================================

   base      :      30000. kBytes
   nonlr-proj:      72746. kBytes
   fftplans  :      13422. kBytes
   grid      :      76344. kBytes
   one-center:       3732. kBytes
   wavefun   :     427448. kBytes
 
     INWAV:  cpu time    0.0000: real time    0.0000
 Broyden mixing: mesh for mixing (old mesh)
   NGX = 33   NGY = 37   NGZ = 55
  (NGX  =140   NGY  =160   NGZ  =224)
  gives a total of  67155 points

 initial charge density was supplied:
 charge density of overlapping atoms calculated
 number of electron     912.0000000 magnetization     120.0000000
 keeping initial charge density in first step


--------------------------------------------------------------------------------------------------------


 Maximum index for non-local projection operator         6181
 Maximum index for augmentation-charges         1196 (set IRDMAX)


--------------------------------------------------------------------------------------------------------


 First call to EWALD:  gamma=   0.161
 Maximum number of real-space cells 3x 3x 2
 Maximum number of reciprocal cells 2x 3x 4

    FEWALD:  cpu time    0.0068: real time    0.0069


--------------------------------------- Iteration      1(   1)  ---------------------------------------


    POTLOK:  cpu time    0.5109: real time    0.5728
    SETDIJ:  cpu time    0.0728: real time    0.0730
     EDDAV:  cpu time  191.1807: real time  191.6339
    --------------------------------------------
      LOOP:  cpu time  191.7670: real time  192.2823

 eigenvalue-minimisations  : 24320
 total energy-change (2. order) : 0.1152791E+05  (-0.3832120E+05)
 number of electron     912.0000000 magnetization     120.0000000
 augmentation part      912.0000000 magnetization     120.0000000

 Free energy of the ion-electron system (eV)
  ---------------------------------------------------
  alpha Z        PSCENC =      2828.68208838
  Ewald energy   TEWEN  =    -56063.87865338
  -Hartree energ DENC   =    -29296.63612452
  -exchange      EXHF   =         0.00000000
  -V(xc)+E(xc)   XCENC  =      3574.25158583
  PAW double counting   =     71080.72462945   -74396.17323249
  entropy T*S    EENTRO =        -0.01933031
  eigenvalues    EBANDS =     11095.14306778
  atomic energy  EATOM  =     82705.81968683
  Solvation  Ediel_sol  =         0.00000000
  ---------------------------------------------------
  free energy    TOTEN  =     11527.91371755 eV

  energy without entropy =    11527.93304787  energy(sigma->0) =    11527.92338271


--------------------------------------------------------------------------------------------------------




--------------------------------------- Iteration      1(   2)  ---------------------------------------


     EDDAV:  cpu time  195.6306: real time  196.0943
    --------------------------------------------
      LOOP:  cpu time  195.6303: real time  196.0940

 eigenvalue-minimisations  : 24320
 total energy-change (2. order) :-0.9627293E+04  (-0.8786932E+04)
 number of electron     912.0000000 magnetization     120.0000000
 augmentation part      912.0000000 magnetization     120.0000000

 Free energy of the ion-electron system (eV)
  ---------------------------------------------------
  alpha Z        PSCENC =      2828.68208838
  Ewald energy   TEWEN  =    -56063.87865338
  -Hartree energ DENC   =    -29296.63612452
  -exchange      EXHF   =         0.00000000
  -V(xc)+E(xc)   XCENC  =      3574.25158583
  PAW double counting   =     71080.72462945   -74396.17323249
  entropy T*S    EENTRO =        -0.05230458
  eigenvalues    EBANDS =      1467.88274427
  atomic energy  EATOM  =     82705.81968683
  Solvation  Ediel_sol  =         0.00000000
  ---------------------------------------------------
  free energy    TOTEN  =      1900.62041978 eV

  energy without entropy =     1900.67272436  energy(sigma->0) =     1900.64657207


--------------------------------------------------------------------------------------------------------




--------------------------------------- Iteration      1(   3)  ---------------------------------------


     EDDAV:  cpu time  193.5419: real time  194.0007
    --------------------------------------------
      LOOP:  cpu time  193.5420: real time  194.0008

 eigenvalue-minimisations  : 24912
 total energy-change (2. order) :-0.2470477E+04  (-0.2154916E+04)
 number of electron     912.0000000 magnetization     120.0000000
 augmentation part      912.0000000 magnetization     120.0000000

 Free energy of the ion-electron system (eV)
  ---------------------------------------------------
  alpha Z        PSCENC =      2828.68208838
  Ewald energy   TEWEN  =    -56063.87865338
  -Hartree energ DENC   =    -29296.63612452
  -exchange      EXHF   =         0.00000000
  -V(xc)+E(xc)   XCENC  =      3574.25158583
  PAW double counting   =     71080.72462945   -74396.17323249
  entropy T*S    EENTRO =        -0.17245509
  eigenvalues    EBANDS =     -1002.47412426
  atomic energy  EATOM  =     82705.81968683
  Solvation  Ediel_sol  =         0.00000000
  ---------------------------------------------------
  free energy    TOTEN  =      -569.85659926 eV

  energy without entropy =     -569.68414417  energy(sigma->0) =     -569.77037171


--------------------------------------------------------------------------------------------------------




--------------------------------------- Iteration      1(   4)  ---------------------------------------


     EDDAV:  cpu time  206.4856: real time  206.9759
    --------------------------------------------
      LOOP:  cpu time  206.4858: real time  206.9761

 eigenvalue-minimisations  : 27088
 total energy-change (2. order) :-0.3523293E+03  (-0.3345209E+03)
 number of electron     912.0000000 magnetization     120.0000000
 augmentation part      912.0000000 magnetization     120.0000000

 Free energy of the ion-electron system (eV)
  ---------------------------------------------------
  alpha Z        PSCENC =      2828.68208838
  Ewald energy   TEWEN  =    -56063.87865338
  -Hartree energ DENC   =    -29296.63612452
  -exchange      EXHF   =         0.00000000
  -V(xc)+E(xc)   XCENC  =      3574.25158583
  PAW double counting   =     71080.72462945   -74396.17323249
  entropy T*S    EENTRO =        -0.18206535
  eigenvalues    EBANDS =     -1354.79381974
  atomic energy  EATOM  =     82705.81968683
  Solvation  Ediel_sol  =         0.00000000
  ---------------------------------------------------
  free energy    TOTEN  =      -922.18590500 eV

  energy without entropy =     -922.00383965  energy(sigma->0) =     -922.09487233


--------------------------------------------------------------------------------------------------------




--------------------------------------- Iteration      1(   5)  ---------------------------------------


     EDDAV:  cpu time  194.9253: real time  195.3871
    CHARGE:  cpu time    7.7886: real time    7.8071
    MIXING:  cpu time    0.0078: real time    0.0079
    --------------------------------------------
      LOOP:  cpu time  202.7191: real time  203.1995

 eigenvalue-minimisations  : 26784
 total energy-change (2. order) :-0.1271266E+02  (-0.1256312E+02)
 number of electron     911.9999979 magnetization     122.9182680
 augmentation part      299.6517231 magnetization      89.2305964

 Broyden mixing:
  rms(total) = 0.19882E+02    rms(broyden)= 0.19881E+02
  rms(prec ) = 0.21481E+02
  weight for this iteration     100.00

 Free energy of the ion-electron system (eV)
  ---------------------------------------------------
  alpha Z        PSCENC =      2828.68208838
  Ewald energy   TEWEN  =    -56063.87865338
  -Hartree energ DENC   =    -29296.63612452
  -exchange      EXHF   =         0.00000000
  -V(xc)+E(xc)   XCENC  =      3574.25158583
  PAW double counting   =     71080.72462945   -74396.17323249
  entropy T*S    EENTRO =        -0.18603110
  eigenvalues    EBANDS =     -1367.50251363
  atomic energy  EATOM  =     82705.81968683
  Solvation  Ediel_sol  =         0.00000000
  ---------------------------------------------------
  free energy    TOTEN  =      -934.89856464 eV

  energy without entropy =     -934.71253354  energy(sigma->0) =     -934.80554909


--------------------------------------------------------------------------------------------------------




--------------------------------------- Iteration      1(   6)  ---------------------------------------


    POTLOK:  cpu time    0.3841: real time    0.3851
    SETDIJ:  cpu time    0.0471: real time    0.0472
     EDDAV:  cpu time  238.6135: real time  239.1790
    CHARGE:  cpu time    7.4590: real time    7.4767
    MIXING:  cpu time    0.0080: real time    0.0080
    --------------------------------------------
      LOOP:  cpu time  246.5117: real time  247.0959

 eigenvalue-minimisations  : 37136
 total energy-change (2. order) :-0.2352850E+03  (-0.2029693E+03)
 number of electron     912.0000011 magnetization     114.6257847
 augmentation part      389.2182422 magnetization     111.3209373

 Broyden mixing:
  rms(total) = 0.32021E+02    rms(broyden)= 0.32020E+02
  rms(prec ) = 0.34096E+02
  weight for this iteration     100.00

 eigenvalues of (default mixing * dielectric matrix)
  average eigenvalue GAMMA=   0.2657
  0.2657

 Free energy of the ion-electron system (eV)
  ---------------------------------------------------
  alpha Z        PSCENC =      2828.68208838
  Ewald energy   TEWEN  =    -56063.87865338
  -Hartree energ DENC   =    -27986.87247957
  -exchange      EXHF   =         0.00000000
  -V(xc)+E(xc)   XCENC  =      3595.34324261
  PAW double counting   =     77571.97706400   -80431.23991799
  entropy T*S    EENTRO =        -0.07981553
  eigenvalues    EBANDS =     -3389.93480331
  atomic energy  EATOM  =     82705.81968683
  Solvation  Ediel_sol  =         0.00000000
  ---------------------------------------------------
  free energy    TOTEN  =     -1170.18358797 eV

  energy without entropy =    -1170.10377244  energy(sigma->0) =    -1170.14368020


--------------------------------------------------------------------------------------------------------




--------------------------------------- Iteration      1(   7)  ---------------------------------------


    POTLOK:  cpu time    0.3829: real time    0.3838
    SETDIJ:  cpu time    0.0457: real time    0.0458
     EDDAV:  cpu time  215.0521: real time  215.5620
    CHARGE:  cpu time    7.3529: real time    7.3704
    MIXING:  cpu time    0.0082: real time    0.0083
    --------------------------------------------
      LOOP:  cpu time  222.8418: real time  223.3701

 eigenvalue-minimisations  : 31808
 total energy-change (2. order) : 0.4273018E+03  (-0.6756601E+02)
 number of electron     911.9999991 magnetization     106.4702326
 augmentation part      356.0532660 magnetization      89.9475355

 Broyden mixing:
  rms(total) = 0.14015E+02    rms(broyden)= 0.14014E+02
  rms(prec ) = 0.15730E+02
  weight for this iteration     100.00

 eigenvalues of (default mixing * dielectric matrix)
  average eigenvalue GAMMA=   0.4939
  0.4939  0.4939

 Free energy of the ion-electron system (eV)
  ---------------------------------------------------
  alpha Z        PSCENC =      2828.68208838
  Ewald energy   TEWEN  =    -56063.87865338
  -Hartree energ DENC   =    -28549.71109642
  -exchange      EXHF   =         0.00000000
  -V(xc)+E(xc)   XCENC  =      3562.65901000
  PAW double counting   =     80744.78252361   -83932.04074055
  entropy T*S    EENTRO =        -0.11236205
  eigenvalues    EBANDS =     -2039.08228745
  atomic energy  EATOM  =     82705.81968683
  Solvation  Ediel_sol  =         0.00000000
  ---------------------------------------------------
  free energy    TOTEN  =      -742.88183104 eV

  energy without entropy =     -742.76946899  energy(sigma->0) =     -742.82565001


--------------------------------------------------------------------------------------------------------




--------------------------------------- Iteration      1(   8)  ---------------------------------------


    POTLOK:  cpu time    0.3841: real time    0.3850
    SETDIJ:  cpu time    0.0463: real time    0.0464
     EDDAV:  cpu time  206.1596: real time  206.6497
    CHARGE:  cpu time    7.3095: real time    7.3269
    MIXING:  cpu time    0.0086: real time    0.0086
    --------------------------------------------
      LOOP:  cpu time  213.9081: real time  214.4166

 eigenvalue-minimisations  : 29872
 total energy-change (2. order) :-0.1504627E+03  (-0.4252579E+02)
 number of electron     912.0000014 magnetization      99.1232930
 augmentation part      344.9546892 magnetization      86.6980073

 Broyden mixing:
  rms(total) = 0.21030E+02    rms(broyden)= 0.21029E+02
  rms(prec ) = 0.25347E+02
  weight for this iteration     100.00

 eigenvalues of (default mixing * dielectric matrix)
  average eigenvalue GAMMA=   0.4484
  0.5908  0.5908  0.1637

 Free energy of the ion-electron system (eV)
  ---------------------------------------------------
  alpha Z        PSCENC =      2828.68208838
  Ewald energy   TEWEN  =    -56063.87865338
  -Hartree energ DENC   =    -28475.85937897
  -exchange      EXHF   =         0.00000000
  -V(xc)+E(xc)   XCENC  =      3549.84440127
  PAW double counting   =     82953.72433573   -86284.91134310
  entropy T*S    EENTRO =        -0.11103577
  eigenvalues    EBANDS =     -2106.65464649
  atomic energy  EATOM  =     82705.81968683
  Solvation  Ediel_sol  =         0.00000000
  ---------------------------------------------------
  free energy    TOTEN  =      -893.34454552 eV

  energy without entropy =     -893.23350974  energy(sigma->0) =     -893.28902763


--------------------------------------------------------------------------------------------------------




--------------------------------------- Iteration      1(   9)  ---------------------------------------


    POTLOK:  cpu time    0.3736: real time    0.3745
    SETDIJ:  cpu time    0.0467: real time    0.0468
     EDDAV:  cpu time  205.5409: real time  206.0283
    CHARGE:  cpu time    7.3657: real time    7.3832
    MIXING:  cpu time    0.0107: real time    0.0108
    --------------------------------------------
      LOOP:  cpu time  213.3378: real time  213.8436

 eigenvalue-minimisations  : 30880
 total energy-change (2. order) : 0.1590244E+02  (-0.5777525E+02)
 number of electron     912.0000000 magnetization      94.2398267
 augmentation part      326.9966728 magnetization      78.5460967

 Broyden mixing:
  rms(total) = 0.19931E+02    rms(broyden)= 0.19930E+02
  rms(prec ) = 0.25424E+02
  weight for this iteration     100.00

 eigenvalues of (default mixing * dielectric matrix)
  average eigenvalue GAMMA=   0.4010
  0.6366  0.6366  0.1655  0.1655

 Free energy of the ion-electron system (eV)
  ---------------------------------------------------
  alpha Z        PSCENC =      2828.68208838
  Ewald energy   TEWEN  =    -56063.87865338
  -Hartree energ DENC   =    -28539.12915343
  -exchange      EXHF   =         0.00000000
  -V(xc)+E(xc)   XCENC  =      3546.91232183
  PAW double counting   =     85037.15737900   -88459.09779528
  entropy T*S    EENTRO =        -0.11227118
  eigenvalues    EBANDS =     -1933.79570921
  atomic energy  EATOM  =     82705.81968683
  Solvation  Ediel_sol  =         0.00000000
  ---------------------------------------------------
  free energy    TOTEN  =      -877.44210644 eV

  energy without entropy =     -877.32983526  energy(sigma->0) =     -877.38597085


--------------------------------------------------------------------------------------------------------




--------------------------------------- Iteration      1(  10)  ---------------------------------------


    POTLOK:  cpu time    0.3804: real time    0.3813
    SETDIJ:  cpu time    0.0467: real time    0.0468
     EDDAV:  cpu time  211.4236: real time  211.9247
    CHARGE:  cpu time    7.3173: real time    7.3346
    MIXING:  cpu time    0.0084: real time    0.0084
    --------------------------------------------
      LOOP:  cpu time  219.1764: real time  219.6958

 eigenvalue-minimisations  : 32832
 total energy-change (2. order) : 0.7747506E+02  (-0.2484179E+02)
 number of electron     911.9999980 magnetization      89.5471712
 augmentation part      329.5593969 magnetization      69.9078287

 Broyden mixing:
  rms(total) = 0.14805E+02    rms(broyden)= 0.14804E+02
  rms(prec ) = 0.20497E+02
  weight for this iteration     100.00

 eigenvalues of (default mixing * dielectric matrix)
  average eigenvalue GAMMA=   0.3975
  0.9098  0.5180  0.2299  0.2299  0.0999

 Free energy of the ion-electron system (eV)
  ---------------------------------------------------
  alpha Z        PSCENC =      2828.68208838
  Ewald energy   TEWEN  =    -56063.87865338
  -Hartree energ DENC   =    -28546.08331764
  -exchange      EXHF   =         0.00000000
  -V(xc)+E(xc)   XCENC  =      3546.75478617
  PAW double counting   =     86295.55874362   -89747.75704184
  entropy T*S    EENTRO =        -0.13727688
  eigenvalues    EBANDS =     -1818.92606352
  atomic energy  EATOM  =     82705.81968683
  Solvation  Ediel_sol  =         0.00000000
  ---------------------------------------------------
  free energy    TOTEN  =      -799.96704826 eV

  energy without entropy =     -799.82977138  energy(sigma->0) =     -799.89840982


--------------------------------------------------------------------------------------------------------




--------------------------------------- Iteration      1(  11)  ---------------------------------------


    POTLOK:  cpu time    0.3745: real time    0.3754
    SETDIJ:  cpu time    0.0431: real time    0.0432
     EDDAV:  cpu time  195.3136: real time  195.7766
    CHARGE:  cpu time    7.3127: real time    7.3300
    MIXING:  cpu time    0.0095: real time    0.0095
    --------------------------------------------
      LOOP:  cpu time  203.0534: real time  203.5348

 eigenvalue-minimisations  : 29872
 total energy-change (2. order) : 0.3176811E+02  (-0.1387150E+02)
 number of electron     912.0000010 magnetization      85.0703975
 augmentation part      331.8304043 magnetization      68.9538807

 Broyden mixing:
  rms(total) = 0.16747E+02    rms(broyden)= 0.16746E+02
  rms(prec ) = 0.21421E+02
  weight for this iteration     100.00

 eigenvalues of (default mixing * dielectric matrix)
  average eigenvalue GAMMA=   0.3900
  1.1036  0.4812  0.2794  0.2794  0.0981  0.0981

 Free energy of the ion-electron system (eV)
  ---------------------------------------------------
  alpha Z        PSCENC =      2828.68208838
  Ewald energy   TEWEN  =    -56063.87865338
  -Hartree energ DENC   =    -28458.17591281
  -exchange      EXHF   =         0.00000000
  -V(xc)+E(xc)   XCENC  =      3547.95756251
  PAW double counting   =     87410.51319348   -90871.65722023
  entropy T*S    EENTRO =        -0.13417740
  eigenvalues    EBANDS =     -1867.32550168
  atomic energy  EATOM  =     82705.81968683
  Solvation  Ediel_sol  =         0.00000000
  ---------------------------------------------------
  free energy    TOTEN  =      -768.19893430 eV

  energy without entropy =     -768.06475690  energy(sigma->0) =     -768.13184560


--------------------------------------------------------------------------------------------------------




--------------------------------------- Iteration      1(  12)  ---------------------------------------


    POTLOK:  cpu time    0.3755: real time    0.3765
    SETDIJ:  cpu time    0.0465: real time    0.0466
     EDDAV:  cpu time  221.0646: real time  221.5886
    CHARGE:  cpu time    7.4060: real time    7.4236
    MIXING:  cpu time    0.0105: real time    0.0105
    --------------------------------------------
      LOOP:  cpu time  228.9032: real time  229.4458

 eigenvalue-minimisations  : 33664
 total energy-change (2. order) : 0.3682734E+02  (-0.2185163E+02)
 number of electron     911.9999985 magnetization      78.2975568
 augmentation part      335.5923672 magnetization      61.7852446

 Broyden mixing:
  rms(total) = 0.14058E+02    rms(broyden)= 0.14057E+02
  rms(prec ) = 0.17933E+02
  weight for this iteration     100.00

 eigenvalues of (default mixing * dielectric matrix)
  average eigenvalue GAMMA=   0.4130
  1.3805  0.4791  0.3550  0.3550  0.1194  0.1194  0.0829

 Free energy of the ion-electron system (eV)
  ---------------------------------------------------
  alpha Z        PSCENC =      2828.68208838
  Ewald energy   TEWEN  =    -56063.87865338
  -Hartree energ DENC   =    -28454.57298932
  -exchange      EXHF   =         0.00000000
  -V(xc)+E(xc)   XCENC  =      3549.60643363
  PAW double counting   =     88379.62579839   -91851.60724953
  entropy T*S    EENTRO =        -0.11942357
  eigenvalues    EBANDS =     -1824.92728521
  atomic energy  EATOM  =     82705.81968683
  Solvation  Ediel_sol  =         0.00000000
  ---------------------------------------------------
  free energy    TOTEN  =      -731.37159379 eV

  energy without entropy =     -731.25217022  energy(sigma->0) =     -731.31188201


--------------------------------------------------------------------------------------------------------




--------------------------------------- Iteration      1(  13)  ---------------------------------------


    POTLOK:  cpu time    0.3845: real time    0.3854
    SETDIJ:  cpu time    0.0465: real time    0.0466
     EDDAV:  cpu time  203.3110: real time  203.7930
    CHARGE:  cpu time    7.4554: real time    7.4980
    MIXING:  cpu time    0.0111: real time    0.0112
    --------------------------------------------
      LOOP:  cpu time  211.2085: real time  211.7341

 eigenvalue-minimisations  : 30688
 total energy-change (2. order) : 0.1893000E+02  (-0.1308701E+02)
 number of electron     912.0000027 magnetization      74.3814088
 augmentation part      334.8236063 magnetization      56.1820684

 Broyden mixing:
  rms(total) = 0.15903E+02    rms(broyden)= 0.15903E+02
  rms(prec ) = 0.20388E+02
  weight for this iteration     100.00

 eigenvalues of (default mixing * dielectric matrix)
  average eigenvalue GAMMA=   0.3998
  1.5420  0.4598  0.3774  0.3774  0.1241  0.1241  0.1228  0.0707

 Free energy of the ion-electron system (eV)
  ---------------------------------------------------
  alpha Z        PSCENC =      2828.68208838
  Ewald energy   TEWEN  =    -56063.87865338
  -Hartree energ DENC   =    -28423.97144369
  -exchange      EXHF   =         0.00000000
  -V(xc)+E(xc)   XCENC  =      3551.15442432
  PAW double counting   =     89596.90908143   -93073.57298772
  entropy T*S    EENTRO =        -0.14565378
  eigenvalues    EBANDS =     -1833.43813295
  atomic energy  EATOM  =     82705.81968683
  Solvation  Ediel_sol  =         0.00000000
  ---------------------------------------------------
  free energy    TOTEN  =      -712.44159056 eV

  energy without entropy =     -712.29593678  energy(sigma->0) =     -712.36876367


--------------------------------------------------------------------------------------------------------




--------------------------------------- Iteration      1(  14)  ---------------------------------------


    POTLOK:  cpu time    0.3986: real time    0.3996
    SETDIJ:  cpu time    0.0470: real time    0.0472
     EDDAV:  cpu time  207.4080: real time  207.8996
    CHARGE:  cpu time    7.4866: real time    7.5043
    MIXING:  cpu time    0.0110: real time    0.0110
    --------------------------------------------
      LOOP:  cpu time  215.3512: real time  215.8617

 eigenvalue-minimisations  : 31616
 total energy-change (2. order) : 0.5985002E+02  (-0.1001234E+02)
 number of electron     911.9999983 magnetization      72.5589217
 augmentation part      341.9453630 magnetization      52.6508695

 Broyden mixing:
  rms(total) = 0.85917E+01    rms(broyden)= 0.85907E+01
  rms(prec ) = 0.10644E+02
  weight for this iteration     100.00

 eigenvalues of (default mixing * dielectric matrix)
  average eigenvalue GAMMA=   0.3867
  1.5325  0.5279  0.3979  0.3979  0.1866  0.1369  0.1369  0.0876  0.0760

 Free energy of the ion-electron system (eV)
  ---------------------------------------------------
  alpha Z        PSCENC =      2828.68208838
  Ewald energy   TEWEN  =    -56063.87865338
  -Hartree energ DENC   =    -28439.13197088
  -exchange      EXHF   =         0.00000000
  -V(xc)+E(xc)   XCENC  =      3551.61135189
  PAW double counting   =     90322.78953645   -93809.44700390
  entropy T*S    EENTRO =        -0.13953285
  eigenvalues    EBANDS =     -1748.89707132
  atomic energy  EATOM  =     82705.81968683
  Solvation  Ediel_sol  =         0.00000000
  ---------------------------------------------------
  free energy    TOTEN  =      -652.59156877 eV

  energy without entropy =     -652.45203592  energy(sigma->0) =     -652.52180235


--------------------------------------------------------------------------------------------------------




--------------------------------------- Iteration      1(  15)  ---------------------------------------


    POTLOK:  cpu time    0.3855: real time    0.3865
    SETDIJ:  cpu time    0.0457: real time    0.0459
     EDDAV:  cpu time  193.2012: real time  193.6592
    CHARGE:  cpu time    7.4449: real time    7.4625
    MIXING:  cpu time    0.0116: real time    0.0116
    --------------------------------------------
      LOOP:  cpu time  201.0890: real time  201.5657

 eigenvalue-minimisations  : 28928
 total energy-change (2. order) : 0.1719732E+02  (-0.9092797E+01)
 number of electron     911.9999995 magnetization      70.7712454
 augmentation part      339.5986183 magnetization      50.1280121

 Broyden mixing:
  rms(total) = 0.65649E+01    rms(broyden)= 0.65640E+01
  rms(prec ) = 0.80099E+01
  weight for this iteration     100.00

 eigenvalues of (default mixing * dielectric matrix)
  average eigenvalue GAMMA=   0.3736
  1.5646  0.5141  0.4138  0.4138  0.2699  0.1343  0.1343  0.1099  0.1099  0.0711

 Free energy of the ion-electron system (eV)
  ---------------------------------------------------
  alpha Z        PSCENC =      2828.68208838
  Ewald energy   TEWEN  =    -56063.87865338
  -Hartree energ DENC   =    -28472.32195527
  -exchange      EXHF   =         0.00000000
  -V(xc)+E(xc)   XCENC  =      3549.24434252
  PAW double counting   =     90465.42300893   -93957.38632188
  entropy T*S    EENTRO =        -0.14567874
  eigenvalues    EBANDS =     -1690.83076709
  atomic energy  EATOM  =     82705.81968683
  Solvation  Ediel_sol  =         0.00000000
  ---------------------------------------------------
  free energy    TOTEN  =      -635.39424970 eV

  energy without entropy =     -635.24857096  energy(sigma->0) =     -635.32141033


--------------------------------------------------------------------------------------------------------




--------------------------------------- Iteration      1(  16)  ---------------------------------------


    POTLOK:  cpu time    0.3981: real time    0.3990
    SETDIJ:  cpu time    0.0459: real time    0.0460
     EDDAV:  cpu time  204.5839: real time  205.0689
    CHARGE:  cpu time    7.3251: real time    7.3425
    MIXING:  cpu time    0.0117: real time    0.0117
    --------------------------------------------
      LOOP:  cpu time  212.3647: real time  212.8681

 eigenvalue-minimisations  : 30688
 total energy-change (2. order) :-0.2844759E+01  (-0.5477059E+01)
 number of electron     912.0000003 magnetization      68.9836317
 augmentation part      336.2692235 magnetization      49.7569511

 Broyden mixing:
  rms(total) = 0.79114E+01    rms(broyden)= 0.79108E+01
  rms(prec ) = 0.96588E+01
  weight for this iteration     100.00

 eigenvalues of (default mixing * dielectric matrix)
  average eigenvalue GAMMA=   0.3592
  1.5914  0.4321  0.4321  0.4150  0.4150  0.1561  0.1228  0.1228  0.0943  0.0943
  0.0749

 Free energy of the ion-electron system (eV)
  ---------------------------------------------------
  alpha Z        PSCENC =      2828.68208838
  Ewald energy   TEWEN  =    -56063.87865338
  -Hartree energ DENC   =    -28504.00171725
  -exchange      EXHF   =         0.00000000
  -V(xc)+E(xc)   XCENC  =      3547.02034553
  PAW double counting   =     90629.35422533   -94125.66881706
  entropy T*S    EENTRO =        -0.15706474
  eigenvalues    EBANDS =     -1655.40910274
  atomic energy  EATOM  =     82705.81968683
  Solvation  Ediel_sol  =         0.00000000
  ---------------------------------------------------
  free energy    TOTEN  =      -638.23900910 eV

  energy without entropy =     -638.08194436  energy(sigma->0) =     -638.16047673


--------------------------------------------------------------------------------------------------------




--------------------------------------- Iteration      1(  17)  ---------------------------------------


    POTLOK:  cpu time    0.3818: real time    0.3827
    SETDIJ:  cpu time    0.0452: real time    0.0453
     EDDAV:  cpu time  203.6745: real time  204.1573
    CHARGE:  cpu time    6.7856: real time    6.8017
    MIXING:  cpu time    0.0113: real time    0.0114
    --------------------------------------------
      LOOP:  cpu time  210.8984: real time  211.3983

 eigenvalue-minimisations  : 31184
 total energy-change (2. order) :-0.3457258E+01  (-0.5017527E+01)
 number of electron     911.9999986 magnetization      66.8569238
 augmentation part      335.1015243 magnetization      48.1936263

 Broyden mixing:
  rms(total) = 0.64352E+01    rms(broyden)= 0.64347E+01
  rms(prec ) = 0.81058E+01
  weight for this iteration     100.00

 eigenvalues of (default mixing * dielectric matrix)
  average eigenvalue GAMMA=   0.3587
  1.6404  0.5416  0.5416  0.3851  0.3851  0.1988  0.1331  0.1331  0.0979  0.0979
  0.0798  0.0705

 Free energy of the ion-electron system (eV)
  ---------------------------------------------------
  alpha Z        PSCENC =      2828.68208838
  Ewald energy   TEWEN  =    -56063.87865338
  -Hartree energ DENC   =    -28520.96238899
  -exchange      EXHF   =         0.00000000
  -V(xc)+E(xc)   XCENC  =      3545.61237854
  PAW double counting   =     90787.25130867   -94285.09096246
  entropy T*S    EENTRO =        -0.16018132
  eigenvalues    EBANDS =     -1638.96954351
  atomic energy  EATOM  =     82705.81968683
  Solvation  Ediel_sol  =         0.00000000
  ---------------------------------------------------
  free energy    TOTEN  =      -641.69626724 eV

  energy without entropy =     -641.53608592  energy(sigma->0) =     -641.61617658


--------------------------------------------------------------------------------------------------------




--------------------------------------- Iteration      1(  18)  ---------------------------------------


    POTLOK:  cpu time    0.3659: real time    0.3668
    SETDIJ:  cpu time    0.0465: real time    0.0466
     EDDAV:  cpu time  198.6128: real time  199.0836
    CHARGE:  cpu time    7.4695: real time    7.4872
    MIXING:  cpu time    0.0125: real time    0.0125
    --------------------------------------------
      LOOP:  cpu time  206.5072: real time  206.9967

 eigenvalue-minimisations  : 29968
 total energy-change (2. order) :-0.1190239E+01  (-0.3903592E+01)
 number of electron     911.9999997 magnetization      64.6799030
 augmentation part      335.3194405 magnetization      46.7580595

 Broyden mixing:
  rms(total) = 0.64087E+01    rms(broyden)= 0.64081E+01
  rms(prec ) = 0.78790E+01
  weight for this iteration     100.00

 eigenvalues of (default mixing * dielectric matrix)
  average eigenvalue GAMMA=   0.3604
  1.7108  0.6019  0.6019  0.4042  0.4042  0.2277  0.1436  0.1436  0.1025  0.1025
  0.0955  0.0731  0.0731

 Free energy of the ion-electron system (eV)
  ---------------------------------------------------
  alpha Z        PSCENC =      2828.68208838
  Ewald energy   TEWEN  =    -56063.87865338
  -Hartree energ DENC   =    -28533.70491709
  -exchange      EXHF   =         0.00000000
  -V(xc)+E(xc)   XCENC  =      3544.35700246
  PAW double counting   =     90998.63054698   -94496.60778300
  entropy T*S    EENTRO =        -0.15357387
  eigenvalues    EBANDS =     -1626.03090391
  atomic energy  EATOM  =     82705.81968683
  Solvation  Ediel_sol  =         0.00000000
  ---------------------------------------------------
  free energy    TOTEN  =      -642.88650661 eV

  energy without entropy =     -642.73293274  energy(sigma->0) =     -642.80971967


--------------------------------------------------------------------------------------------------------




--------------------------------------- Iteration      1(  19)  ---------------------------------------


    POTLOK:  cpu time    0.3855: real time    0.3864
    SETDIJ:  cpu time    0.0462: real time    0.0463
     EDDAV:  cpu time  207.3934: real time  207.8850
    CHARGE:  cpu time    7.3878: real time    7.4053
    MIXING:  cpu time    0.0133: real time    0.0134
    --------------------------------------------
      LOOP:  cpu time  215.2263: real time  215.7364

 eigenvalue-minimisations  : 31664
 total energy-change (2. order) :-0.6018845E+00  (-0.2262679E+01)
 number of electron     911.9999984 magnetization      61.3567585
 augmentation part      336.7758775 magnetization      42.8846274

 Broyden mixing:
  rms(total) = 0.54585E+01    rms(broyden)= 0.54580E+01
  rms(prec ) = 0.68474E+01
  weight for this iteration     100.00

 eigenvalues of (default mixing * dielectric matrix)
  average eigenvalue GAMMA=   0.3636
  1.8274  0.6566  0.6566  0.4212  0.4212  0.2084  0.2084  0.1253  0.1253  0.1085
  0.1085  0.0775  0.0775  0.0677

 Free energy of the ion-electron system (eV)
  ---------------------------------------------------
  alpha Z        PSCENC =      2828.68208838
  Ewald energy   TEWEN  =    -56063.87865338
  -Hartree energ DENC   =    -28524.11312338
  -exchange      EXHF   =         0.00000000
  -V(xc)+E(xc)   XCENC  =      3543.83614041
  PAW double counting   =     91229.28878336   -94724.15134682
  entropy T*S    EENTRO =        -0.15419300
  eigenvalues    EBANDS =     -1638.81777347
  atomic energy  EATOM  =     82705.81968683
  Solvation  Ediel_sol  =         0.00000000
  ---------------------------------------------------
  free energy    TOTEN  =      -643.48839107 eV

  energy without entropy =     -643.33419807  energy(sigma->0) =     -643.41129457


--------------------------------------------------------------------------------------------------------




--------------------------------------- Iteration      1(  20)  ---------------------------------------


    POTLOK:  cpu time    0.3781: real time    0.3790
    SETDIJ:  cpu time    0.0465: real time    0.0466
     EDDAV:  cpu time  194.6321: real time  195.0934
    CHARGE:  cpu time    7.5055: real time    7.5232
    MIXING:  cpu time    0.0145: real time    0.0145
    --------------------------------------------
      LOOP:  cpu time  202.5766: real time  203.0567

 eigenvalue-minimisations  : 29216
 total energy-change (2. order) : 0.3859958E+01  (-0.1915529E+01)
 number of electron     911.9999984 magnetization      58.6524653
 augmentation part      339.7890496 magnetization      38.7107016

 Broyden mixing:
  rms(total) = 0.38503E+01    rms(broyden)= 0.38496E+01
  rms(prec ) = 0.46896E+01
  weight for this iteration     100.00

 eigenvalues of (default mixing * dielectric matrix)
  average eigenvalue GAMMA=   0.3692
  1.9143  0.7217  0.7217  0.4310  0.4310  0.2489  0.2489  0.1338  0.1338  0.1093
  0.1093  0.1058  0.0836  0.0695  0.0756

 Free energy of the ion-electron system (eV)
  ---------------------------------------------------
  alpha Z        PSCENC =      2828.68208838
  Ewald energy   TEWEN  =    -56063.87865338
  -Hartree energ DENC   =    -28507.81890874
  -exchange      EXHF   =         0.00000000
  -V(xc)+E(xc)   XCENC  =      3543.12318881
  PAW double counting   =     91626.33798334   -95117.44592755
  entropy T*S    EENTRO =        -0.15084520
  eigenvalues    EBANDS =     -1654.29704592
  atomic energy  EATOM  =     82705.81968683
  Solvation  Ediel_sol  =         0.00000000
  ---------------------------------------------------
  free energy    TOTEN  =      -639.62843343 eV

  energy without entropy =     -639.47758823  energy(sigma->0) =     -639.55301083


--------------------------------------------------------------------------------------------------------




--------------------------------------- Iteration      1(  21)  ---------------------------------------


    POTLOK:  cpu time    0.4982: real time    0.4994
    SETDIJ:  cpu time    0.0677: real time    0.0679
     EDDAV:  cpu time  220.4771: real time  220.9996
    CHARGE:  cpu time    8.7718: real time    8.7925
    MIXING:  cpu time    0.0161: real time    0.0161
    --------------------------------------------
      LOOP:  cpu time  229.8309: real time  230.3756

 eigenvalue-minimisations  : 30528
 total energy-change (2. order) :-0.1343009E+01  (-0.1204516E+01)
 number of electron     911.9999980 magnetization      55.9152742
 augmentation part      338.9495188 magnetization      37.5343384

 Broyden mixing:
  rms(total) = 0.35965E+01    rms(broyden)= 0.35960E+01
  rms(prec ) = 0.43672E+01
  weight for this iteration     100.00

 eigenvalues of (default mixing * dielectric matrix)
  average eigenvalue GAMMA=   0.3716
  1.9860  0.7809  0.7809  0.4473  0.4473  0.2530  0.2530  0.1963  0.1338  0.1338
  0.1056  0.1056  0.0990  0.0776  0.0776  0.0681

 Free energy of the ion-electron system (eV)
  ---------------------------------------------------
  alpha Z        PSCENC =      2828.68208838
  Ewald energy   TEWEN  =    -56063.87865338
  -Hartree energ DENC   =    -28519.89810337
  -exchange      EXHF   =         0.00000000
  -V(xc)+E(xc)   XCENC  =      3541.72600499
  PAW double counting   =     91910.42919520   -95402.67456693
  entropy T*S    EENTRO =        -0.14855030
  eigenvalues    EBANDS =     -1641.02854369
  atomic energy  EATOM  =     82705.81968683
  Solvation  Ediel_sol  =         0.00000000
  ---------------------------------------------------
  free energy    TOTEN  =      -640.97144228 eV

  energy without entropy =     -640.82289198  energy(sigma->0) =     -640.89716713


--------------------------------------------------------------------------------------------------------




--------------------------------------- Iteration      1(  22)  ---------------------------------------


    POTLOK:  cpu time    0.4763: real time    0.4775
    SETDIJ:  cpu time    0.0847: real time    0.0849
     EDDAV:  cpu time  217.4238: real time  217.9391
    CHARGE:  cpu time    7.6908: real time    7.7090
    MIXING:  cpu time    0.0152: real time    0.0153
[...]
      7.33105      1.49699      8.03726        -1.221508     -2.126530     -0.036548
      7.12362      3.97661      9.02803         2.733190     -1.630919      1.951034
      5.75769      0.45982      5.19187         5.572962      4.585807      1.759713
      5.96397      0.66664      1.97416        -1.983761      0.741785      1.928135
      7.41145      4.30606     12.24404        -0.785432      9.212794     10.833125
      7.48708      8.58497      0.66536         0.337138     -0.270059      1.012785
      5.53753      6.24272     13.64760         6.787412     -4.784783     -0.147125
      7.31015      8.33379      6.88626         0.162676      0.284960     -3.124989
      5.62061      5.74485      7.70255         2.403912      3.394322      3.711095
      5.39827      8.62318      9.30464         3.197692      2.450462     -0.648482
      7.64914      5.78243      5.34445        -1.281133     -5.199981     12.394354
      7.20567      5.65006      1.90703         0.582390     -0.143415     -0.385122
      6.11951      8.74866     12.86044         0.357524      1.794594     -2.564340
      0.36187      0.20261      7.51628        -2.175342      0.409825     -0.469828
      0.15734      9.91210      0.05901        -1.257644     -0.506822      0.592075
      1.61466      0.38466     12.02986         0.427674     -1.024668      3.315522
      0.49710      4.53792      2.25039        -2.562849     -0.749772      0.827402
      8.79998      4.41945      5.05519         0.738177     -0.094695      1.580819
      1.44057      0.38981      9.49987         0.402253     -1.117172      0.761695
      8.65182      2.68447     13.41806         0.961855     -0.772316      1.201254
      1.19643      2.14855      0.82290         2.960137     -4.258515      0.200898
      1.29822      2.24859      6.16872         0.432690      0.379983      1.692308
      0.25720      2.92425      8.60388        -3.415435     -4.459098     -3.691639
      1.42252      3.27572     10.92502         1.017557     -3.086063      9.172420
      0.14303      1.73748      3.70793        -0.551407     -1.773412     -0.973232
      1.31127      4.82086      7.54088         0.180374      0.574155      0.080245
      1.03350      4.56788      0.05421         5.596858      4.935851     -4.398914
      0.03095      5.27401     12.50023         0.960967     -1.190695     -0.793889
      1.64374      9.37141      2.34702        -1.594969     -0.548462     -1.045587
      1.51652      9.28716      4.78230        -0.056995      1.926067      2.501422
      8.67924      4.90789      9.69194        -0.046655      1.131236     -1.627304
      1.67192      7.87535     13.60090         0.570150     -0.238370      0.418570
      0.10396      7.13059      1.11058        -0.779385     -0.313898      0.062968
      8.88058      7.03166      6.25460        -0.187644     -0.009954      0.355692
      1.01819      7.32418      8.47338         5.917543      4.067314      1.246087
      0.08059      8.02632     10.71065        -0.468808      1.094359      1.797965
      1.58520      6.43068      3.80410         1.125336      7.676423    -21.868212
      2.85022      0.26095      7.34814         1.287480     -0.678109     -1.021809
      2.97769      0.22011      0.03403        -0.052932      0.168549     -1.260360
      4.37735      9.89816     11.62532        -0.544672     -1.200609      3.401864
      2.81182      4.59476      2.20392         3.463176     -2.213352     -0.432513
      2.55875      4.39260      5.17229         0.412323      1.142085     -1.396072
      4.32380      0.02079      9.47416        -1.040511      1.380123     -0.979429
      3.26934      2.80434     13.57212        -0.390855     -0.699129      0.028788
      4.18551      2.07142      1.02285         0.923404     -0.092333      0.619164
      4.54726      2.02823      5.85860         1.027303      1.334917      2.285842
      3.17144      2.84541      8.65776        -2.256243     -1.918496     -2.448297
      4.98060      3.03737     10.46461         6.130239     -9.975395      9.226989
      2.65755      2.11174      3.76285         0.478589     -2.965755     -0.506087
      4.26725      4.96099      7.20110        -4.875147     -1.779946     -1.438999
      4.07703      4.49411      0.05931        31.813465     26.443960     -8.190349
      2.89442      5.18566     12.37125         0.660327     -0.498762      1.046490
      4.38426      9.54480      2.23283         0.594781      0.651584     -0.916639
      4.57211      9.37313      4.99778        -2.015349      3.196110    -12.265995
      3.11596      4.93017      9.68516       -13.969494     13.365866     -1.414499
      4.32318      7.20275     13.61899        -4.569694      6.575661     -0.415769
      3.02626      6.81111      1.03389        -0.181700      0.508561     -0.612089
      3.15345      7.03408      5.98987        -7.195960     10.527106      7.610001
      4.49543      7.68114      8.19608        -2.501016     -1.205012     -0.880868
      2.90447      8.02318     10.87313        -0.218921     -0.629149      3.208087
      4.29774      6.59625      4.05093         3.256236      3.429404     -9.480139
      6.04738      9.68712      7.29589        -0.039634     -0.069474     -0.050509
      5.69591      9.77911      0.15608         2.131832      1.015460     -0.906354
      7.10316      0.43832     12.09171        -0.515521     -1.731138      2.643354
      5.73594      4.08754      2.06895        -0.176046      5.851162      7.665791
      5.91121      4.58169      4.67406         0.011095     -0.006963      1.884974
      6.94262      0.36630      9.63820         1.841528     -0.281711     -1.650910
      5.97742      2.39421     13.35951        -7.770591      6.243190     -2.206672
      7.22261      2.48734      1.37555         0.439341     -1.441361     -1.259563
      7.13903      1.97984      6.09401         1.129022     -0.075488      1.515730
      5.62600      2.93165      8.43842         1.828610     -3.558399     -1.548330
      7.54295      3.35341     11.20858         0.871013     -9.751694    -11.602969
      5.56557      1.60607      3.90002         1.030426     -1.336436     -2.379158
      7.10385      4.94320      7.05325         3.187110      0.033634      0.283295
      7.66442      5.13206     14.90443        -1.496681     -0.214611      0.995008
      5.76471      5.04672     12.13932        -0.078864      0.802506      1.306360
      7.21471      9.43446      2.60935         1.070953      1.258136     -2.974117
      7.10574      9.19263      4.94060         1.035159      0.779077      2.016772
      5.63487      4.68079      9.52394         2.834118      7.290905     -1.235735
      7.32523      7.45130     13.61399        -4.530583      6.375833     -0.052307
      5.73027      7.04379      1.06945         1.076728     -1.586625      0.350893
      5.71732      6.77406      6.34055         1.213763      1.493886     -1.508498
      7.56922      7.27783      8.30040        -1.946764      1.584327      1.473535
      5.88498      7.87446     10.64653         0.764684     -0.737263      2.411441
      7.55252      6.20840      3.98714        -1.296819      4.884491    -15.102217
 -----------------------------------------------------------------------------------
    total drift:                               -0.036355     -0.003393     -0.052043


--------------------------------------------------------------------------------------------------------



  FREE ENERGIE OF THE ION-ELECTRON SYSTEM (eV)
  ---------------------------------------------------
  free  energy   TOTEN  =      -654.2814353486 eV

  energy  without entropy=     -654.1428117163  energy(sigma->0) =     -654.21212353
 


--------------------------------------------------------------------------------------------------------


    POTLOK:  cpu time    0.4272: real time    0.4282


--------------------------------------------------------------------------------------------------------


     LOOP+:  cpu time17773.1181: real time17815.6737
    4ORBIT:  cpu time    0.0000: real time    0.0000

volume of typ            1:    23.0 %

volume of typ            2:     8.8 %
 
total charge     
 
# of ion       s       p       d       tot
------------------------------------------
    1        0.351   0.442   7.930   8.723
    2        0.183   0.164   7.845   8.192
    3        0.222   0.237   7.883   8.342
    4        0.259   0.321   7.886   8.466
    5        0.351   0.470   7.949   8.771
    6        0.205   0.185   7.822   8.212
    7        0.190   0.184   7.878   8.252
    8        0.239   0.254   7.885   8.378
    9        0.227   0.233   7.864   8.324
   10        0.334   0.417   7.961   8.712
   11        0.218   0.205   7.923   8.346
   12        0.306   0.387   7.934   8.627
   13        0.228   0.222   7.829   8.280
   14        0.360   0.460   8.031   8.851
   15        0.297   0.360   7.895   8.552
   16        0.197   0.167   7.893   8.257
   17        0.407   0.520   8.165   9.093
   18        0.230   0.246   7.908   8.384
   19        0.231   0.256   7.942   8.428
   20        0.202   0.208   7.882   8.293
   21        0.477   0.816   8.074   9.366
   22        0.232   0.249   7.906   8.387
   23        0.232   0.233   7.840   8.306
   24        0.239   0.245   7.953   8.437
   25        0.235   0.244   7.914   8.393
   26        0.240   0.259   7.965   8.464
   27        0.303   0.364   8.058   8.725
   28        0.199   0.191   7.959   8.349
   29        0.259   0.278   7.893   8.429
   30        0.432   0.564   8.021   9.017
   31        0.215   0.211   7.875   8.300
   32        0.212   0.210   7.837   8.258
   33        0.293   0.327   8.008   8.627
   34        0.279   0.304   7.992   8.574
   35        0.243   0.277   7.943   8.463
   36        0.191   0.174   7.915   8.280
   37        0.249   0.280   7.947   8.476
   38        0.326   0.410   7.885   8.621
   39        0.230   0.231   7.852   8.313
   40        0.376   0.454   7.975   8.806
   41        0.176   0.148   7.897   8.221
   42        0.281   0.305   8.005   8.592
   43        0.236   0.241   7.897   8.375
   44        0.302   0.388   7.970   8.660
   45        0.339   0.419   7.878   8.636
   46        0.358   0.484   7.929   8.771
   47        0.164   0.135   7.887   8.186
   48        0.183   0.152   7.920   8.255
   49        1.285   2.718   0.007   4.010
   50        1.283   2.666   0.003   3.952
   51        1.304   2.579   0.002   3.885
   52        1.291   2.710   0.009   4.009
   53        1.295   2.671   0.007   3.972
   54        1.295   2.660   0.006   3.960
   55        1.295   2.626   0.002   3.923
   56        1.279   2.759   0.011   4.049
   57        1.285   2.679   0.004   3.969
   58        1.281   2.767   0.011   4.060
   59        1.288   2.797   0.019   4.104
   60        1.296   2.623   0.005   3.924
   61        1.278   2.742   0.007   4.027
   62        1.301   2.741   0.013   4.055
   63        1.280   2.744   0.010   4.035
   64        1.292   2.669   0.008   3.969
   65        1.305   2.573   0.001   3.880
   66        1.291   2.668   0.005   3.964
   67        1.264   2.748   0.007   4.019
   68        1.275   2.703   0.005   3.983
   69        1.286   2.697   0.005   3.988
   70        1.282   2.763   0.013   4.058
   71        1.290   2.656   0.005   3.951
   72        1.307   2.810   0.027   4.144
   73        1.279   2.742   0.009   4.030
   74        1.294   2.637   0.003   3.934
   75        1.314   2.568   0.003   3.885
   76        1.288   2.726   0.011   4.025
   77        1.289   2.731   0.011   4.031
   78        1.298   2.690   0.009   3.997
   79        1.273   2.737   0.006   4.017
   80        1.294   2.677   0.005   3.976
   81        1.292   2.703   0.008   4.003
   82        1.277   2.746   0.007   4.031
   83        1.317   2.753   0.019   4.089
   84        1.305   2.574   0.002   3.882
   85        1.273   2.790   0.012   4.075
   86        1.320   2.889   0.042   4.250
   87        1.277   2.722   0.008   4.008
   88        1.297   2.626   0.004   3.927
   89        1.297   2.854   0.032   4.183
   90        1.293   2.849   0.023   4.165
   91        1.273   2.822   0.019   4.113
   92        1.268   2.730   0.005   4.004
   93        1.286   2.822   0.019   4.127
   94        1.283   2.726   0.008   4.016
   95        1.290   2.698   0.009   3.997
   96        1.303   2.730   0.015   4.049
   97        1.294   2.666   0.004   3.965
   98        1.277   2.735   0.008   4.020
   99        1.310   2.571   0.003   3.883
  100        1.299   2.735   0.017   4.051
  101        1.312   2.561   0.001   3.874
  102        1.300   2.608   0.003   3.910
  103        1.287   2.776   0.018   4.081
  104        1.286   2.660   0.003   3.949
  105        1.282   2.680   0.004   3.965
  106        1.299   2.723   0.011   4.033
  107        1.318   2.740   0.021   4.078
  108        1.305   2.628   0.006   3.939
  109        1.273   2.787   0.011   4.070
  110        1.291   2.676   0.005   3.971
  111        1.274   2.745   0.010   4.029
  112        1.299   2.629   0.005   3.933
  113        1.296   2.642   0.005   3.942
  114        1.284   2.783   0.014   4.082
  115        1.267   2.802   0.015   4.084
  116        1.272   2.706   0.005   3.983
  117        1.298   2.690   0.007   3.995
  118        1.281   2.744   0.010   4.034
  119        1.297   2.676   0.008   3.981
  120        1.300   2.773   0.019   4.093
--------------------------------------------------
tot         105.65  209.57  381.19  696.42
 
magnetization (x)
 
# of ion       s       p       d       tot
------------------------------------------
    1        0.001  -0.000   0.086   0.086
    2        0.004   0.002   0.866   0.872
    3        0.002   0.004   0.750   0.756
    4       -0.001   0.002   0.079   0.081
    5       -0.000  -0.002   0.039   0.037
    6        0.001   0.010   1.237   1.247
    7       -0.000   0.001   0.473   0.473
    8       -0.000  -0.000  -0.002  -0.003
    9        0.004   0.012   1.046   1.062
   10        0.001  -0.000   0.121   0.122
   11       -0.001   0.011   1.073   1.083
   12        0.000   0.002  -0.090  -0.087
   13        0.000   0.008   1.148   1.156
   14        0.011   0.028   1.002   1.042
   15       -0.003   0.000  -0.015  -0.017
   16       -0.001   0.008   1.123   1.130
   17        0.001   0.007   0.262   0.270
   18       -0.001   0.005   0.760   0.764
   19        0.006   0.003   0.455   0.465
   20        0.001   0.002  -0.128  -0.124
   21        0.002   0.008   0.421   0.431
   22       -0.004  -0.003   0.494   0.487
   23        0.002   0.005   0.745   0.752
   24        0.002   0.007   0.229   0.238
   25        0.000   0.009   0.866   0.874
   26        0.002   0.008   0.510   0.520
   27        0.004   0.004   0.210   0.218
   28        0.002  -0.002  -0.788  -0.788
   29        0.005   0.018   1.286   1.308
   30        0.008   0.003   0.776   0.787
   31        0.001   0.004   0.385   0.390
   32       -0.005   0.001   0.144   0.140
   33        0.006  -0.000   0.223   0.228
   34       -0.002   0.005   0.599   0.601
   35        0.003   0.004   0.706   0.713
   36       -0.006  -0.000  -0.455  -0.461
   37        0.005   0.003   0.512   0.520
   38       -0.001   0.003   0.048   0.049
   39       -0.002  -0.003  -0.258  -0.263
   40        0.001   0.007   0.319   0.327
   41       -0.001  -0.002  -1.198  -1.201
   42        0.005   0.013   0.676   0.694
   43        0.003   0.001   0.253   0.258
   44       -0.000  -0.001   0.094   0.093
   45        0.006   0.009   0.587   0.602
   46       -0.003   0.006   0.807   0.811
   47       -0.002  -0.001  -0.996  -1.000
   48       -0.003   0.002   1.209   1.208
   49        0.007   0.089   0.000   0.096
   50        0.003   0.008   0.000   0.011
   51        0.008   0.352  -0.000   0.360
   52       -0.001  -0.034  -0.000  -0.035
   53        0.008   0.279   0.000   0.287
   54        0.010   0.333   0.000   0.343
   55        0.003   0.079   0.000   0.082
   56        0.005   0.005   0.000   0.010
   57        0.005   0.094   0.000   0.100
   58        0.002  -0.006   0.000  -0.004
   59        0.002   0.057  -0.000   0.059
   60        0.013   0.558  -0.000   0.570
   61        0.004   0.020   0.000   0.024
   62        0.002   0.084   0.000   0.086
   63        0.002   0.014   0.000   0.016
   64        0.010   0.280   0.000   0.290
   65        0.011   0.525  -0.000   0.536
   66        0.002   0.040   0.000   0.042
   67        0.008   0.136   0.000   0.144
   68       -0.000   0.080   0.000   0.080
   69        0.002   0.067   0.000   0.069
   70        0.001   0.058  -0.000   0.059
   71        0.012   0.534  -0.000   0.546
   72        0.008   0.418   0.001   0.427
   73        0.005   0.063   0.000   0.068
   74        0.004   0.068   0.000   0.072
   75        0.012   0.574   0.000   0.586
   76        0.002   0.029   0.000   0.031
   77        0.009   0.260   0.000   0.269
   78        0.009   0.181   0.000   0.191
   79        0.006   0.059   0.000   0.065
   80        0.008   0.239   0.000   0.247
   81        0.004   0.060   0.000   0.064
   82        0.001   0.022   0.000   0.023
   83        0.006   0.302   0.000   0.308
   84        0.013   0.584  -0.000   0.597
   85        0.003   0.030  -0.000   0.033
   86        0.002   0.069   0.000   0.072
   87        0.003   0.102   0.000   0.105
   88        0.006   0.241   0.000   0.247
   89        0.003   0.079   0.000   0.082
   90        0.001   0.034   0.001   0.036
   91        0.007   0.106   0.000   0.114
   92        0.008   0.072   0.000   0.080
   93        0.005   0.102   0.000   0.107
   94        0.001   0.047   0.000   0.049
   95        0.012   0.557   0.000   0.570
   96        0.010   0.468   0.000   0.478
   97        0.001   0.029   0.000   0.030
   98        0.003   0.064   0.000   0.067
   99        0.014   0.639  -0.000   0.653
  100        0.000   0.003   0.000   0.004
  101        0.015   0.747   0.000   0.762
  102        0.010   0.421   0.000   0.431
  103        0.006   0.100   0.000   0.106
  104        0.002   0.039   0.000   0.041
  105        0.005   0.065   0.000   0.070
  106        0.001  -0.006   0.000  -0.005
  107        0.005   0.249   0.000   0.254
  108        0.001   0.055   0.000   0.056
  109        0.011   0.095   0.000   0.106
  110       -0.001  -0.018   0.000  -0.019
  111        0.004   0.069   0.000   0.073
  112       -0.002  -0.091   0.000  -0.093
  113        0.002   0.099  -0.000   0.101
  114        0.006   0.121   0.000   0.127
  115        0.006   0.112  -0.000   0.118
  116        0.003   0.043   0.000   0.046
  117        0.004   0.245  -0.000   0.249
  118        0.000   0.041  -0.000   0.041
  119        0.011   0.507   0.000   0.518
  120        0.008   0.413   0.001   0.421
--------------------------------------------------
tot           0.43   12.67   18.70   31.80
 

 total amount of memory used by VASP MPI-rank0   623692. kBytes
=======================================================================

   base      :      30000. kBytes
   nonlr-proj:      72746. kBytes
   fftplans  :      13422. kBytes
   grid      :      76344. kBytes
   one-center:       3732. kBytes
   wavefun   :     427448. kBytes
 
  
  
 General timing and accounting informations for this job:
 ========================================================
  
                  Total CPU time used (sec):    17952.982
                            User time (sec):    17934.299
                          System time (sec):       18.683
                         Elapsed time (sec):    18000.813
  
                   Maximum memory used (kb):      739172.
                   Average memory used (kb):           0.
  
                          Minor page faults:        46773
                          Major page faults:           11
                 Voluntary context switches:         1149
