 vasp.5.4.4.18Apr17-6-g9f103f2a35 (build May 12 2020 04:58:55) complex          
  
 MD_VERSION_INFO: Compiled 2020-05-12T11:58:55-UTC in devlin.sd.materialsdesign.
 com:/home/medea2/data/build/wwolf/vasp-gpu5.4.4/13047/x86_64/src/src/build/std 
 from svn 13047
 
 This VASP executable licensed from Materials Design, Inc.
 
 executed on                        Lin64 date 2023.03.25  01:46:51
 running on   16 total cores
 distrk:  each k-point on   16 cores,    1 groups
 distr:  one band on NCORES_PER_BAND=   1 cores,   16 groups


--------------------------------------------------------------------------------------------------------


 INCAR:
 POTCAR:    PAW_PBE Ni 02Aug2007                  
 POTCAR:    PAW_PBE O 08Apr2002                   

 ----------------------------------------------------------------------------- 
|                                                                             |
|           W    W    AA    RRRRR   N    N  II  N    N   GGGG   !!!           |
|           W    W   A  A   R    R  NN   N  II  NN   N  G    G  !!!           |
|           W    W  A    A  R    R  N N  N  II  N N  N  G       !!!           |
|           W WW W  AAAAAA  RRRRR   N  N N  II  N  N N  G  GGG   !            |
|           WW  WW  A    A  R   R   N   NN  II  N   NN  G    G                |
|           W    W  A    A  R    R  N    N  II  N    N   GGGG   !!!           |
|                                                                             |
|      For optimal performance we recommend to set                            |
|        NCORE= 4 - approx SQRT( number of cores)                             |
|      NCORE specifies how many cores store one orbital (NPAR=cpu/NCORE).     |
|      This setting can  greatly improve the performance of VASP for DFT.     |
|      The default,   NCORE=1            might be grossly inefficient         |
|      on modern multi-core architectures or massively parallel machines.     |
|      Do your own testing !!!!                                               |
|      Unfortunately you need to use the default for GW and RPA calculations. |
|      (for HF NCORE is supported but not extensively tested yet)             |
|                                                                             |
 ----------------------------------------------------------------------------- 

 POTCAR:    PAW_PBE Ni 02Aug2007                  
  local pseudopotential read in
  partial core-charges read in
  partial kinetic energy density read in
  atomic valenz-charges read in
  non local Contribution for L=           2  read in
    real space projection operators read in
  non local Contribution for L=           2  read in
    real space projection operators read in
  non local Contribution for L=           0  read in
    real space projection operators read in
  non local Contribution for L=           0  read in
    real space projection operators read in
  non local Contribution for L=           1  read in
    real space projection operators read in
  non local Contribution for L=           1  read in
    real space projection operators read in
    PAW grid and wavefunctions read in
 
   number of l-projection  operators is LMAX  =           6
   number of lm-projection operators is LMMAX =          18
 
 POTCAR:    PAW_PBE O 08Apr2002                   
  local pseudopotential read in
  partial core-charges read in
  partial kinetic energy density read in
  kinetic energy density of atom read in
  atomic valenz-charges read in
  non local Contribution for L=           0  read in
    real space projection operators read in
  non local Contribution for L=           0  read in
    real space projection operators read in
  non local Contribution for L=           1  read in
    real space projection operators read in
  non local Contribution for L=           1  read in
    real space projection operators read in
    PAW grid and wavefunctions read in
 
   number of l-projection  operators is LMAX  =           4
   number of lm-projection operators is LMMAX =           8
 
 Optimization of the real space projectors (new method)

 maximal supplied QI-value         = 16.25
 optimisation between [QCUT,QGAM] = [ 11.38, 22.75] = [ 36.24,144.96] Ry 
 Optimized for a Real-space Cutoff    1.47 Angstroem

   l    n(q)    QCUT    max X(q) W(low)/X(q) W(high)/X(q)  e(spline) 
   2      9    11.376    60.317    0.17E-03    0.16E-04    0.16E-06
   2      9    11.376    55.921    0.17E-03    0.16E-04    0.17E-06
   0     10    11.376    51.690    0.45E-04    0.60E-04    0.21E-06
   0     10    11.376    30.015    0.37E-04    0.55E-04    0.19E-06
   1     10    11.376    18.849    0.83E-04    0.11E-03    0.92E-07
   1     10    11.376    14.624    0.69E-04    0.92E-04    0.82E-07
 Optimization of the real space projectors (new method)

 maximal supplied QI-value         = 24.76
 optimisation between [QCUT,QGAM] = [ 11.39, 22.77] = [ 36.31,145.25] Ry 
 Optimized for a Real-space Cutoff    1.10 Angstroem

   l    n(q)    QCUT    max X(q) W(low)/X(q) W(high)/X(q)  e(spline) 
   0      7    11.387    20.381    0.22E-03    0.48E-03    0.18E-06
   0      7    11.387    15.268    0.22E-03    0.52E-03    0.19E-06
   1      7    11.387     5.964    0.22E-03    0.73E-03    0.24E-06
   1      7    11.387     5.382    0.19E-03    0.60E-03    0.21E-06

 ----------------------------------------------------------------------------- 
|                                                                             |
|  ADVICE TO THIS USER RUNNING 'VASP/VAMP'   (HEAR YOUR MASTER'S VOICE ...):  |
|                                                                             |
|      You enforced a specific xc-type in the INCAR file,                     |
|      a different type was found on the POTCAR file                          |
|          I HOPE YOU KNOW, WHAT YOU ARE  DOING                               |
|                                                                             |
 ----------------------------------------------------------------------------- 

  PAW_PBE Ni 02Aug2007                  :
 energy of atom  1       EATOM=-1077.6739
 kinetic energy error for atom=    0.0030 (will be added to EATOM!!)
  PAW_PBE O 08Apr2002                   :
 energy of atom  2       EATOM= -432.3788
 kinetic energy error for atom=    0.0224 (will be added to EATOM!!)
 
 
 POSCAR: Ni2O3_Cmcm_scale_1_025_disp_0_15_round_2
  positions in direct lattice
  No initial velocities read in
 exchange correlation table for  LEXCH =       14
   RHO(1)=    0.500       N(1)  =     2000
   RHO(2)=  100.500       N(2)  =     4000
 


--------------------------------------------------------------------------------------------------------


 ion  position               nearest neighbor table
   1  0.979  0.378  0.036- 110 1.72  52 1.85  62 2.29  56 2.30  55 2.40  47 2.80  33 2.93  40 3.01
                            17 3.04   7 3.06  34 3.07  15 3.08
   2  0.171  0.132  0.933-  51 1.77  55 1.90  50 1.96  74 2.17  56 2.23  79 2.26  18 2.78   8 2.83
                            16 2.93  32 2.96  17 3.03
   3  0.971  0.378  0.444- 109 1.73  53 1.79  58 1.95 105 2.11  61 2.12  57 2.42  12 2.61  46 2.73
                            37 2.78  36 2.86   4 3.01  35 3.04
   4  0.144  0.157  0.534-  58 1.81  57 1.95  54 1.98  82 2.03  73 2.26  49 2.37   5 2.71   6 2.93
                            36 2.96  22 2.99   3 3.01
   5  0.150  0.384  0.634-  59 1.81  82 1.85  66 1.90  90 1.92  58 1.95   4 2.71  37 2.84
   6  0.013  0.087  0.361-  57 1.94  60 2.06  65 2.14  49 2.30 113 2.32 105 2.52  22 2.60   4 2.93
                            36 2.96
   7  0.965  0.106  0.132- 104 1.68  60 1.69 112 2.12  56 2.22  64 2.39  50 2.47  39 2.69   9 2.93
                            41 3.04   1 3.06
   8  0.155  0.390  0.854-  63 1.83  55 1.97  87 1.99  59 2.15  62 2.26  79 2.29  40 2.63   2 2.83
                            24 2.85  10 2.99
   9  0.114  0.867  0.060-  64 1.64  50 2.05  68 2.15  74 2.22  92 2.51  41 2.67  15 2.87   7 2.93

  10  0.989  0.636  0.913-  63 1.72  67 2.06 115 2.27 110 2.36  62 2.41  40 2.90  16 2.97   8 2.99
                            26 3.01
  11  0.144  0.822  0.450-  69 1.82  70 1.92  65 2.07  49 2.10  93 2.12  73 2.51  13 2.69  14 2.72
                            12 2.79  43 2.89  27 3.02
  12  0.982  0.611  0.525-  69 1.86  66 1.89 109 1.94 118 2.25  61 2.25  70 2.34   3 2.61  13 2.78
                            11 2.79  37 2.83  43 3.04  46 3.04  44 3.07
  13  0.019  0.855  0.613-  71 1.61  70 1.83  54 1.96  49 2.14 102 2.51  11 2.69  12 2.78  29 2.89
                            43 3.06
  14  0.177  0.595  0.350-  93 1.67  77 1.92  72 1.97  61 2.20  69 2.36  53 2.41  11 2.72  30 2.87
                            19 2.95
  15  0.162  0.601  0.128-  92 1.96  72 1.97  68 2.01  52 2.29  76 2.31  62 2.36  31 2.84   9 2.87
                            47 3.00   1 3.08
  16  0.017  0.913  0.840-  99 2.03  51 2.07  71 2.09  67 2.34  50 2.34  32 2.72   2 2.93  10 2.97

  17  0.316  0.342  0.052-  56 1.92  76 1.97  80 2.18  62 2.24  86 2.27  23 2.71  31 2.96  33 3.03
                             2 3.03   1 3.04  18 3.05
  18  0.482  0.140  0.935-  79 1.78  75 2.04 103 2.27  80 2.47  74 2.48   2 2.78  24 2.93  33 2.98
                            34 3.03  17 3.05  32 3.08
  19  0.338  0.361  0.423-  77 1.71  81 1.96  85 1.98  61 2.06  57 2.19  82 2.32  22 2.61  35 2.63
                            30 2.69  14 2.95  28 2.99
  20  0.494  0.139  0.542-  78 1.59  97 2.04 106 2.18  73 2.20  81 2.24  82 2.38  21 2.74  29 2.88
                            36 2.89  38 2.90  35 2.91  45 3.08
  21  0.498  0.387  0.622- 114 1.79  83 1.92  90 2.00  85 2.09  82 2.14 106 2.30  20 2.74  28 2.82
                            35 2.99  37 3.01
  22  0.302  0.118  0.360-  84 1.73  57 1.74  81 1.87  73 2.06  65 2.09  89 2.17   6 2.60  19 2.61
                            38 2.93   4 2.99
  23  0.328  0.094  0.127-  74 1.86  80 1.86  64 1.91  84 1.94  88 1.99  56 2.14  17 2.71  39 3.01

  24  0.474  0.403  0.847-  83 1.76  79 1.82  87 1.85 103 1.96 111 2.16  86 2.34   8 2.85  18 2.93
                            42 3.08
  25  0.472  0.826  0.041-  92 1.85  88 2.02 116 2.23  91 2.33  74 2.34  26 2.69  31 2.77  42 2.79

  26  0.322  0.644  0.942-  67 1.80  92 2.01  62 2.02  91 2.11  87 2.13  86 2.17  25 2.69  42 2.79
                            10 3.01
  27  0.481  0.841  0.444- 117 1.91  94 1.91  89 1.99  93 2.25  73 2.33  97 2.45  44 2.74  45 2.86
                            28 2.92  38 2.98  30 2.98  29 3.01  11 3.02  43 3.05
  28  0.358  0.607  0.537-  94 1.92  90 1.95  85 2.06  70 2.25  61 2.27  93 2.34  44 2.55  21 2.82
                            27 2.92  30 2.95  19 2.99
  29  0.335  0.915  0.619-  54 1.97  78 2.05  95 2.12  94 2.26  70 2.27  73 2.32  45 2.68  20 2.88
                            13 2.89  27 3.01
  30  0.496  0.570  0.360- 101 1.91 117 1.97  77 1.98  96 2.11  93 2.14  85 2.25  19 2.69  46 2.72
                            35 2.72  44 2.80  14 2.87  28 2.95  27 2.98
  31  0.479  0.577  0.124-  96 1.87 116 2.01  92 2.02  76 2.11  86 2.14 100 2.19  25 2.77  15 2.84
                            17 2.96  42 3.03
  32  0.321  0.917  0.829-  95 1.72  51 1.86  75 1.99  91 2.31  67 2.37  16 2.72   2 2.96  48 3.08
                            18 3.08
  33  0.655  0.333  0.047-  80 2.09 100 2.10 104 2.21 103 2.39  86 2.40 110 2.41  39 2.83  34 2.90
                             1 2.93  18 2.98  17 3.03
  34  0.820  0.156  0.929-  55 2.03  99 2.12 103 2.19  98 2.26  50 2.40  40 2.62  33 2.90  18 3.03
                             1 3.07
  35  0.631  0.356  0.440-  85 1.74 106 1.91 105 1.97 101 2.08  81 2.12 109 2.30  19 2.63  30 2.72
                            36 2.84  46 2.86  38 2.90  20 2.91  21 2.99  44 3.03   3 3.04
  36  0.814  0.151  0.514- 106 1.75 105 1.81  97 1.98 102 2.26  58 2.31  49 2.42  38 2.81  37 2.82
                            35 2.84   3 2.86  20 2.89   6 2.96   4 2.96
  37  0.834  0.394  0.610- 106 1.99  58 2.04  66 2.06 109 2.13 114 2.18 107 2.19   3 2.78  36 2.82
                            12 2.83   5 2.84  21 3.01
  38  0.628  0.085  0.369-  97 1.72  89 1.91  81 1.92 113 2.17 108 2.17 105 2.27  36 2.81  20 2.90
                            35 2.90  22 2.93  27 2.98
  39  0.665  0.082  0.136- 104 1.60 112 1.95  88 2.02 108 2.04  80 2.07  98 2.20   7 2.69  33 2.83
                            41 2.87  23 3.01
  40  0.861  0.387  0.847-  63 1.67 107 1.91  55 2.08 103 2.20 111 2.20  34 2.62   8 2.63  10 2.90
                             1 3.01
  41  0.815  0.855  0.059- 112 1.63  98 2.01  68 2.19 116 2.30   9 2.67  39 2.87   7 3.04  47 3.06

  42  0.635  0.632  0.948- 115 1.85 116 1.89  91 2.05  86 2.07 111 2.24 110 2.48  25 2.79  26 2.79
                            48 2.93  31 3.03  24 3.08
  43  0.822  0.852  0.445- 118 1.95 113 1.99  69 2.00  49 2.07 117 2.30  97 2.36  11 2.89  44 2.94
                            45 3.03  12 3.04  27 3.05  13 3.06
  44  0.640  0.635  0.521- 118 1.71 117 1.81  94 1.91 114 2.05  85 2.23 109 2.34  28 2.55  27 2.74
                            45 2.75  30 2.80  43 2.94  46 2.94  35 3.03  12 3.07
  45  0.631  0.875  0.612- 119 1.77  94 1.90 118 2.10 102 2.18  78 2.26  29 2.68  44 2.75  27 2.86
                            43 3.03  20 3.08
  46  0.801  0.564  0.356- 101 1.86  53 2.02 109 2.05 120 2.22 117 2.28  69 2.44  30 2.72   3 2.73
                            35 2.86  44 2.94  12 3.04
  47  0.828  0.571  0.137- 120 1.62 100 1.80  52 1.92  68 1.97 110 2.13 116 2.14   1 2.80  15 3.00
                            41 3.06
  48  0.662  0.878  0.842- 119 1.78 115 1.82  99 1.87  91 2.00  75 2.23  42 2.93  32 3.08
  49  0.993  0.971  0.493-  43 2.07  11 2.10  13 2.14   6 2.30   4 2.37  36 2.42
  50  0.016  0.012  0.982-   2 1.96   9 2.05  16 2.34  34 2.40   7 2.47
  51  0.183  0.057  0.826-   2 1.77  32 1.86  16 2.07
  52  0.983  0.439  0.153-   1 1.85  47 1.92  15 2.29
  53  0.973  0.438  0.331-   3 1.79  46 2.02  14 2.41
  54  0.145  0.015  0.628-  13 1.96  29 1.97   4 1.98
  55  0.015  0.253  0.900-   2 1.90   8 1.97  34 2.03  40 2.08   1 2.40
  56  0.155  0.217  0.071-  17 1.92  23 2.14   7 2.22   2 2.23   1 2.30
  57  0.160  0.211  0.410-  22 1.74   6 1.94   4 1.95  19 2.19   3 2.42
  58  0.010  0.288  0.557-   4 1.81   5 1.95   3 1.95  37 2.04  36 2.31
  59  0.168  0.278  0.732-   5 1.81   8 2.15
  60  0.999  0.169  0.235-   7 1.69   6 2.06
  61  0.172  0.480  0.476-  19 2.06   3 2.12  14 2.20  12 2.25  28 2.27
  62  0.178  0.501  0.985-  26 2.02  17 2.24   8 2.26   1 2.29  15 2.36  10 2.41
  63  0.995  0.503  0.840-  40 1.67  10 1.72   8 1.83
  64  0.177  0.960  0.142-   9 1.64  23 1.91   7 2.39
  65  0.184  0.940  0.338-  11 2.07  22 2.09   6 2.14
  66  0.007  0.526  0.637-  12 1.89   5 1.90  37 2.06
  67  0.176  0.757  0.909-  26 1.80  10 2.06  16 2.34  32 2.37
  68  0.977  0.692  0.083-  47 1.97  15 2.01   9 2.15  41 2.19
  69  0.984  0.717  0.423-  11 1.82  12 1.86  43 2.00  14 2.36  46 2.44
  70  0.175  0.755  0.569-  13 1.83  11 1.92  28 2.25  29 2.27  12 2.34
  71  0.007  0.813  0.717-  13 1.61  16 2.09
  72  0.153  0.704  0.241-  15 1.97  14 1.97
  73  0.318  0.016  0.479-  22 2.06  20 2.20   4 2.26  29 2.32  27 2.33  11 2.51
  74  0.300  0.001  0.020-  23 1.86   2 2.17   9 2.22  25 2.34  18 2.48
  75  0.495  0.040  0.816-  32 1.99  18 2.04  48 2.23
  76  0.325  0.431  0.170-  17 1.97  31 2.11  15 2.31
  77  0.322  0.456  0.329-  19 1.71  14 1.92  30 1.98
  78  0.494  0.063  0.635-  20 1.59  29 2.05  45 2.26
  79  0.362  0.262  0.886-  18 1.78  24 1.82   2 2.26   8 2.29
  80  0.489  0.203  0.095-  23 1.86  39 2.07  33 2.09  17 2.18  18 2.47
  81  0.473  0.210  0.400-  22 1.87  38 1.92  19 1.96  35 2.12  20 2.24
  82  0.298  0.296  0.571-   5 1.85   4 2.03  21 2.14  19 2.32  20 2.38
  83  0.476  0.323  0.742-  24 1.76  21 1.92
  84  0.333  0.159  0.249-  22 1.73  23 1.94
  85  0.496  0.458  0.490-  35 1.74  19 1.98  28 2.06  21 2.09  44 2.23  30 2.25
  86  0.477  0.494  0.992-  42 2.07  31 2.14  26 2.17  17 2.27  24 2.34  33 2.40
  87  0.317  0.520  0.826-  24 1.85   8 1.99  26 2.13
  88  0.487  0.957  0.144-  23 1.99  39 2.02  25 2.02
  89  0.470  0.964  0.339-  38 1.91  27 1.99  22 2.17
  90  0.319  0.503  0.645-   5 1.92  28 1.95  21 2.00
  91  0.492  0.769  0.890-  48 2.00  42 2.05  26 2.11  32 2.31  25 2.33
  92  0.325  0.702  0.072-  25 1.85  15 1.96  26 2.01  31 2.02   9 2.51
  93  0.309  0.694  0.395-  14 1.67  11 2.12  30 2.14  27 2.25  28 2.34
  94  0.488  0.757  0.560-  45 1.90  27 1.91  44 1.91  28 1.92  29 2.26
  95  0.304  0.808  0.741-  32 1.72  29 2.12
  96  0.471  0.665  0.235-  31 1.87  30 2.11
  97  0.653  0.028  0.477-  38 1.72  36 1.98  20 2.04  43 2.36  27 2.45
  98  0.687  0.996  0.001-  41 2.01  39 2.20  34 2.26
  99  0.816  0.005  0.829-  48 1.87  16 2.03  34 2.12
 100  0.676  0.457  0.161-  47 1.80  33 2.10  31 2.19
 101  0.648  0.451  0.317-  46 1.86  30 1.91  35 2.08
 102  0.810  0.020  0.637-  45 2.18  36 2.26  13 2.51
 103  0.646  0.300  0.889-  24 1.96  34 2.19  40 2.20  18 2.27  33 2.39
 104  0.800  0.180  0.111-  39 1.60   7 1.68  33 2.21
 105  0.801  0.240  0.409-  36 1.81  35 1.97   3 2.11  38 2.27   6 2.52
 106  0.687  0.273  0.551-  36 1.75  35 1.91  37 1.99  20 2.18  21 2.30
 107  0.816  0.292  0.739-  40 1.91  37 2.19
 108  0.635  0.202  0.246-  39 2.04  38 2.17
 109  0.833  0.486  0.481-   3 1.73  12 1.94  46 2.05  37 2.13  35 2.30  44 2.34
 110  0.845  0.493  0.005-   1 1.72  47 2.13  10 2.36  33 2.41  42 2.48
 111  0.671  0.521  0.819-  24 2.16  40 2.20  42 2.24
 112  0.815  0.942  0.151-  41 1.63  39 1.95   7 2.12
 113  0.809  0.951  0.329-  43 1.99  38 2.17   6 2.32
 114  0.635  0.516  0.633-  21 1.79  44 2.05  37 2.18
 115  0.772  0.754  0.902-  48 1.82  42 1.85  10 2.27
 116  0.652  0.677  0.070-  42 1.89  31 2.01  47 2.14  25 2.23  41 2.30
 117  0.627  0.710  0.411-  44 1.81  27 1.91  30 1.97  46 2.28  43 2.30
 118  0.782  0.742  0.550-  44 1.71  43 1.95  45 2.10  12 2.25
 119  0.638  0.837  0.727-  45 1.77  48 1.78
 120  0.803  0.666  0.224-  47 1.62  46 2.22
 
  LATTYP: Found a simple orthorhombic cell.
 ALAT       =     8.9259767500
 B/A-ratio  =     1.1146370060
 C/A-ratio  =     1.6738812646
  
  Lattice vectors:
  
 A1 = (   8.9259767500,   0.0000000000,   0.0000000000)
 A2 = (   0.0000000000,   9.9492240000,   0.0000000000)
 A3 = (   0.0000000000,   0.0000000000,  14.9410252500)


Analysis of symmetry for initial positions (statically):
=====================================================================
 Subroutine PRICEL returns:
 Original cell was already a primitive cell.
 

 Routine SETGRP: Setting up the symmetry group for a 
 simple orthorhombic supercell.


 Subroutine GETGRP returns: Found  1 space group operations
 (whereof  1 operations were pure point group operations)
 out of a pool of  8 trial point group operations.


The static configuration has the point symmetry C_1 .


Analysis of symmetry for dynamics (positions and initial velocities):
=====================================================================
 Subroutine PRICEL returns:
 Original cell was already a primitive cell.
 

 Routine SETGRP: Setting up the symmetry group for a 
 simple orthorhombic supercell.


 Subroutine GETGRP returns: Found  1 space group operations
 (whereof  1 operations were pure point group operations)
 out of a pool of  8 trial point group operations.


The dynamic configuration has the point symmetry C_1 .


Analysis of structural, dynamic, and magnetic symmetry:
=====================================================================
 Subroutine PRICEL returns:
 Original cell was already a primitive cell.
 

 Routine SETGRP: Setting up the symmetry group for a 
 simple orthorhombic supercell.


 Subroutine GETGRP returns: Found  1 space group operations
 (whereof  1 operations were pure point group operations)
 out of a pool of  8 trial point group operations.


The magnetic configuration has the point symmetry C_1 .


 Subroutine INISYM returns: Found  1 space group operations
 (whereof  1 operations are pure point group operations),
 and found     1 'primitive' translations

 
 
 KPOINTS: Automatic mesh                          

Automatic generation of k-mesh.
Space group operators:
 irot       det(A)        alpha          n_x          n_y          n_z        tau_x        tau_y        tau_z
    1     1.000000     0.000001     1.000000     0.000000     0.000000     0.000000     0.000000     0.000000
 
 Subroutine IBZKPT returns following result:
 ===========================================
 
 Found     10 irreducible k-points:
 
 Following reciprocal coordinates:
            Coordinates               Weight
  0.000000  0.000000  0.000000      1.000000
  0.333333  0.000000  0.000000      2.000000
  0.000000  0.333333  0.000000      2.000000
  0.333333  0.333333  0.000000      2.000000
 -0.333333  0.333333  0.000000      2.000000
  0.000000  0.000000  0.500000      1.000000
  0.333333  0.000000  0.500000      2.000000
  0.000000  0.333333  0.500000      2.000000
  0.333333  0.333333  0.500000      2.000000
 -0.333333  0.333333  0.500000      2.000000
 
 Following cartesian coordinates:
            Coordinates               Weight
  0.000000  0.000000  0.000000      1.000000
  0.037344  0.000000  0.000000      2.000000
  0.000000  0.033503  0.000000      2.000000
  0.037344  0.033503  0.000000      2.000000
 -0.037344  0.033503  0.000000      2.000000
  0.000000  0.000000  0.033465      1.000000
  0.037344  0.000000  0.033465      2.000000
  0.000000  0.033503  0.033465      2.000000
  0.037344  0.033503  0.033465      2.000000
 -0.037344  0.033503  0.033465      2.000000
 


--------------------------------------------------------------------------------------------------------




 Dimension of arrays:
   k-points           NKPTS =     10   k-points in BZ     NKDIM =     10   number of bands    NBANDS=    608
   number of dos      NEDOS =    301   number of ions     NIONS =    120
   non local maximal  LDIM  =      6   non local SUM 2l+1 LMDIM =     18
   total plane-waves  NPLWV = 627200
   max r-space proj   IRMAX =   6396   max aug-charges    IRDMAX=  15520
   dimension x,y,z NGX =    70 NGY =   80 NGZ =  112
   dimension x,y,z NGXF=   140 NGYF=  160 NGZF=  224
   support grid    NGXF=   140 NGYF=  160 NGZF=  224
   ions per type =              48  72
   NGX,Y,Z   is equivalent  to a cutoff of  13.04, 13.37, 12.46 a.u.
   NGXF,Y,Z  is equivalent  to a cutoff of  26.07, 26.74, 24.92 a.u.

 SYSTEM =  unknown system                          
 POSCAR =  Ni2O3_Cmcm_scale_1_025_disp_0_15_round_2

 Startparameter for this run:
   NWRITE =      1    write-flag & timer
   PREC   = accura    normal or accurate (medium, high low for compatibility)
   ISTART =      0    job   : 0-new  1-cont  2-samecut
   ICHARG =      2    charge: 1-file 2-atom 10-const
   ISPIN  =      2    spin polarized calculation?
   LNONCOLLINEAR =      F non collinear calculations
   LSORBIT =      F    spin-orbit coupling
   INIWAV =      1    electr: 0-lowe 1-rand  2-diag
   LASPH  =      F    aspherical Exc in radial PAW
   METAGGA=      F    non-selfconsistent MetaGGA calc.

 Electronic Relaxation 1
   ENCUT  =  500.0 eV  36.75 Ry    6.06 a.u.  16.27 18.14 27.24*2*pi/ulx,y,z
   ENINI  =  500.0     initial cutoff
   ENAUG  =  605.4 eV  augmentation charge cutoff
   NELM   =     80;   NELMIN=  2; NELMDL= -5     # of ELM steps 
   EDIFF  = 0.1E-04   stopping-criterion for ELM
   LREAL  =      T    real-space projection
   NLSPLINE    = F    spline interpolate recip. space projectors
   LCOMPAT=      F    compatible to vasp.4.4
   GGA_COMPAT  = T    GGA compatible to vasp.4.4-vasp.4.6
   LMAXPAW     = -100 max onsite density
   LMAXMIX     =    2 max onsite mixed and CHGCAR
   VOSKOWN=      1    Vosko Wilk Nusair interpolation
   ROPT   =   -0.00025  -0.00025
 Ionic relaxation
   EDIFFG = 0.1E-03   stopping-criterion for IOM
   NSW    =      0    number of steps for IOM
   NBLOCK =      1;   KBLOCK =      1    inner block; outer block 
   IBRION =     -1    ionic relax: 0-MD 1-quasi-New 2-CG
   NFREE  =      0    steps in history (QN), initial steepest desc. (CG)
   ISIF   =      2    stress and relaxation
   IWAVPR =     10    prediction:  0-non 1-charg 2-wave 3-comb
   ISYM   =      2    0-nonsym 1-usesym 2-fastsym
   LCORR  =      T    Harris-Foulkes like correction to forces

   POTIM  = 0.5000    time-step for ionic-motion
   TEIN   =    0.0    initial temperature
   TEBEG  =    0.0;   TEEND  =   0.0 temperature during run
   SMASS  =  -3.00    Nose mass-parameter (am)
   estimated Nose-frequenzy (Omega)   =  0.10E-29 period in steps =****** mass=  -0.182E-26a.u.
   SCALEE = 1.0000    scale energy and forces
   NPACO  =    256;   APACO  = 16.0  distance and # of slots for P.C.
   PSTRESS=    0.0 pullay stress

  Mass of Ions in am
   POMASS =  58.69 16.00
  Ionic Valenz
   ZVAL   =  10.00  6.00
  Atomic Wigner-Seitz radii
   RWIGS  =   1.15  0.73
  virtual crystal weights 
   VCA    =   1.00  1.00
   NELECT =     912.0000    total number of electrons
   NUPDOWN=      -1.0000    fix difference up-down

 DOS related values:
   EMIN   =  10.00;   EMAX   =-10.00  energy-range for DOS
   EFERMI =   0.00
   ISMEAR =     0;   SIGMA  =   0.05  broadening in eV -4-tet -1-fermi 0-gaus

 Electronic relaxation 2 (details)
   IALGO  =     38    algorithm
   LDIAG  =      T    sub-space diagonalisation (order eigenvalues)
   LSUBROT=      F    optimize rotation matrix (better conditioning)
   TURBO    =      0    0=normal 1=particle mesh
   IRESTART =      0    0=no restart 2=restart with 2 vectors
   NREBOOT  =      0    no. of reboots
   NMIN     =      0    reboot dimension
   EREF     =   0.00    reference energy to select bands
   IMIX   =      4    mixing-type and parameters
     AMIX     =   0.40;   BMIX     =  1.00
     AMIX_MAG =   1.60;   BMIX_MAG =  1.00
     AMIN     =   0.10
     WC   =   100.;   INIMIX=   1;  MIXPRE=   1;  MAXMIX= -45

 Intra band minimization:
   WEIMIN = 0.0000     energy-eigenvalue tresh-hold
   EBREAK =  0.41E-08  absolut break condition
   DEPER  =   0.30     relativ break condition  

   TIME   =   0.40     timestep for ELM

  volume/ion in A,a.u.               =      11.06        74.62
  Fermi-wavevector in a.u.,A,eV,Ry     =   1.444768  2.730215 28.400167  2.087353
  Thomas-Fermi vector in A             =   2.563025
 
 Write flags
   LWAVE        =      F    write WAVECAR
   LDOWNSAMPLE  =      F    k-point downsampling of WAVECAR
   LCHARG       =      T    write CHGCAR
   LVTOT        =      F    write LOCPOT, total local potential
   LVHAR        =      F    write LOCPOT, Hartree potential only
   LELF         =      F    write electronic localiz. function (ELF)
   LORBIT       =      0    0 simple, 1 ext, 2 COOP (PROOUT), +10 PAW based schemes


 Dipole corrections
   LMONO  =      F    monopole corrections only (constant potential shift)
   LDIPOL =      F    correct potential (dipole corrections)
   IDIPOL =      0    1-x, 2-y, 3-z, 4-all directions 
   EPSILON=  1.0000000 bulk dielectric constant

 Exchange correlation treatment:
   GGA     =    PS    GGA type
   LEXCH   =    14    internal setting for exchange type
   VOSKOWN=      1    Vosko Wilk Nusair interpolation
   LHFCALC =     F    Hartree Fock is set to
   LHFONE  =     F    Hartree Fock one center treatment
   AEXX    =    0.0000 exact exchange contribution

 Linear response parameters
   LEPSILON=     F    determine dielectric tensor
   LRPA    =     F    only Hartree local field effects (RPA)
   LNABLA  =     F    use nabla operator in PAW spheres
   LVEL    =     F    velocity operator in full k-point grid
   LINTERFAST=   F  fast interpolation
   KINTER  =     0    interpolate to denser k-point grid
   CSHIFT  =0.1000    complex shift for real part using Kramers Kronig
   OMEGAMAX=  -1.0    maximum frequency
   DEG_THRESHOLD= 0.2000000E-02 threshold for treating states as degnerate
   RTIME   =   -0.100 relaxation time in fs
  (WPLASMAI=    0.000 imaginary part of plasma frequency in eV, 0.658/RTIME)
   DFIELD  = 0.0000000 0.0000000 0.0000000 field for delta impulse in time
 
 Orbital magnetization related:
   ORBITALMAG=     F  switch on orbital magnetization
   LCHIMAG   =     F  perturbation theory with respect to B field
   DQ        =  0.001000  dq finite difference perturbation B field
   LLRAUG    =     F  two centre corrections for induced B field



--------------------------------------------------------------------------------------------------------


 Static calculation
 charge density and potential will be updated during run
 spin polarized calculation
 Variant of blocked Davidson
 Davidson routine will perform the subspace rotation
 perform sub-space diagonalisation
    after iterative eigenvector-optimisation
 modified Broyden-mixing scheme, WC =      100.0
 initial mixing is a Kerker type mixing with AMIX =  0.4000 and BMIX =      1.0000
 Hartree-type preconditioning will be used
 using additional bands          152
 real space projection scheme for non local part
 use partial core corrections
 calculate Harris-corrections to forces 
   (improved forces if not selfconsistent)
 use gradient corrections 
 use of overlap-Matrix (Vanderbilt PP)
 Gauss-broadening in eV      SIGMA  =   0.05


--------------------------------------------------------------------------------------------------------


  energy-cutoff  :      500.00
  volume of cell :     1326.86
      direct lattice vectors                 reciprocal lattice vectors
     8.925976750  0.000000000  0.000000000     0.112032557  0.000000000  0.000000000
     0.000000000  9.949224000  0.000000000     0.000000000  0.100510351  0.000000000
     0.000000000  0.000000000 14.941025250     0.000000000  0.000000000  0.066929811

  length of vectors
     8.925976750  9.949224000 14.941025250     0.112032557  0.100510351  0.066929811


 
 k-points in units of 2pi/SCALE and weight: Automatic mesh                          
   0.00000000  0.00000000  0.00000000       0.056
   0.03734419  0.00000000  0.00000000       0.111
   0.00000000  0.03350345  0.00000000       0.111
   0.03734419  0.03350345  0.00000000       0.111
  -0.03734419  0.03350345  0.00000000       0.111
   0.00000000  0.00000000  0.03346491       0.056
   0.03734419  0.00000000  0.03346491       0.111
   0.00000000  0.03350345  0.03346491       0.111
   0.03734419  0.03350345  0.03346491       0.111
  -0.03734419  0.03350345  0.03346491       0.111
 
 k-points in reciprocal lattice and weights: Automatic mesh                          
   0.00000000  0.00000000  0.00000000       0.056
   0.33333333  0.00000000  0.00000000       0.111
   0.00000000  0.33333333  0.00000000       0.111
   0.33333333  0.33333333  0.00000000       0.111
  -0.33333333  0.33333333  0.00000000       0.111
   0.00000000  0.00000000  0.50000000       0.056
   0.33333333  0.00000000  0.50000000       0.111
   0.00000000  0.33333333  0.50000000       0.111
   0.33333333  0.33333333  0.50000000       0.111
  -0.33333333  0.33333333  0.50000000       0.111
 
 position of ions in fractional coordinates (direct lattice) 
   0.97875774  0.37753311  0.03586433
   0.17051258  0.13178916  0.93304992
   0.97099540  0.37839533  0.44354339
   0.14400430  0.15710152  0.53449386
   0.14976514  0.38442990  0.63376627
   0.01277818  0.08738126  0.36114151
   0.96498036  0.10582632  0.13201028
   0.15474895  0.38973946  0.85422830
   0.11381412  0.86667957  0.05992112
   0.98882887  0.63596287  0.91292823
   0.14411709  0.82246706  0.45033212
   0.98244262  0.61072099  0.52485341
   0.01871177  0.85495733  0.61283146
   0.17687370  0.59533361  0.35034665
   0.16211430  0.60051024  0.12807391
   0.01712632  0.91255054  0.83997896
   0.31558708  0.34221051  0.05162987
   0.48154282  0.13990628  0.93516137
   0.33794135  0.36059584  0.42327889
   0.49392914  0.13910818  0.54157710
   0.49755379  0.38698232  0.62217509
   0.30220825  0.11844489  0.35980549
   0.32785668  0.09401922  0.12658595
   0.47352242  0.40325177  0.84735762
   0.47177476  0.82554163  0.04135998
   0.32230800  0.64398227  0.94243300
   0.48127204  0.84072877  0.44448923
   0.35769060  0.60717354  0.53709596
   0.33519814  0.91519694  0.61922748
   0.49625846  0.56985937  0.35973286
   0.47945823  0.57662262  0.12417652
   0.32111232  0.91683833  0.82940049
   0.65458298  0.33333171  0.04745106
   0.81995607  0.15634398  0.92876995
   0.63093271  0.35584011  0.44012212
   0.81420580  0.15096319  0.51397872
   0.83421163  0.39409916  0.61006145
   0.62791943  0.08457811  0.36884388
   0.66482792  0.08220360  0.13615999
   0.86081684  0.38670940  0.84711267
   0.81544752  0.85480064  0.05874153
   0.63500149  0.63189817  0.94800855
   0.82241736  0.85185614  0.44461818
   0.64011507  0.63461360  0.52078682
   0.63138533  0.87486924  0.61173765
   0.80063432  0.56391172  0.35573994
   0.82775797  0.57088256  0.13735838
   0.66227818  0.87836430  0.84209242
   0.99349623  0.97094288  0.49333418
   0.01603784  0.01180157  0.98199684
   0.18347412  0.05672255  0.82605405
   0.98333234  0.43929098  0.15258581
   0.97341475  0.43808739  0.33088700
   0.14487446  0.01503499  0.62771302
   0.01534498  0.25251173  0.90041854
   0.15504255  0.21747097  0.07087426
   0.15969069  0.21110432  0.40970259
   0.00951650  0.28836781  0.55732645
   0.16837673  0.27831804  0.73154164
   0.99888935  0.16851347  0.23491132
   0.17226933  0.48029002  0.47620628
   0.17774337  0.50105658  0.98499163
   0.99491663  0.50274209  0.83992428
   0.17734992  0.95974930  0.14232116
   0.18391394  0.94038222  0.33833477
   0.00734477  0.52564076  0.63679039
   0.17581230  0.75734124  0.90947535
   0.97662819  0.69224690  0.08255675
   0.98383805  0.71656946  0.42256552
   0.17501920  0.75506250  0.56909416
   0.00700058  0.81302267  0.71691258
   0.15256906  0.70379232  0.24062850
   0.31841207  0.01552878  0.47932234
   0.30038942  0.00088711  0.02001093
   0.49511893  0.03980416  0.81611827
   0.32529119  0.43088772  0.16956831
   0.32175268  0.45614177  0.32874752
   0.49399320  0.06268149  0.63517838
   0.36192440  0.26204740  0.88612539
   0.48914719  0.20253594  0.09526066
   0.47261691  0.20966681  0.39988529
   0.29812934  0.29618064  0.57076100
   0.47608064  0.32284177  0.74245838
   0.33314478  0.15941897  0.24911531
   0.49627477  0.45773153  0.49043948
   0.47747941  0.49401852  0.99175467
   0.31695410  0.52048507  0.82571550
   0.48735025  0.95722013  0.14417226
   0.46980923  0.96355041  0.33930891
   0.31855941  0.50326055  0.64513251
   0.49234591  0.76884962  0.89030022
   0.32541446  0.70194833  0.07155410
   0.30912141  0.69388288  0.39467627
   0.48775497  0.75685181  0.55967635
   0.30393939  0.80762653  0.74060954
   0.47136396  0.66533970  0.23452294
   0.65255468  0.02751995  0.47662602
   0.68694780  0.99599675  0.00128216
   0.81565259  0.00522554  0.82916553
   0.67566590  0.45674428  0.16088742
   0.64803238  0.45073078  0.31678711
   0.80953860  0.01994034  0.63722154
   0.64603709  0.29977895  0.88925201
   0.80037432  0.18019361  0.11057947
   0.80138737  0.23955375  0.40880353
   0.68713340  0.27289257  0.55079209
   0.81591675  0.29215136  0.73913205
   0.63514409  0.20160389  0.24611807
   0.83290807  0.48620908  0.48101891
   0.84454549  0.49254485  0.00472457
   0.67114520  0.52101085  0.81895303
   0.81535068  0.94223972  0.15112874
   0.80870611  0.95103184  0.32947760
   0.63540348  0.51624160  0.63287445
   0.77171604  0.75386415  0.90219752
   0.65215267  0.67723399  0.07024984
   0.62690923  0.70996703  0.41092537
   0.78176511  0.74185097  0.54976520
   0.63801188  0.83674862  0.72731299
   0.80301768  0.66633631  0.22363880
 
 position of ions in cartesian coordinates  (Angst):
   8.73636883  3.75616148  0.53584986
   1.52199132  1.31119987 13.94072241
   8.66708236  3.76473990  6.62699299
   1.28537903  1.56303821  7.98588626
   1.33680016  3.82477919  9.46911784
   0.11405774  0.86937573  5.39582442
   8.61339226  1.05288976  1.97236893
   1.38128553  3.87760519 12.76304660
   1.01590219  8.62278918  0.89528297
   8.82626350  6.32733705 13.64008374
   1.28638579  8.18290901  6.72842358
   8.76925998  6.07619993  7.84184805
   0.16702082  8.50616199  9.15633032
   1.57877053  5.92310744  5.23453814
   1.44702847  5.97461089  1.91355552
   0.15286913  9.07916973 12.55014685
   2.81692294  3.40472902  0.77140319
   4.29824002  1.39195892 13.97226964
   3.01645663  3.58764879  6.32422058
   4.40880002  1.38401844  8.09171713
   4.44115356  3.85017379  9.29593373
   2.69750381  1.17843474  5.37586291
   2.92644110  0.93541828  1.89132388
   4.22665011  4.01204219 12.66039160
   4.21105054  8.21349860  0.61796051
   2.87691371  6.40712386 14.08091525
   4.29582304  8.36459886  6.64112481
   3.19273798  6.04090556  8.02476430
   2.99197080  9.10549936  9.25189341
   4.42959148  5.66965852  5.37477774
   4.27963301  5.73694761  1.85532452
   2.86624110  9.12182992 12.39209366
   5.84279246  3.31639185  0.70896749
   7.31890882  1.55550128 13.87677527
   5.63169070  3.54033296  6.57587571
   7.26758204  1.50196659  7.67936903
   7.44615361  3.92098082  9.11494353
   5.60479423  0.84148656  5.51090572
   5.93423856  0.81786203  2.03436985
   7.68363110  3.84745844 12.65673179
   7.27866560  8.50460304  0.87765868
   5.66800854  6.28689644 14.16421968
   7.34087823  8.47530755  6.64305145
   5.71365223  6.31391286  7.78108903
   5.63573078  8.70427004  9.13998768
   7.14644333  5.61048402  5.31511943
   7.38854839  5.67983847  2.05227502
   5.91147964  8.73904317 12.58172411
   8.86792425  9.66012820  7.37091844
   0.14315339  0.11741646 14.67203958
   1.63768573  0.56434536 12.34209442
   8.77720160  4.37060436  2.27978844
   8.68867743  4.35862957  4.94379102
   1.29314606  0.14958648  9.37867608
   0.13696893  2.51229576 13.45317614
   1.38390620  2.16366739  1.05893411
   1.42539539  2.10032417  6.12137674
   0.08494406  2.86903594  8.32702856
   1.50292678  2.76904852 10.92998211
   8.91606311  1.67657826  3.50981596
   1.53767203  4.77851299  7.11501005
   1.58653319  4.98512415 14.71678481
   8.88060271  5.00189367 12.54932988
   1.58302126  9.54876077  2.12642405
   1.64161155  9.35607335  5.05506834
   0.06555925  5.22971766  9.51430130
   1.56929650  7.53495764 13.58849417
   8.71736052  6.88731947  1.23348249
   8.78171556  7.12931007  6.31356210
   1.56221731  7.51228595  8.50285021
   0.06248701  8.08894466 10.71140896
   1.36182788  7.00218744  3.59523649
   2.84213873  0.15449931  7.16156718
   2.68126898  0.00882606  0.29898381
   4.41942006  0.39602050 12.19364368
   2.90354160  4.28699845  2.53352440
   2.87195694  4.53825665  4.91182500
   4.40937182  0.62363218  9.49021621
   3.23052878  2.60716828 13.23962183
   4.36611645  2.01507544  1.42329193
   4.21856755  2.08602206  5.97469621
   2.66109556  2.94676753  8.52775451
   4.24948472  3.21202509 11.09308940
   2.97364256  1.58609504  3.72203814
   4.42973706  4.55407352  7.32766865
   4.26197011  4.91510092 14.81783157
   2.82912493  5.17842255 12.33703613
   4.35007700  9.52359749  2.15408138
   4.19350626  9.58657886  5.06962299
   2.84345389  5.00705194  9.63894112
   4.39466815  7.64945709 13.30199807
   2.90464190  6.98384117  1.06909161
   2.75921052  6.90359620  5.89686812
   4.35368952  7.53008819  8.36213848
   2.71295593  8.03525726 11.06546584
   4.20738375  6.61961371  3.50401317
   5.82468790  0.27380215  7.12128140
   6.13168009  9.90939477  0.01915678
   7.28049605  0.05199007 12.38858312
   6.03097811  4.54425115  2.40382300
   5.78432196  4.48442149  4.73312421
   7.22592272  0.19839091  9.52074312
   5.76651204  2.98256792 13.28633674
   7.14412257  1.79278659  1.65217065
   7.15316503  2.38337392  6.10794386
   6.13333675  2.71506931  8.22939852
   7.28285394  2.90667932 11.04339062
   5.66928138  2.00580226  3.67725630
   7.43451807  4.83740305  7.18691568
   7.53839341  4.90043904  0.07058992
   5.99062645  5.18365365 12.23599790
   7.27780121  9.37455404  2.25801832
   7.21849194  9.46202881  4.92273314
   5.67159669  5.13620332  9.45579314
   6.88831943  7.50036329 13.47975593
   5.82109957  6.73795267  1.04960463
   5.59577721  7.06362101  6.13964633
   6.97801720  7.38084148  8.21405573
   5.69487921  8.32499945 10.86680175
   7.16771714  6.62952921  3.34139296
 


--------------------------------------------------------------------------------------------------------


 k-point  1 :   0.0000 0.0000 0.0000  plane waves:   33683
 k-point  2 :   0.3333 0.0000 0.0000  plane waves:   33688
 k-point  3 :   0.0000 0.3333 0.0000  plane waves:   33656
 k-point  4 :   0.3333 0.3333 0.0000  plane waves:   33676
 k-point  5 :  -0.3333 0.3333 0.0000  plane waves:   33676
 k-point  6 :   0.0000 0.0000 0.5000  plane waves:   33710
 k-point  7 :   0.3333 0.0000 0.5000  plane waves:   33628
 k-point  8 :   0.0000 0.3333 0.5000  plane waves:   33658
 k-point  9 :   0.3333 0.3333 0.5000  plane waves:   33710
 k-point 10 :  -0.3333 0.3333 0.5000  plane waves:   33710

 maximum and minimum number of plane-waves per node :     33710    33628

 maximum number of plane-waves:     33710
 maximum index in each direction: 
   IXMAX=   16   IYMAX=   18   IZMAX=   27
   IXMIN=  -16   IYMIN=  -18   IZMIN=  -27

 The following grids will avoid any aliasing or wrap around errors in the Hartre
 e energy
  - symmetry arguments have not been applied
  - exchange correlation energies might require even more grid points
  - we recommend to set PREC=Normal or Accurate and rely on VASP defaults
 NGX is ok and might be reduce to    70
 NGY is ok and might be reduce to    80
 NGZ is ok and might be reduce to   112

 serial   3D FFT for wavefunctions
 parallel 3D FFT for charge:
    minimum data exchange during FFTs selected (reduces bandwidth)


 total amount of memory used by VASP MPI-rank0   623696. kBytes
=======================================================================

   base      :      30000. kBytes
   nonlr-proj:      72750. kBytes
   fftplans  :      13422. kBytes
   grid      :      76344. kBytes
   one-center:       3732. kBytes
   wavefun   :     427448. kBytes
 
     INWAV:  cpu time    0.0000: real time    0.0000
 Broyden mixing: mesh for mixing (old mesh)
   NGX = 33   NGY = 37   NGZ = 55
  (NGX  =140   NGY  =160   NGZ  =224)
  gives a total of  67155 points

 initial charge density was supplied:
 charge density of overlapping atoms calculated
 number of electron     912.0000000 magnetization     120.0000000
 keeping initial charge density in first step


--------------------------------------------------------------------------------------------------------


 Maximum index for non-local projection operator         6184
 Maximum index for augmentation-charges         1222 (set IRDMAX)


--------------------------------------------------------------------------------------------------------


 First call to EWALD:  gamma=   0.161
 Maximum number of real-space cells 3x 3x 2
 Maximum number of reciprocal cells 2x 3x 4

    FEWALD:  cpu time    0.0079: real time    0.0079


--------------------------------------- Iteration      1(   1)  ---------------------------------------


    POTLOK:  cpu time    0.4063: real time    0.4932
    SETDIJ:  cpu time    0.0773: real time    0.0810
     EDDAV:  cpu time  185.9017: real time  186.3432
    --------------------------------------------
      LOOP:  cpu time  186.3892: real time  186.9230

 eigenvalue-minimisations  : 24320
 total energy-change (2. order) : 0.1137367E+05  (-0.3826423E+05)
 number of electron     912.0000000 magnetization     120.0000000
 augmentation part      912.0000000 magnetization     120.0000000

 Free energy of the ion-electron system (eV)
  ---------------------------------------------------
  alpha Z        PSCENC =      2828.68208838
  Ewald energy   TEWEN  =    -57096.28942486
  -Hartree energ DENC   =    -28472.88176695
  -exchange      EXHF   =         0.00000000
  -V(xc)+E(xc)   XCENC  =      3564.40546767
  PAW double counting   =     71080.72462945   -74396.17323249
  entropy T*S    EENTRO =        -0.01858955
  eigenvalues    EBANDS =     11159.40020025
  atomic energy  EATOM  =     82705.81968683
  Solvation  Ediel_sol  =         0.00000000
  ---------------------------------------------------
  free energy    TOTEN  =     11373.66905872 eV

  energy without entropy =    11373.68764827  energy(sigma->0) =    11373.67835350


--------------------------------------------------------------------------------------------------------




--------------------------------------- Iteration      1(   2)  ---------------------------------------


     EDDAV:  cpu time  191.4378: real time  191.8943
    --------------------------------------------
      LOOP:  cpu time  191.4371: real time  191.8919

 eigenvalue-minimisations  : 24320
 total energy-change (2. order) :-0.9576373E+04  (-0.8749439E+04)
 number of electron     912.0000000 magnetization     120.0000000
 augmentation part      912.0000000 magnetization     120.0000000

 Free energy of the ion-electron system (eV)
  ---------------------------------------------------
  alpha Z        PSCENC =      2828.68208838
  Ewald energy   TEWEN  =    -57096.28942486
  -Hartree energ DENC   =    -28472.88176695
  -exchange      EXHF   =         0.00000000
  -V(xc)+E(xc)   XCENC  =      3564.40546767
  PAW double counting   =     71080.72462945   -74396.17323249
  entropy T*S    EENTRO =        -0.05347544
  eigenvalues    EBANDS =      1583.06227493
  atomic energy  EATOM  =     82705.81968683
  Solvation  Ediel_sol  =         0.00000000
  ---------------------------------------------------
  free energy    TOTEN  =      1797.29624751 eV

  energy without entropy =     1797.34972295  energy(sigma->0) =     1797.32298523


--------------------------------------------------------------------------------------------------------




--------------------------------------- Iteration      1(   3)  ---------------------------------------


     EDDAV:  cpu time  191.5716: real time  192.0266
    --------------------------------------------
      LOOP:  cpu time  191.5725: real time  192.0276

 eigenvalue-minimisations  : 24832
 total energy-change (2. order) :-0.2421710E+04  (-0.2104830E+04)
 number of electron     912.0000000 magnetization     120.0000000
 augmentation part      912.0000000 magnetization     120.0000000

 Free energy of the ion-electron system (eV)
  ---------------------------------------------------
  alpha Z        PSCENC =      2828.68208838
  Ewald energy   TEWEN  =    -57096.28942486
  -Hartree energ DENC   =    -28472.88176695
  -exchange      EXHF   =         0.00000000
  -V(xc)+E(xc)   XCENC  =      3564.40546767
  PAW double counting   =     71080.72462945   -74396.17323249
  entropy T*S    EENTRO =        -0.20341546
  eigenvalues    EBANDS =      -838.49801654
  atomic energy  EATOM  =     82705.81968683
  Solvation  Ediel_sol  =         0.00000000
  ---------------------------------------------------
  free energy    TOTEN  =      -624.41398398 eV

  energy without entropy =     -624.21056852  energy(sigma->0) =     -624.31227625


--------------------------------------------------------------------------------------------------------




--------------------------------------- Iteration      1(   4)  ---------------------------------------


     EDDAV:  cpu time  197.6178: real time  198.0873
    --------------------------------------------
      LOOP:  cpu time  197.6170: real time  198.0865

 eigenvalue-minimisations  : 27216
 total energy-change (2. order) :-0.3406650E+03  (-0.3245398E+03)
 number of electron     912.0000000 magnetization     120.0000000
 augmentation part      912.0000000 magnetization     120.0000000

 Free energy of the ion-electron system (eV)
  ---------------------------------------------------
  alpha Z        PSCENC =      2828.68208838
  Ewald energy   TEWEN  =    -57096.28942486
  -Hartree energ DENC   =    -28472.88176695
  -exchange      EXHF   =         0.00000000
  -V(xc)+E(xc)   XCENC  =      3564.40546767
  PAW double counting   =     71080.72462945   -74396.17323249
  entropy T*S    EENTRO =        -0.19908865
  eigenvalues    EBANDS =     -1179.16732192
  atomic energy  EATOM  =     82705.81968683
  Solvation  Ediel_sol  =         0.00000000
  ---------------------------------------------------
  free energy    TOTEN  =      -965.07896256 eV

  energy without entropy =     -964.87987390  energy(sigma->0) =     -964.97941823


--------------------------------------------------------------------------------------------------------




--------------------------------------- Iteration      1(   5)  ---------------------------------------


     EDDAV:  cpu time  178.2876: real time  178.7110
    CHARGE:  cpu time    7.4022: real time    7.4268
    MIXING:  cpu time    0.0087: real time    0.0114
    --------------------------------------------
      LOOP:  cpu time  185.6950: real time  186.1458

 eigenvalue-minimisations  : 26848
 total energy-change (2. order) :-0.1234991E+02  (-0.1220356E+02)
 number of electron     912.0000079 magnetization     125.0130539
 augmentation part      299.9475984 magnetization      89.6300615

 Broyden mixing:
  rms(total) = 0.16328E+02    rms(broyden)= 0.16326E+02
  rms(prec ) = 0.18201E+02
  weight for this iteration     100.00

 Free energy of the ion-electron system (eV)
  ---------------------------------------------------
  alpha Z        PSCENC =      2828.68208838
  Ewald energy   TEWEN  =    -57096.28942486
  -Hartree energ DENC   =    -28472.88176695
  -exchange      EXHF   =         0.00000000
  -V(xc)+E(xc)   XCENC  =      3564.40546767
  PAW double counting   =     71080.72462945   -74396.17323249
  entropy T*S    EENTRO =        -0.19784434
  eigenvalues    EBANDS =     -1191.51847752
  atomic energy  EATOM  =     82705.81968683
  Solvation  Ediel_sol  =         0.00000000
  ---------------------------------------------------
  free energy    TOTEN  =      -977.42887384 eV

  energy without entropy =     -977.23102950  energy(sigma->0) =     -977.32995167


--------------------------------------------------------------------------------------------------------




--------------------------------------- Iteration      1(   6)  ---------------------------------------


    POTLOK:  cpu time    0.3814: real time    0.3823
    SETDIJ:  cpu time    0.0466: real time    0.0467
     EDDAV:  cpu time  229.2399: real time  229.7845
    CHARGE:  cpu time    7.2430: real time    7.2602
    MIXING:  cpu time    0.0085: real time    0.0272
    --------------------------------------------
      LOOP:  cpu time  236.9195: real time  237.5010

 eigenvalue-minimisations  : 37040
 total energy-change (2. order) :-0.2307982E+03  (-0.2143006E+03)
 number of electron     912.0000120 magnetization     117.6217425
 augmentation part      396.2109725 magnetization     116.5918412

 Broyden mixing:
  rms(total) = 0.32346E+02    rms(broyden)= 0.32345E+02
  rms(prec ) = 0.34748E+02
  weight for this iteration     100.00

 eigenvalues of (default mixing * dielectric matrix)
  average eigenvalue GAMMA=   0.2293
  0.2293

 Free energy of the ion-electron system (eV)
  ---------------------------------------------------
  alpha Z        PSCENC =      2828.68208838
  Ewald energy   TEWEN  =    -57096.28942486
  -Hartree energ DENC   =    -27099.91264912
  -exchange      EXHF   =         0.00000000
  -V(xc)+E(xc)   XCENC  =      3592.75157402
  PAW double counting   =     75493.80079808   -78330.21299049
  entropy T*S    EENTRO =        -0.07400975
  eigenvalues    EBANDS =     -3302.79214147
  atomic energy  EATOM  =     82705.81968683
  Solvation  Ediel_sol  =         0.00000000
  ---------------------------------------------------
  free energy    TOTEN  =     -1208.22706839 eV

  energy without entropy =    -1208.15305864  energy(sigma->0) =    -1208.19006352


--------------------------------------------------------------------------------------------------------




--------------------------------------- Iteration      1(   7)  ---------------------------------------


    POTLOK:  cpu time    0.3646: real time    0.3655
    SETDIJ:  cpu time    0.0461: real time    0.0462
     EDDAV:  cpu time  205.7357: real time  206.2245
    CHARGE:  cpu time    7.0598: real time    7.0766
    MIXING:  cpu time    0.0089: real time    0.0256
    --------------------------------------------
      LOOP:  cpu time  213.2152: real time  213.7384

 eigenvalue-minimisations  : 32592
 total energy-change (2. order) : 0.4210496E+03  (-0.6110061E+02)
 number of electron     912.0000111 magnetization     110.6753980
 augmentation part      362.7681872 magnetization      96.2762522

 Broyden mixing:
  rms(total) = 0.14902E+02    rms(broyden)= 0.14900E+02
  rms(prec ) = 0.16473E+02
  weight for this iteration     100.00

 eigenvalues of (default mixing * dielectric matrix)
  average eigenvalue GAMMA=   0.4449
  0.4449  0.4449

 Free energy of the ion-electron system (eV)
  ---------------------------------------------------
  alpha Z        PSCENC =      2828.68208838
  Ewald energy   TEWEN  =    -57096.28942486
  -Hartree energ DENC   =    -27661.09706372
  -exchange      EXHF   =         0.00000000
  -V(xc)+E(xc)   XCENC  =      3558.58829591
  PAW double counting   =     78065.37444204   -81204.31944088
  entropy T*S    EENTRO =        -0.11762398
  eigenvalues    EBANDS =     -1983.81843709
  atomic energy  EATOM  =     82705.81968683
  Solvation  Ediel_sol  =         0.00000000
  ---------------------------------------------------
  free energy    TOTEN  =      -787.17747738 eV

  energy without entropy =     -787.05985340  energy(sigma->0) =     -787.11866539


--------------------------------------------------------------------------------------------------------




--------------------------------------- Iteration      1(   8)  ---------------------------------------


    POTLOK:  cpu time    0.3786: real time    0.3795
    SETDIJ:  cpu time    0.0467: real time    0.0468
     EDDAV:  cpu time  228.6299: real time  229.1731
    CHARGE:  cpu time    7.2391: real time    7.2562
    MIXING:  cpu time    0.0090: real time    0.0133
    --------------------------------------------
      LOOP:  cpu time  236.3033: real time  236.8690

 eigenvalue-minimisations  : 37168
 total energy-change (2. order) :-0.1006926E+03  (-0.3044055E+02)
 number of electron     912.0000107 magnetization     104.7058716
 augmentation part      353.9260540 magnetization      91.4979640

 Broyden mixing:
  rms(total) = 0.17034E+02    rms(broyden)= 0.17032E+02
  rms(prec ) = 0.22340E+02
  weight for this iteration     100.00

 eigenvalues of (default mixing * dielectric matrix)
  average eigenvalue GAMMA=   0.4141
  0.5391  0.5391  0.1642

 Free energy of the ion-electron system (eV)
  ---------------------------------------------------
  alpha Z        PSCENC =      2828.68208838
  Ewald energy   TEWEN  =    -57096.28942486
  -Hartree energ DENC   =    -27624.31667427
  -exchange      EXHF   =         0.00000000
  -V(xc)+E(xc)   XCENC  =      3540.67805761
  PAW double counting   =     79570.93940869   -82841.55743740
  entropy T*S    EENTRO =        -0.09941364
  eigenvalues    EBANDS =     -1971.72634845
  atomic energy  EATOM  =     82705.81968683
  Solvation  Ediel_sol  =         0.00000000
  ---------------------------------------------------
  free energy    TOTEN  =      -887.87005712 eV

  energy without entropy =     -887.77064348  energy(sigma->0) =     -887.82035030


--------------------------------------------------------------------------------------------------------




--------------------------------------- Iteration      1(   9)  ---------------------------------------


    POTLOK:  cpu time    0.3807: real time    0.3816
    SETDIJ:  cpu time    0.0467: real time    0.0468
     EDDAV:  cpu time  192.5481: real time  193.0088
    CHARGE:  cpu time    6.9770: real time    6.9937
    MIXING:  cpu time    0.0092: real time    0.0092
    --------------------------------------------
      LOOP:  cpu time  199.9616: real time  200.4401

 eigenvalue-minimisations  : 29744
 total energy-change (2. order) :-0.2084644E+01  (-0.4379173E+02)
 number of electron     912.0000111 magnetization     100.2044851
 augmentation part      331.6153642 magnetization      85.7236616

 Broyden mixing:
  rms(total) = 0.20262E+02    rms(broyden)= 0.20261E+02
  rms(prec ) = 0.27053E+02
  weight for this iteration     100.00

 eigenvalues of (default mixing * dielectric matrix)
  average eigenvalue GAMMA=   0.3655
  0.5863  0.5863  0.1446  0.1446

 Free energy of the ion-electron system (eV)
  ---------------------------------------------------
  alpha Z        PSCENC =      2828.68208838
  Ewald energy   TEWEN  =    -57096.28942486
  -Hartree energ DENC   =    -27635.76429552
  -exchange      EXHF   =         0.00000000
  -V(xc)+E(xc)   XCENC  =      3535.14978661
  PAW double counting   =     80928.96340481   -84264.44687045
  entropy T*S    EENTRO =        -0.10015293
  eigenvalues    EBANDS =     -1891.96892373
  atomic energy  EATOM  =     82705.81968683
  Solvation  Ediel_sol  =         0.00000000
  ---------------------------------------------------
  free energy    TOTEN  =      -889.95470087 eV

  energy without entropy =     -889.85454793  energy(sigma->0) =     -889.90462440


--------------------------------------------------------------------------------------------------------




--------------------------------------- Iteration      1(  10)  ---------------------------------------


    POTLOK:  cpu time    0.3805: real time    0.3814
    SETDIJ:  cpu time    0.0465: real time    0.0466
     EDDAV:  cpu time  214.2822: real time  214.7931
    CHARGE:  cpu time    7.4353: real time    7.4529
    MIXING:  cpu time    0.0093: real time    0.0093
    --------------------------------------------
      LOOP:  cpu time  222.1537: real time  222.6833

 eigenvalue-minimisations  : 34352
 total energy-change (2. order) : 0.7681457E+02  (-0.2141312E+02)
 number of electron     912.0000089 magnetization      95.3759475
 augmentation part      330.6404855 magnetization      73.0765556

 Broyden mixing:
  rms(total) = 0.14254E+02    rms(broyden)= 0.14253E+02
  rms(prec ) = 0.17879E+02
  weight for this iteration     100.00

 eigenvalues of (default mixing * dielectric matrix)
  average eigenvalue GAMMA=   0.3547
  0.6484  0.6484  0.1913  0.1913  0.0945

 Free energy of the ion-electron system (eV)
  ---------------------------------------------------
  alpha Z        PSCENC =      2828.68208838
  Ewald energy   TEWEN  =    -57096.28942486
  -Hartree energ DENC   =    -27673.15283283
  -exchange      EXHF   =         0.00000000
  -V(xc)+E(xc)   XCENC  =      3532.29328902
  PAW double counting   =     81885.04799030   -85251.80858296
  entropy T*S    EENTRO =        -0.17841349
  eigenvalues    EBANDS =     -1743.55393483
  atomic energy  EATOM  =     82705.81968683
  Solvation  Ediel_sol  =         0.00000000
  ---------------------------------------------------
  free energy    TOTEN  =      -813.14013446 eV

  energy without entropy =     -812.96172097  energy(sigma->0) =     -813.05092771


--------------------------------------------------------------------------------------------------------




--------------------------------------- Iteration      1(  11)  ---------------------------------------


    POTLOK:  cpu time    0.3745: real time    0.3754
    SETDIJ:  cpu time    0.0473: real time    0.0474
     EDDAV:  cpu time  197.2420: real time  197.7106
    CHARGE:  cpu time    7.1102: real time    7.1271
    MIXING:  cpu time    0.0095: real time    0.0095
    --------------------------------------------
      LOOP:  cpu time  204.7835: real time  205.2700

 eigenvalue-minimisations  : 31136
 total energy-change (2. order) : 0.3611054E+02  (-0.1700029E+02)
 number of electron     912.0000103 magnetization      92.5625925
 augmentation part      334.1579910 magnetization      73.8003880

 Broyden mixing:
  rms(total) = 0.14630E+02    rms(broyden)= 0.14629E+02
  rms(prec ) = 0.18664E+02
  weight for this iteration     100.00

 eigenvalues of (default mixing * dielectric matrix)
  average eigenvalue GAMMA=   0.3292
  0.6782  0.6782  0.2066  0.2066  0.1378  0.0678

 Free energy of the ion-electron system (eV)
  ---------------------------------------------------
  alpha Z        PSCENC =      2828.68208838
  Ewald energy   TEWEN  =    -57096.28942486
  -Hartree energ DENC   =    -27593.50803846
  -exchange      EXHF   =         0.00000000
  -V(xc)+E(xc)   XCENC  =      3530.62341517
  PAW double counting   =     82850.28274688   -86228.22003775
  entropy T*S    EENTRO =        -0.12840168
  eigenvalues    EBANDS =     -1774.29162915
  atomic energy  EATOM  =     82705.81968683
  Solvation  Ediel_sol  =         0.00000000
  ---------------------------------------------------
  free energy    TOTEN  =      -777.02959465 eV

  energy without entropy =     -776.90119297  energy(sigma->0) =     -776.96539381


--------------------------------------------------------------------------------------------------------




--------------------------------------- Iteration      1(  12)  ---------------------------------------


    POTLOK:  cpu time    0.3763: real time    0.3772
    SETDIJ:  cpu time    0.0461: real time    0.0462
     EDDAV:  cpu time  212.0015: real time  212.5051
    CHARGE:  cpu time    6.9581: real time    6.9746
    MIXING:  cpu time    0.0102: real time    0.0102
    --------------------------------------------
      LOOP:  cpu time  219.3922: real time  219.9134

 eigenvalue-minimisations  : 33408
 total energy-change (2. order) : 0.5548686E+02  (-0.6829034E+01)
 number of electron     912.0000089 magnetization      89.7445168
 augmentation part      336.6588826 magnetization      69.0848256

 Broyden mixing:
  rms(total) = 0.91137E+01    rms(broyden)= 0.91127E+01
  rms(prec ) = 0.11004E+02
  weight for this iteration     100.00

 eigenvalues of (default mixing * dielectric matrix)
  average eigenvalue GAMMA=   0.3419
  0.7312  0.7312  0.3138  0.3138  0.1254  0.0889  0.0889

 Free energy of the ion-electron system (eV)
  ---------------------------------------------------
  alpha Z        PSCENC =      2828.68208838
  Ewald energy   TEWEN  =    -57096.28942486
  -Hartree energ DENC   =    -27593.04434064
  -exchange      EXHF   =         0.00000000
  -V(xc)+E(xc)   XCENC  =      3530.19136221
  PAW double counting   =     83364.73605241   -86752.20662837
  entropy T*S    EENTRO =        -0.16257482
  eigenvalues    EBANDS =     -1709.26896057
  atomic energy  EATOM  =     82705.81968683
  Solvation  Ediel_sol  =         0.00000000
  ---------------------------------------------------
  free energy    TOTEN  =      -721.54273945 eV

  energy without entropy =     -721.38016462  energy(sigma->0) =     -721.46145203


--------------------------------------------------------------------------------------------------------




--------------------------------------- Iteration      1(  13)  ---------------------------------------


    POTLOK:  cpu time    0.3762: real time    0.3771
    SETDIJ:  cpu time    0.0458: real time    0.0459
     EDDAV:  cpu time  194.3116: real time  194.7732
    CHARGE:  cpu time    7.1515: real time    7.1685
    MIXING:  cpu time    0.0103: real time    0.0103
    --------------------------------------------
      LOOP:  cpu time  201.8955: real time  202.3751

 eigenvalue-minimisations  : 30688
 total energy-change (2. order) :-0.3350633E+01  (-0.4945555E+01)
 number of electron     912.0000120 magnetization      86.5237178
 augmentation part      335.8705824 magnetization      64.7343010

 Broyden mixing:
  rms(total) = 0.11894E+02    rms(broyden)= 0.11893E+02
  rms(prec ) = 0.14852E+02
  weight for this iteration     100.00

 eigenvalues of (default mixing * dielectric matrix)
  average eigenvalue GAMMA=   0.3401
  0.9151  0.6563  0.3675  0.3675  0.1238  0.1101  0.1101  0.0700

 Free energy of the ion-electron system (eV)
  ---------------------------------------------------
  alpha Z        PSCENC =      2828.68208838
  Ewald energy   TEWEN  =    -57096.28942486
  -Hartree energ DENC   =    -27594.35813913
  -exchange      EXHF   =         0.00000000
  -V(xc)+E(xc)   XCENC  =      3529.47696160
  PAW double counting   =     83756.60428597   -87150.26397380
  entropy T*S    EENTRO =        -0.15898315
  eigenvalues    EBANDS =     -1704.40587384
  atomic energy  EATOM  =     82705.81968683
  Solvation  Ediel_sol  =         0.00000000
  ---------------------------------------------------
  free energy    TOTEN  =      -724.89337201 eV

  energy without entropy =     -724.73438887  energy(sigma->0) =     -724.81388044


--------------------------------------------------------------------------------------------------------




--------------------------------------- Iteration      1(  14)  ---------------------------------------


    POTLOK:  cpu time    0.3765: real time    0.3774
    SETDIJ:  cpu time    0.0463: real time    0.0464
     EDDAV:  cpu time  205.4408: real time  205.9290
    CHARGE:  cpu time    7.0225: real time    7.0392
    MIXING:  cpu time    0.0107: real time    0.0107
    --------------------------------------------
      LOOP:  cpu time  212.8969: real time  213.4027

 eigenvalue-minimisations  : 32928
 total energy-change (2. order) : 0.8691438E+01  (-0.4676184E+01)
 number of electron     912.0000102 magnetization      83.6905667
 augmentation part      336.4009853 magnetization      61.2636167

 Broyden mixing:
  rms(total) = 0.11169E+02    rms(broyden)= 0.11169E+02
  rms(prec ) = 0.14023E+02
  weight for this iteration     100.00

 eigenvalues of (default mixing * dielectric matrix)
  average eigenvalue GAMMA=   0.3314
  1.0655  0.5882  0.3903  0.3903  0.1624  0.1228  0.1228  0.0701  0.0701

 Free energy of the ion-electron system (eV)
  ---------------------------------------------------
  alpha Z        PSCENC =      2828.68208838
  Ewald energy   TEWEN  =    -57096.28942486
  -Hartree energ DENC   =    -27598.83354738
  -exchange      EXHF   =         0.00000000
  -V(xc)+E(xc)   XCENC  =      3528.96176169
  PAW double counting   =     84222.50406315   -87621.73319692
  entropy T*S    EENTRO =        -0.13944479
  eigenvalues    EBANDS =     -1685.17392001
  atomic energy  EATOM  =     82705.81968683
  Solvation  Ediel_sol  =         0.00000000
  ---------------------------------------------------
  free energy    TOTEN  =      -716.20193392 eV

  energy without entropy =     -716.06248913  energy(sigma->0) =     -716.13221152


--------------------------------------------------------------------------------------------------------




--------------------------------------- Iteration      1(  15)  ---------------------------------------


    POTLOK:  cpu time    0.3743: real time    0.3752
    SETDIJ:  cpu time    0.0462: real time    0.0463
     EDDAV:  cpu time  199.3483: real time  199.8219
    CHARGE:  cpu time    7.3157: real time    7.3331
    MIXING:  cpu time    0.0113: real time    0.0113
    --------------------------------------------
      LOOP:  cpu time  207.0958: real time  207.5878

 eigenvalue-minimisations  : 31648
 total energy-change (2. order) : 0.3833275E+01  (-0.3304638E+01)
 number of electron     912.0000084 magnetization      81.5442583
 augmentation part      336.8134907 magnetization      60.4728334

 Broyden mixing:
  rms(total) = 0.98039E+01    rms(broyden)= 0.98033E+01
  rms(prec ) = 0.12378E+02
  weight for this iteration     100.00

 eigenvalues of (default mixing * dielectric matrix)
  average eigenvalue GAMMA=   0.3233
  1.1334  0.5772  0.4179  0.4179  0.1979  0.1296  0.1296  0.0795  0.0795  0.0702

 Free energy of the ion-electron system (eV)
  ---------------------------------------------------
  alpha Z        PSCENC =      2828.68208838
  Ewald energy   TEWEN  =    -57096.28942486
  -Hartree energ DENC   =    -27610.59079839
  -exchange      EXHF   =         0.00000000
  -V(xc)+E(xc)   XCENC  =      3528.63272728
  PAW double counting   =     84645.97817816   -88053.31553423
  entropy T*S    EENTRO =        -0.12993712
  eigenvalues    EBANDS =     -1661.15564466
  atomic energy  EATOM  =     82705.81968683
  Solvation  Ediel_sol  =         0.00000000
  ---------------------------------------------------
  free energy    TOTEN  =      -712.36865861 eV

  energy without entropy =     -712.23872150  energy(sigma->0) =     -712.30369005


--------------------------------------------------------------------------------------------------------




--------------------------------------- Iteration      1(  16)  ---------------------------------------


    POTLOK:  cpu time    0.3772: real time    0.3781
    SETDIJ:  cpu time    0.0463: real time    0.0464
     EDDAV:  cpu time  201.0593: real time  201.5369
    CHARGE:  cpu time    7.2235: real time    7.2407
    MIXING:  cpu time    0.0150: real time    0.0528
    --------------------------------------------
      LOOP:  cpu time  208.7213: real time  209.2549

 eigenvalue-minimisations  : 32016
 total energy-change (2. order) : 0.2051437E+02  (-0.1512476E+01)
 number of electron     912.0000095 magnetization      79.5081339
 augmentation part      337.8575814 magnetization      57.2094132

 Broyden mixing:
  rms(total) = 0.61918E+01    rms(broyden)= 0.61913E+01
  rms(prec ) = 0.74386E+01
  weight for this iteration     100.00

 eigenvalues of (default mixing * dielectric matrix)
  average eigenvalue GAMMA=   0.3236
  1.1916  0.5451  0.4798  0.4798  0.2586  0.1629  0.1125  0.1125  0.0750  0.0709
  0.0709

 Free energy of the ion-electron system (eV)
  ---------------------------------------------------
  alpha Z        PSCENC =      2828.68208838
  Ewald energy   TEWEN  =    -57096.28942486
  -Hartree energ DENC   =    -27613.69679689
  -exchange      EXHF   =         0.00000000
  -V(xc)+E(xc)   XCENC  =      3528.56156453
  PAW double counting   =     84918.27997328   -88329.10085904
  entropy T*S    EENTRO =        -0.13924743
  eigenvalues    EBANDS =     -1633.97127144
  atomic energy  EATOM  =     82705.81968683
  Solvation  Ediel_sol  =         0.00000000
  ---------------------------------------------------
  free energy    TOTEN  =      -691.85428666 eV

  energy without entropy =     -691.71503922  energy(sigma->0) =     -691.78466294


--------------------------------------------------------------------------------------------------------




--------------------------------------- Iteration      1(  17)  ---------------------------------------


    POTLOK:  cpu time    0.3777: real time    0.3786
    SETDIJ:  cpu time    0.0461: real time    0.0462
     EDDAV:  cpu time  197.0870: real time  197.5552
    CHARGE:  cpu time    7.4078: real time    7.4254
    MIXING:  cpu time    0.0121: real time    0.0122
    --------------------------------------------
      LOOP:  cpu time  204.9307: real time  205.4176

 eigenvalue-minimisations  : 31248
 total energy-change (2. order) : 0.4971650E+01  (-0.1804151E+01)
 number of electron     912.0000100 magnetization      76.3731802
 augmentation part      338.3095139 magnetization      54.3670087

 Broyden mixing:
  rms(total) = 0.45256E+01    rms(broyden)= 0.45248E+01
  rms(prec ) = 0.53787E+01
  weight for this iteration     100.00

 eigenvalues of (default mixing * dielectric matrix)
  average eigenvalue GAMMA=   0.3335
  1.2787  0.5555  0.5555  0.5169  0.3176  0.2272  0.1216  0.1216  0.0906  0.0707
  0.0732  0.0732

 Free energy of the ion-electron system (eV)
  ---------------------------------------------------
  alpha Z        PSCENC =      2828.68208838
  Ewald energy   TEWEN  =    -57096.28942486
  -Hartree energ DENC   =    -27621.25566041
  -exchange      EXHF   =         0.00000000
  -V(xc)+E(xc)   XCENC  =      3528.38729153
  PAW double counting   =     85163.05025379   -88577.35927392
  entropy T*S    EENTRO =        -0.13899575
  eigenvalues    EBANDS =     -1617.77860263
  atomic energy  EATOM  =     82705.81968683
  Solvation  Ediel_sol  =         0.00000000
  ---------------------------------------------------
  free energy    TOTEN  =      -686.88263705 eV

  energy without entropy =     -686.74364130  energy(sigma->0) =     -686.81313918


--------------------------------------------------------------------------------------------------------




--------------------------------------- Iteration      1(  18)  ---------------------------------------


    POTLOK:  cpu time    0.3610: real time    0.3619
    SETDIJ:  cpu time    0.0460: real time    0.0461
     EDDAV:  cpu time  193.8035: real time  194.2639
    CHARGE:  cpu time    7.1250: real time    7.1419
    MIXING:  cpu time    0.0117: real time    0.0117
    --------------------------------------------
      LOOP:  cpu time  201.3472: real time  201.8255

 eigenvalue-minimisations  : 30384
 total energy-change (2. order) :-0.1298754E+01  (-0.1341927E+01)
 number of electron     912.0000105 magnetization      73.8936212
 augmentation part      337.9328625 magnetization      51.7576263

 Broyden mixing:
  rms(total) = 0.52983E+01    rms(broyden)= 0.52976E+01
  rms(prec ) = 0.64010E+01
  weight for this iteration     100.00

 eigenvalues of (default mixing * dielectric matrix)
  average eigenvalue GAMMA=   0.3379
  1.4135  0.6061  0.6061  0.4083  0.4083  0.2825  0.1181  0.1181  0.1018  0.1018
  0.0761  0.0756  0.0756

 Free energy of the ion-electron system (eV)
  ---------------------------------------------------
  alpha Z        PSCENC =      2828.68208838
  Ewald energy   TEWEN  =    -57096.28942486
  -Hartree energ DENC   =    -27632.50691880
  -exchange      EXHF   =         0.00000000
  -V(xc)+E(xc)   XCENC  =      3527.99218452
  PAW double counting   =     85489.51501597   -88908.01022704
  entropy T*S    EENTRO =        -0.13290100
  eigenvalues    EBANDS =     -1603.25089507
  atomic energy  EATOM  =     82705.81968683
  Solvation  Ediel_sol  =         0.00000000
  ---------------------------------------------------
  free energy    TOTEN  =      -688.18139109 eV

  energy without entropy =     -688.04849009  energy(sigma->0) =     -688.11494059


--------------------------------------------------------------------------------------------------------




--------------------------------------- Iteration      1(  19)  ---------------------------------------


    POTLOK:  cpu time    0.3661: real time    0.3670
    SETDIJ:  cpu time    0.0461: real time    0.0462
     EDDAV:  cpu time  198.1451: real time  198.6158
    CHARGE:  cpu time    7.3551: real time    7.3726
    MIXING:  cpu time    0.0135: real time    0.0136
    --------------------------------------------
      LOOP:  cpu time  205.9259: real time  206.4151

 eigenvalue-minimisations  : 31328
 total energy-change (2. order) :-0.2958699E+00  (-0.1316666E+01)
 number of electron     912.0000091 magnetization      71.9684690
 augmentation part      337.8816123 magnetization      50.6150176

 Broyden mixing:
  rms(total) = 0.54108E+01    rms(broyden)= 0.54104E+01
  rms(prec ) = 0.67867E+01
  weight for this iteration     100.00

 eigenvalues of (default mixing * dielectric matrix)
  average eigenvalue GAMMA=   0.3376
  1.4827  0.6474  0.6474  0.4043  0.4043  0.3357  0.1774  0.1157  0.1157  0.0958
  0.0723  0.0723  0.0854  0.0700

 Free energy of the ion-electron system (eV)
  ---------------------------------------------------
  alpha Z        PSCENC =      2828.68208838
  Ewald energy   TEWEN  =    -57096.28942486
  -Hartree energ DENC   =    -27638.76296962
  -exchange      EXHF   =         0.00000000
  -V(xc)+E(xc)   XCENC  =      3527.64473323
  PAW double counting   =     85753.07158533   -89174.58108553
  entropy T*S    EENTRO =        -0.13363147
  eigenvalues    EBANDS =     -1593.92824324
  atomic energy  EATOM  =     82705.81968683
  Solvation  Ediel_sol  =         0.00000000
  ---------------------------------------------------
  free energy    TOTEN  =      -688.47726096 eV

  energy without entropy =     -688.34362949  energy(sigma->0) =     -688.41044523


--------------------------------------------------------------------------------------------------------




--------------------------------------- Iteration      1(  20)  ---------------------------------------


    POTLOK:  cpu time    0.3749: real time    0.3758
    SETDIJ:  cpu time    0.0462: real time    0.0463
     EDDAV:  cpu time  198.0801: real time  198.5507
    CHARGE:  cpu time    7.3028: real time    7.3201
    MIXING:  cpu time    0.0134: real time    0.0134
    --------------------------------------------
      LOOP:  cpu time  205.8173: real time  206.3063

 eigenvalue-minimisations  : 31232
 total energy-change (2. order) : 0.2329193E+01  (-0.1017742E+01)
 number of electron     912.0000098 magnetization      70.1489067
 augmentation part      337.8921229 magnetization      48.7857034

 Broyden mixing:
  rms(total) = 0.32071E+01    rms(broyden)= 0.32068E+01
  rms(prec ) = 0.38762E+01
  weight for this iteration     100.00

 eigenvalues of (default mixing * dielectric matrix)
  average eigenvalue GAMMA=   0.3369
  1.5152  0.6929  0.6929  0.3961  0.3961  0.3865  0.2475  0.1239  0.1239  0.0980
  0.0980  0.0733  0.0733  0.0694  0.0665

 Free energy of the ion-electron system (eV)
  ---------------------------------------------------
  alpha Z        PSCENC =      2828.68208838
  Ewald energy   TEWEN  =    -57096.28942486
  -Hartree energ DENC   =    -27646.65779151
  -exchange      EXHF   =         0.00000000
  -V(xc)+E(xc)   XCENC  =      3527.38683561
  PAW double counting   =     85932.50280348   -89356.60899311
  entropy T*S    EENTRO =        -0.13931791
  eigenvalues    EBANDS =     -1580.84395482
  atomic energy  EATOM  =     82705.81968683
  Solvation  Ediel_sol  =         0.00000000
  ---------------------------------------------------
  free energy    TOTEN  =      -686.14806792 eV

  energy without entropy =     -686.00875002  energy(sigma->0) =     -686.07840897


--------------------------------------------------------------------------------------------------------




--------------------------------------- Iteration      1(  21)  ---------------------------------------


    POTLOK:  cpu time    0.3628: real time    0.3637
    SETDIJ:  cpu time    0.0457: real time    0.0458
     EDDAV:  cpu time  189.9409: real time  190.3923
    CHARGE:  cpu time    7.4494: real time    7.4671
    MIXING:  cpu time    0.0153: real time    0.0297
    --------------------------------------------
      LOOP:  cpu time  197.8140: real time  198.2986

 eigenvalue-minimisations  : 29600
 total energy-change (2. order) : 0.1354123E+01  (-0.4666061E+00)
 number of electron     912.0000102 magnetization      68.1796814
 augmentation part      337.4535052 magnetization      47.4193003

 Broyden mixing:
  rms(total) = 0.26538E+01    rms(broyden)= 0.26534E+01
  rms(prec ) = 0.32057E+01
  weight for this iteration     100.00

 eigenvalues of (default mixing * dielectric matrix)
  average eigenvalue GAMMA=   0.3444
  1.6110  0.7492  0.7492  0.4337  0.4337  0.3329  0.3329  0.1495  0.1111  0.1111
  0.1195  0.0726  0.0726  0.0806  0.0806  0.0693

 Free energy of the ion-electron system (eV)
  ---------------------------------------------------
  alpha Z        PSCENC =      2828.68208838
  Ewald energy   TEWEN  =    -57096.28942486
  -Hartree energ DENC   =    -27652.06352387
  -exchange      EXHF   =         0.00000000
  -V(xc)+E(xc)   XCENC  =      3527.07032216
  PAW double counting   =     86068.37441873   -89493.87159572
  entropy T*S    EENTRO =        -0.13748763
  eigenvalues    EBANDS =     -1572.37842890
  atomic energy  EATOM  =     82705.81968683
  Solvation  Ediel_sol  =         0.00000000
  ---------------------------------------------------
  free energy    TOTEN  =      -684.79394488 eV

[...]
      7.26758      1.50197      7.67937         1.609083     -3.901314      2.183858
      7.44615      3.92098      9.11494        -0.999917      0.480072      2.198443
      5.60479      0.84149      5.51091         1.273261      0.607116     -5.332057
      5.93424      0.81786      2.03437        -5.939280     -3.717838      1.393811
      7.68363      3.84746     12.65673        -4.915792     -1.642921     -1.602297
      7.27867      8.50460      0.87766        -0.311995     -1.575211     -3.126755
      5.66801      6.28690     14.16422         0.460056     -1.447560     -1.384971
      7.34088      8.47531      6.64305        -0.245726      0.766842     -1.501922
      5.71365      6.31391      7.78109        -1.022487     -4.337028      1.376820
      5.63573      8.70427      9.13999         1.806505      1.960353      1.794990
      7.14644      5.61048      5.31512         0.851434      0.127280     -2.594072
      7.38855      5.67984      2.05228         0.376088     -1.625430     -3.353095
      5.91148      8.73904     12.58172        -0.730299      1.574766     -0.647210
      8.86792      9.66013      7.37092        -0.707423     -0.416759     -0.742329
      0.14315      0.11742     14.67204         0.042360     -0.187618     -0.178116
      1.63769      0.56435     12.34209        -0.449290     -1.909031      0.175324
      8.77720      4.37060      2.27979         0.134845      1.378577     -1.602312
      8.68868      4.35863      4.94379        -0.175682      1.951578      0.989872
      1.29315      0.14959      9.37868         1.085231     -0.166566     -0.542912
      0.13697      2.51230     13.45318        -0.669932      0.961709      0.962865
      1.38391      2.16367      1.05893         0.261441      0.453564     -1.270807
      1.42540      2.10032      6.12138        -1.992944      1.478937      0.993181
      0.08494      2.86904      8.32703        -1.886906      0.294826      0.037984
      1.50293      2.76905     10.92998        -0.482537      2.049501      0.743698
      8.91606      1.67658      3.50982         0.440391     -0.669037      2.203469
      1.53767      4.77851      7.11501        -0.341388      0.911524     -0.741756
      1.58653      4.98512     14.71678         0.065814     -0.467000      0.175728
      8.88060      5.00189     12.54933         1.717479      1.159753     -1.198932
      1.58302      9.54876      2.12642        -0.560322      2.031273      2.374457
      1.64161      9.35607      5.05507        -1.527606      0.931494      1.470420
      0.06556      5.22972      9.51430        -1.198940     -1.293513     -0.918749
      1.56930      7.53496     13.58849        -1.930344      0.720078      0.033915
      8.71736      6.88732      1.23348         0.142889      1.440726     -0.687273
      8.78172      7.12931      6.31356        -1.081959     -1.068003     -0.621737
      1.56222      7.51229      8.50285         0.389075     -0.449152     -0.886398
      0.06249      8.08894     10.71141        -0.428609     -0.152678      3.766261
      1.36183      7.00219      3.59524         0.443197     -2.700077      0.175666
      2.84214      0.15450      7.16157         0.506423     -0.173881      0.945622
      2.68127      0.00883      0.29898         1.022023      0.242786     -2.041756
      4.41942      0.39602     12.19364        -0.362508     -1.562225      2.386993
      2.90354      4.28700      2.53352         0.256197      1.803986     -2.904758
      2.87196      4.53826      4.91182         0.730405      1.733415     -0.819185
      4.40937      0.62363      9.49022        -0.658736     -3.797275      3.055479
      3.23053      2.60717     13.23962        -2.451524      0.363488      1.422514
      4.36612      2.01508      1.42329         0.625323      0.930944     -1.895076
      4.21857      2.08602      5.97470         0.618351      0.805203      1.877832
      2.66110      2.94677      8.52775         1.379586     -1.754907     -0.868783
      4.24948      3.21203     11.09309         0.440726      0.487847     -2.018499
      2.97364      1.58610      3.72204         0.096205      0.229379     -1.680266
      4.42974      4.55407      7.32767        -1.171896      1.509571      0.812952
      4.26197      4.91510     14.81783         0.411190      0.664364     -0.098714
      2.82912      5.17842     12.33704        -0.425189     -0.762635      1.473947
      4.35008      9.52360      2.15408         0.244780      0.644582     -0.829805
      4.19351      9.58658      5.06962         0.829768      0.036085      1.710617
      2.84345      5.00705      9.63894         0.356068      0.230846     -1.059644
      4.39467      7.64946     13.30200        -0.549987      0.295709      1.322536
      2.90464      6.98384      1.06909         0.258532     -0.770968     -0.614945
      2.75921      6.90360      5.89687         2.720183      1.690560      2.565963
      4.35369      7.53009      8.36214        -1.188722      0.924505     -0.187670
      2.71296      8.03526     11.06547         0.503747      1.427588     -1.545483
      4.20738      6.61961      3.50401         0.400217     -1.395540     -0.290294
      5.82469      0.27380      7.12128         0.390991     -0.980519      2.281324
      6.13168      9.90939      0.01916        -0.132150      0.289231      0.574147
      7.28050      0.05199     12.38858         0.842556     -0.498079      1.123671
      6.03098      4.54425      2.40382        -1.249011     -0.227581     -1.921712
      5.78432      4.48442      4.73312        -0.520168      0.700587      2.865182
      7.22592      0.19839      9.52074        -0.372356     -0.726829     -2.085998
      5.76651      2.98257     13.28634         0.729984     -1.036512      1.973955
      7.14412      1.79279      1.65217         1.465729      5.016378     -2.838887
      7.15317      2.38337      6.10794         0.039925      0.133896     -0.684395
      6.13334      2.71507      8.22940        -1.929063      1.329697      1.447614
      7.28285      2.90668     11.04339         0.871786      1.826800     -0.433414
      5.66928      2.00580      3.67726        -0.118913     -2.917227      0.426565
      7.43452      4.83740      7.18692        -1.864485      1.994010      1.054546
      7.53839      4.90044      0.07059        -1.520101      0.587484     -0.261042
      5.99063      5.18365     12.23600        -0.924482     -0.288625      2.147259
      7.27780      9.37455      2.25802         0.308817      2.087938      1.983465
      7.21849      9.46203      4.92273         0.188222      1.190532      2.784344
      5.67160      5.13620      9.45579         1.610571      0.074144     -0.969440
      6.88832      7.50036     13.47976         1.364739     -0.469483      1.300194
      5.82110      6.73795      1.04960        -0.834671      1.083403     -0.555889
      5.59578      7.06362      6.13965         0.303157      0.115708     -0.930992
      6.97802      7.38084      8.21406         2.151451      2.225387      0.674712
      5.69488      8.32500     10.86680        -0.062687     -0.154704     -0.109003
      7.16772      6.62953      3.34139        -0.116103      0.485387      3.986419
 -----------------------------------------------------------------------------------
    total drift:                                0.009164     -0.030403     -0.022630


--------------------------------------------------------------------------------------------------------



  FREE ENERGIE OF THE ION-ELECTRON SYSTEM (eV)
  ---------------------------------------------------
  free  energy   TOTEN  =      -694.0599209196 eV

  energy  without entropy=     -693.9350894530  energy(sigma->0) =     -693.99750519
 


--------------------------------------------------------------------------------------------------------


    POTLOK:  cpu time    0.4142: real time    0.4260


--------------------------------------------------------------------------------------------------------


     LOOP+:  cpu time17156.6827: real time17197.9141
    4ORBIT:  cpu time    0.0000: real time    0.0000

volume of typ            1:    23.0 %

volume of typ            2:     8.8 %
 
total charge     
 
# of ion       s       p       d       tot
------------------------------------------
    1        0.247   0.234   7.935   8.415
    2        0.240   0.271   7.871   8.382
    3        0.265   0.320   7.913   8.499
    4        0.230   0.259   7.874   8.363
    5        0.275   0.332   7.813   8.420
    6        0.193   0.174   7.861   8.227
    7        0.278   0.310   7.886   8.473
    8        0.221   0.237   7.870   8.329
    9        0.239   0.242   7.929   8.409
   10        0.210   0.199   7.908   8.316
   11        0.232   0.256   7.870   8.357
   12        0.229   0.257   7.910   8.396
   13        0.279   0.325   7.877   8.481
   14        0.253   0.273   7.877   8.402
   15        0.202   0.200   7.825   8.227
   16        0.186   0.154   7.860   8.200
   17        0.205   0.189   7.879   8.272
   18        0.210   0.189   7.899   8.298
   19        0.246   0.285   7.920   8.451
   20        0.261   0.283   7.942   8.486
   21        0.242   0.263   7.853   8.358
   22        0.286   0.375   7.841   8.502
   23        0.252   0.318   7.817   8.387
   24        0.272   0.331   7.813   8.416
   25        0.199   0.187   7.871   8.257
   26        0.229   0.258   7.856   8.343
   27        0.217   0.217   7.925   8.359
   28        0.201   0.205   7.918   8.325
   29        0.196   0.179   7.876   8.251
   30        0.226   0.244   7.883   8.353
   31        0.227   0.246   7.820   8.293
   32        0.262   0.272   7.837   8.371
   33        0.169   0.141   7.896   8.206
   34        0.176   0.149   7.891   8.216
   35        0.250   0.296   7.939   8.485
   36        0.248   0.278   7.917   8.444
   37        0.200   0.202   7.867   8.270
   38        0.254   0.295   7.846   8.395
   39        0.279   0.350   7.853   8.483
   40        0.258   0.283   7.872   8.414
   41        0.247   0.241   7.935   8.423
   42        0.233   0.248   7.862   8.343
   43        0.217   0.218   7.867   8.302
   44        0.275   0.329   7.938   8.541
   45        0.230   0.242   7.862   8.335
   46        0.212   0.201   7.889   8.302
   47        0.308   0.385   7.825   8.519
   48        0.262   0.302   7.808   8.372
   49        1.286   2.681   0.004   3.971
   50        1.289   2.666   0.004   3.959
   51        1.287   2.700   0.009   3.995
   52        1.295   2.651   0.006   3.952
   53        1.291   2.665   0.006   3.962
   54        1.288   2.666   0.005   3.959
   55        1.267   2.739   0.006   4.013
   56        1.276   2.695   0.004   3.975
   57        1.269   2.773   0.010   4.051
   58        1.265   2.779   0.009   4.052
   59        1.301   2.616   0.005   3.922
   60        1.292   2.667   0.007   3.966
   61        1.291   2.676   0.004   3.970
   62        1.291   2.664   0.003   3.958
   63        1.275   2.794   0.016   4.085
   64        1.294   2.699   0.010   4.004
   65        1.300   2.613   0.003   3.916
   66        1.278   2.701   0.006   3.986
   67        1.274   2.705   0.005   3.984
   68        1.274   2.703   0.004   3.981
   69        1.270   2.749   0.008   4.027
   70        1.279   2.715   0.007   4.001
   71        1.289   2.692   0.009   3.990
   72        1.298   2.609   0.003   3.911
   73        1.297   2.652   0.003   3.952
   74        1.298   2.667   0.005   3.970
   75        1.297   2.621   0.004   3.922
   76        1.301   2.609   0.004   3.913
   77        1.291   2.706   0.010   4.007
   78        1.294   2.706   0.012   4.011
   79        1.277   2.738   0.008   4.024
   80        1.275   2.709   0.006   3.990
   81        1.272   2.756   0.008   4.037
   82        1.283   2.710   0.006   3.999
   83        1.297   2.650   0.006   3.953
   84        1.286   2.680   0.006   3.972
   85        1.271   2.778   0.010   4.059
   86        1.277   2.695   0.003   3.975
   87        1.290   2.662   0.005   3.958
   88        1.287   2.660   0.004   3.951
   89        1.298   2.636   0.005   3.939
   90        1.293   2.662   0.006   3.960
   91        1.280   2.687   0.004   3.971
   92        1.268   2.744   0.008   4.020
   93        1.279   2.741   0.009   4.029
   94        1.262   2.777   0.010   4.049
   95        1.297   2.646   0.006   3.948
   96        1.301   2.605   0.004   3.910
   97        1.287   2.734   0.009   4.029
   98        1.284   2.660   0.003   3.947
   99        1.284   2.663   0.005   3.952
  100        1.297   2.650   0.006   3.952
  101        1.299   2.651   0.007   3.958
  102        1.304   2.577   0.002   3.882
  103        1.285   2.668   0.004   3.956
  104        1.278   2.805   0.016   4.099
  105        1.280   2.722   0.007   4.009
  106        1.276   2.760   0.010   4.045
  107        1.301   2.595   0.003   3.899
  108        1.309   2.570   0.002   3.882
  109        1.279   2.764   0.011   4.053
  110        1.283   2.715   0.007   4.005
  111        1.302   2.591   0.002   3.895
  112        1.294   2.708   0.011   4.013
  113        1.293   2.619   0.003   3.915
  114        1.284   2.684   0.006   3.974
  115        1.274   2.720   0.006   4.000
  116        1.284   2.701   0.006   3.991
  117        1.269   2.755   0.009   4.033
  118        1.277   2.749   0.009   4.035
  119        1.290   2.682   0.008   3.979
  120        1.299   2.673   0.009   3.980
--------------------------------------------------
tot         103.93  205.77  378.56  688.26
 
magnetization (x)
 
# of ion       s       p       d       tot
------------------------------------------
    1        0.003  -0.000   0.301   0.303
    2       -0.001  -0.001  -0.277  -0.279
    3       -0.002  -0.001  -0.343  -0.346
    4       -0.002  -0.003  -0.829  -0.834
    5       -0.002   0.007   0.539   0.545
    6       -0.001   0.006   1.215   1.220
    7        0.005   0.003   0.707   0.715
    8       -0.001   0.005  -0.311  -0.307
    9       -0.000   0.001   0.464   0.465
   10        0.006   0.007   0.950   0.963
   11        0.002   0.005   0.819   0.826
   12       -0.003   0.002  -0.482  -0.482
   13        0.002   0.004   0.349   0.355
   14       -0.003   0.001  -0.015  -0.017
   15        0.000   0.007   1.284   1.291
   16       -0.002   0.007   1.277   1.282
   17        0.002   0.009   1.001   1.012
   18        0.001   0.009   1.039   1.049
   19        0.003   0.008   0.732   0.743
   20       -0.001   0.002  -0.440  -0.439
   21       -0.002   0.004   0.613   0.615
   22       -0.000   0.003   0.520   0.523
   23       -0.002   0.002  -0.012  -0.013
   24       -0.003   0.001   0.218   0.217
   25        0.006   0.010   1.298   1.313
   26       -0.001   0.000  -0.304  -0.305
   27        0.003  -0.000   0.131   0.134
   28        0.004   0.006   0.856   0.865
   29       -0.002   0.006   0.794   0.798
   30       -0.000   0.008   0.537   0.545
   31       -0.004  -0.000   0.315   0.311
   32       -0.000   0.017   0.852   0.868
   33        0.002   0.002   1.237   1.240
   34        0.000   0.004   1.243   1.247
   35        0.002   0.003   0.075   0.080
   36       -0.002  -0.008  -0.425  -0.434
   37       -0.002   0.001   0.908   0.907
   38       -0.002  -0.006  -0.093  -0.100
   39       -0.004   0.003   0.104   0.103
   40       -0.002   0.009   0.834   0.842
   41        0.005   0.004   0.274   0.283
   42       -0.002  -0.002  -0.398  -0.402
   43        0.005   0.004   0.841   0.849
   44        0.002   0.006   0.301   0.309
   45       -0.000   0.002   1.086   1.088
   46        0.000   0.011   0.762   0.773
   47       -0.002   0.003   0.188   0.189
   48       -0.000  -0.003   0.328   0.325
   49        0.005   0.118   0.000   0.123
   50        0.003   0.107   0.000   0.110
   51        0.005   0.142   0.000   0.148
   52        0.004   0.134  -0.000   0.138
   53        0.004   0.135   0.000   0.138
   54        0.001   0.030   0.000   0.031
   55        0.004   0.039   0.000   0.043
   56        0.004   0.067   0.000   0.070
   57        0.003   0.063   0.000   0.066
   58       -0.001  -0.019  -0.000  -0.020
   59        0.008   0.401  -0.000   0.410
   60        0.012   0.497  -0.000   0.509
   61       -0.000  -0.034   0.000  -0.034
   62        0.002   0.064   0.000   0.066
   63        0.004   0.156   0.000   0.160
   64        0.002   0.117  -0.000   0.119
   65        0.009   0.396   0.000   0.406
   66        0.003   0.081   0.000   0.084
   67        0.003   0.116  -0.000   0.119
   68        0.006   0.095   0.000   0.101
   69        0.008   0.073   0.000   0.081
   70        0.004   0.015   0.000   0.019
   71        0.011   0.437  -0.000   0.448
   72        0.012   0.537  -0.000   0.549
   73       -0.001  -0.044   0.000  -0.045
   74        0.001   0.118   0.000   0.119
   75        0.007   0.246   0.000   0.253
   76        0.008   0.292   0.000   0.299
   77        0.005   0.124   0.000   0.129
   78        0.005   0.130  -0.000   0.134
   79        0.004   0.077   0.000   0.081
   80        0.007   0.096   0.000   0.103
   81        0.004   0.020   0.000   0.024
   82       -0.000  -0.055   0.000  -0.055
   83        0.010   0.445  -0.000   0.455
   84        0.011   0.453  -0.000   0.464
   85        0.012   0.056   0.000   0.068
   86        0.003   0.016   0.000   0.019
   87       -0.000   0.002  -0.000   0.002
   88        0.006   0.213   0.000   0.219
   89        0.002   0.065   0.000   0.067
   90        0.009   0.285   0.000   0.295
   91       -0.001   0.032  -0.000   0.031
   92        0.011   0.139   0.000   0.150
   93        0.004   0.008   0.000   0.013
   94        0.012   0.102   0.000   0.114
   95        0.010   0.494   0.000   0.505
   96        0.012   0.573  -0.000   0.585
   97       -0.004  -0.090  -0.000  -0.095
   98        0.005   0.065   0.000   0.070
   99        0.009   0.292  -0.000   0.301
  100        0.005   0.170  -0.000   0.175
  101        0.007   0.182  -0.000   0.189
  102        0.010   0.488  -0.000   0.498
  103        0.008   0.235   0.000   0.243
  104        0.007   0.121   0.000   0.128
  105       -0.002  -0.022  -0.000  -0.024
  106        0.001  -0.046   0.000  -0.044
  107        0.014   0.680  -0.000   0.694
  108        0.009   0.466  -0.000   0.475
  109        0.004  -0.036   0.000  -0.032
  110        0.003   0.105   0.000   0.108
  111        0.006   0.299  -0.000   0.306
  112        0.005   0.200  -0.000   0.205
  113        0.005   0.174   0.000   0.178
  114        0.004   0.068   0.000   0.072
  115        0.001   0.031   0.000   0.032
  116        0.001  -0.009   0.000  -0.007
  117        0.009   0.014   0.000   0.023
  118        0.004   0.042   0.000   0.045
  119        0.013   0.518  -0.000   0.531
  120        0.007   0.341  -0.000   0.349
--------------------------------------------------
tot           0.39   12.11   21.07   33.57
 

 total amount of memory used by VASP MPI-rank0   623696. kBytes
=======================================================================

   base      :      30000. kBytes
   nonlr-proj:      72750. kBytes
   fftplans  :      13422. kBytes
   grid      :      76344. kBytes
   one-center:       3732. kBytes
   wavefun   :     427448. kBytes
 
  
  
 General timing and accounting informations for this job:
 ========================================================
  
                  Total CPU time used (sec):    17325.996
                            User time (sec):    17308.109
                          System time (sec):       17.887
                         Elapsed time (sec):    17372.394
  
                   Maximum memory used (kb):      754816.
                   Average memory used (kb):           0.
  
                          Minor page faults:        49638
                          Major page faults:           50
                 Voluntary context switches:         1214
