 vasp.5.4.4.18Apr17-6-g9f103f2a35 (build May 12 2020 04:58:55) complex          
  
 MD_VERSION_INFO: Compiled 2020-05-12T11:58:55-UTC in devlin.sd.materialsdesign.
 com:/home/medea2/data/build/wwolf/vasp-gpu5.4.4/13047/x86_64/src/src/build/std 
 from svn 13047
 
 This VASP executable licensed from Materials Design, Inc.
 
 executed on                        Lin64 date 2023.03.25  02:01:39
 running on   16 total cores
 distrk:  each k-point on   16 cores,    1 groups
 distr:  one band on NCORES_PER_BAND=   1 cores,   16 groups


--------------------------------------------------------------------------------------------------------


 INCAR:
 POTCAR:    PAW_PBE Ni 02Aug2007                  
 POTCAR:    PAW_PBE O 08Apr2002                   

 ----------------------------------------------------------------------------- 
|                                                                             |
|           W    W    AA    RRRRR   N    N  II  N    N   GGGG   !!!           |
|           W    W   A  A   R    R  NN   N  II  NN   N  G    G  !!!           |
|           W    W  A    A  R    R  N N  N  II  N N  N  G       !!!           |
|           W WW W  AAAAAA  RRRRR   N  N N  II  N  N N  G  GGG   !            |
|           WW  WW  A    A  R   R   N   NN  II  N   NN  G    G                |
|           W    W  A    A  R    R  N    N  II  N    N   GGGG   !!!           |
|                                                                             |
|      For optimal performance we recommend to set                            |
|        NCORE= 4 - approx SQRT( number of cores)                             |
|      NCORE specifies how many cores store one orbital (NPAR=cpu/NCORE).     |
|      This setting can  greatly improve the performance of VASP for DFT.     |
|      The default,   NCORE=1            might be grossly inefficient         |
|      on modern multi-core architectures or massively parallel machines.     |
|      Do your own testing !!!!                                               |
|      Unfortunately you need to use the default for GW and RPA calculations. |
|      (for HF NCORE is supported but not extensively tested yet)             |
|                                                                             |
 ----------------------------------------------------------------------------- 

 POTCAR:    PAW_PBE Ni 02Aug2007                  
  local pseudopotential read in
  partial core-charges read in
  partial kinetic energy density read in
  atomic valenz-charges read in
  non local Contribution for L=           2  read in
    real space projection operators read in
  non local Contribution for L=           2  read in
    real space projection operators read in
  non local Contribution for L=           0  read in
    real space projection operators read in
  non local Contribution for L=           0  read in
    real space projection operators read in
  non local Contribution for L=           1  read in
    real space projection operators read in
  non local Contribution for L=           1  read in
    real space projection operators read in
    PAW grid and wavefunctions read in
 
   number of l-projection  operators is LMAX  =           6
   number of lm-projection operators is LMMAX =          18
 
 POTCAR:    PAW_PBE O 08Apr2002                   
  local pseudopotential read in
  partial core-charges read in
  partial kinetic energy density read in
  kinetic energy density of atom read in
  atomic valenz-charges read in
  non local Contribution for L=           0  read in
    real space projection operators read in
  non local Contribution for L=           0  read in
    real space projection operators read in
  non local Contribution for L=           1  read in
    real space projection operators read in
  non local Contribution for L=           1  read in
    real space projection operators read in
    PAW grid and wavefunctions read in
 
   number of l-projection  operators is LMAX  =           4
   number of lm-projection operators is LMMAX =           8
 
 Optimization of the real space projectors (new method)

 maximal supplied QI-value         = 16.25
 optimisation between [QCUT,QGAM] = [ 11.38, 22.75] = [ 36.24,144.96] Ry 
 Optimized for a Real-space Cutoff    1.47 Angstroem

   l    n(q)    QCUT    max X(q) W(low)/X(q) W(high)/X(q)  e(spline) 
   2      9    11.376    60.317    0.17E-03    0.16E-04    0.16E-06
   2      9    11.376    55.921    0.17E-03    0.16E-04    0.17E-06
   0     10    11.376    51.690    0.45E-04    0.60E-04    0.21E-06
   0     10    11.376    30.015    0.37E-04    0.55E-04    0.19E-06
   1     10    11.376    18.849    0.83E-04    0.11E-03    0.92E-07
   1     10    11.376    14.624    0.69E-04    0.92E-04    0.82E-07
 Optimization of the real space projectors (new method)

 maximal supplied QI-value         = 24.76
 optimisation between [QCUT,QGAM] = [ 11.39, 22.77] = [ 36.31,145.25] Ry 
 Optimized for a Real-space Cutoff    1.10 Angstroem

   l    n(q)    QCUT    max X(q) W(low)/X(q) W(high)/X(q)  e(spline) 
   0      7    11.387    20.381    0.22E-03    0.48E-03    0.18E-06
   0      7    11.387    15.268    0.22E-03    0.52E-03    0.19E-06
   1      7    11.387     5.964    0.22E-03    0.73E-03    0.24E-06
   1      7    11.387     5.382    0.19E-03    0.60E-03    0.21E-06

 ----------------------------------------------------------------------------- 
|                                                                             |
|  ADVICE TO THIS USER RUNNING 'VASP/VAMP'   (HEAR YOUR MASTER'S VOICE ...):  |
|                                                                             |
|      You enforced a specific xc-type in the INCAR file,                     |
|      a different type was found on the POTCAR file                          |
|          I HOPE YOU KNOW, WHAT YOU ARE  DOING                               |
|                                                                             |
 ----------------------------------------------------------------------------- 

  PAW_PBE Ni 02Aug2007                  :
 energy of atom  1       EATOM=-1077.6739
 kinetic energy error for atom=    0.0030 (will be added to EATOM!!)
  PAW_PBE O 08Apr2002                   :
 energy of atom  2       EATOM= -432.3788
 kinetic energy error for atom=    0.0224 (will be added to EATOM!!)
 
 
 POSCAR: Ni2O3_Cmcm_scale_1_025_disp_0_10_round_1
  positions in direct lattice
  No initial velocities read in
 exchange correlation table for  LEXCH =       14
   RHO(1)=    0.500       N(1)  =     2000
   RHO(2)=  100.500       N(2)  =     4000
 


--------------------------------------------------------------------------------------------------------


 ion  position               nearest neighbor table
   1  0.003  0.365  0.040-  62 2.01  52 2.01  56 2.08  55 2.21 104 2.22 110 2.23  10 2.89  15 2.89
                            17 3.02
   2  0.156  0.124  0.929-  51 1.90  74 2.08  55 2.08  50 2.17  56 2.17  79 2.28  34 3.02  18 3.03

   3  0.993  0.373  0.428-  53 1.76  61 2.03 109 2.14  57 2.17  58 2.17 105 2.34  14 2.76   6 2.93
                            19 2.95  12 2.98  46 3.06
   4  0.172  0.124  0.532-  49 1.92  54 1.96  57 2.04  82 2.07  73 2.09  58 2.28  20 2.83   5 2.90
                            19 3.00  29 3.02
   5  0.187  0.383  0.620-  82 1.72  59 1.73  90 1.83  66 2.10  61 2.19  58 2.24  21 2.62   4 2.90
                            28 2.96  19 2.96
   6  0.986  0.104  0.349-  60 1.74 105 2.10 113 2.16  65 2.19  57 2.27  49 2.34   3 2.93  38 2.99
                             7 3.02
   7  0.012  0.087  0.147-  60 1.67  64 2.08  56 2.19  50 2.24 112 2.29 104 2.45  23 2.89   6 3.02

   8  0.134  0.424  0.848-  63 1.74  59 1.97  55 2.02  87 2.09  79 2.24  62 2.33  10 2.67  40 2.72
                            26 2.89  24 3.07
   9  0.145  0.822  0.049-  68 1.86  64 1.87  92 2.00  50 2.12  67 2.29  74 2.41  15 2.80  10 2.91
                            41 2.96  26 3.03  25 3.08
  10  0.997  0.616  0.943-  62 1.99  67 2.03  63 2.17  68 2.21 110 2.32 115 2.50   8 2.67  26 2.88
                             1 2.89   9 2.91  40 2.93  16 3.06
  11  0.165  0.824  0.453-  70 1.61  93 1.88  69 1.91  73 2.04  65 2.11  49 2.52  12 2.74  29 2.80
                            28 2.84  27 2.91  14 2.93  13 2.96
  12  0.004  0.625  0.536-  61 1.98  69 2.03  70 2.04  66 2.05 118 2.24 109 2.37  11 2.74  13 2.82
                            28 2.96  44 2.96   3 2.98
  13  0.002  0.878  0.622-  71 1.75  54 2.06  70 2.08 118 2.22 102 2.35  49 2.36  12 2.82  11 2.96
                            29 2.98
  14  0.141  0.581  0.343-  72 1.69  53 1.75  77 1.91  69 1.93  93 2.36  61 2.43   3 2.76  11 2.93
                            30 3.08
  15  0.165  0.572  0.135-  76 1.82  72 1.86  52 1.90  92 2.12  68 2.17  62 2.20   9 2.80  31 2.88
                             1 2.89  17 3.00
  16  0.994  0.882  0.840-  71 1.85  99 2.15  51 2.19 115 2.22  67 2.32  32 2.86  48 2.98  10 3.06

  17  0.340  0.349  0.049-  80 1.68  86 2.07  76 2.08  56 2.15  79 2.35  62 2.37  33 2.57  18 2.84
                            23 2.95  31 2.97  15 3.00   1 3.02
  18  0.492  0.151  0.947-  80 1.88  98 2.00 103 2.14  79 2.21  75 2.25  74 2.38  33 2.59  17 2.84
                            34 2.92  24 2.96   2 3.03
  19  0.322  0.357  0.440-  77 1.80  57 1.92  81 1.92  82 1.94  85 2.06  61 2.18  35 2.82  28 2.84
                            30 2.84  21 2.87   3 2.95   5 2.96  20 3.00   4 3.00  22 3.06
  20  0.490  0.134  0.531-  78 1.88  81 1.93 106 2.11  97 2.19  82 2.24  73 2.34  35 2.78  21 2.81
                             4 2.83  36 2.90  45 2.95  19 3.00  38 3.01  29 3.06
  21  0.479  0.393  0.606-  82 1.96  85 1.98 106 1.99  90 2.01 114 2.10  83 2.12   5 2.62  28 2.77
                            20 2.81  35 2.83  19 2.87  37 3.05
  22  0.341  0.084  0.345-  84 1.73  89 1.87  81 2.11  65 2.20  57 2.31  73 2.46  38 2.78  23 2.98
                            27 3.00  19 3.06
  23  0.336  0.090  0.146-  84 1.59  88 1.96  64 2.16  80 2.22  74 2.32  56 2.37  39 2.79   7 2.89
                            17 2.95  22 2.98
  24  0.476  0.400  0.839-  83 1.65 111 1.77  87 1.89  79 1.95 103 2.11  42 2.89  18 2.96  26 2.99
                             8 3.07
  25  0.490  0.836  0.044-  88 1.94 116 2.00  92 2.07  74 2.45  98 2.45  91 2.46  31 2.81  41 2.90
                            26 3.07   9 3.08
  26  0.319  0.618  0.941-  67 1.89  92 2.06  62 2.06  91 2.17  86 2.21  87 2.23  42 2.86  10 2.88
                             8 2.89  32 2.92  24 2.99   9 3.03  25 3.07
  27  0.489  0.854  0.439-  89 1.89 117 1.98  93 2.06  73 2.09  94 2.23  97 2.24  43 2.66  29 2.85
                            11 2.91  22 3.00  45 3.00  38 3.03  30 3.06  28 3.09
  28  0.335  0.610  0.528-  85 1.96  93 1.96  90 2.05  61 2.14  94 2.22  70 2.22  21 2.77  19 2.84
                            11 2.84  30 2.88  29 2.95  12 2.96   5 2.96  44 3.02  27 3.09
  29  0.336  0.882  0.605-  78 1.81  73 1.93  95 1.95  94 2.00  70 2.05  54 2.11  45 2.69  11 2.80
                            27 2.85  28 2.95  13 2.98   4 3.02  20 3.06
  30  0.485  0.570  0.359-  77 1.81  96 1.91 101 2.03  85 2.12  93 2.19 117 2.22  46 2.76  19 2.84
                            28 2.88  35 2.95  27 3.06  14 3.08
  31  0.487  0.586  0.132-  96 1.80 100 1.93  76 1.95  86 1.99 116 2.05  92 2.11  25 2.81  15 2.88
                            47 2.93  17 2.97
  32  0.314  0.864  0.835-  95 1.69  51 2.05  67 2.10  91 2.10  75 2.45  16 2.86  26 2.92
  33  0.627  0.336  0.039-  80 1.79  86 2.06 104 2.10 100 2.11 110 2.26 103 2.33  17 2.57  18 2.59
                            39 2.85  34 3.04
  34  0.818  0.132  0.939-  98 2.04  99 2.06 103 2.23  55 2.28 104 2.31  50 2.50  18 2.92  40 2.98
                             2 3.02  33 3.04
  35  0.638  0.344  0.446- 106 1.92  81 1.94  85 2.02 101 2.08 105 2.14 109 2.14  20 2.78  36 2.82
                            19 2.82  21 2.83  38 2.85  30 2.95
  36  0.814  0.150  0.535- 102 1.80 105 1.85 106 2.00  58 2.05  97 2.15  49 2.20  37 2.77  35 2.82
                            20 2.90  38 3.09
  37  0.820  0.394  0.625- 107 1.80  66 1.93 114 2.00 106 2.08  58 2.14 109 2.19  36 2.77  44 3.00
                            21 3.05
  38  0.652  0.090  0.357- 108 1.81 113 1.98 105 2.02  97 2.05  89 2.10  81 2.26  22 2.78  35 2.85
                             6 2.99  20 3.01  27 3.03  43 3.06  36 3.09
  39  0.647  0.088  0.134- 108 1.97  88 2.07 112 2.12 104 2.22  98 2.26  80 2.38  23 2.79  33 2.85

  40  0.830  0.402  0.852-  63 1.85 111 1.93 107 2.01 103 2.04  55 2.13 110 2.46   8 2.72  42 2.93
                            10 2.93  34 2.98
  41  0.814  0.834  0.050- 112 1.76 116 1.98  68 2.11 115 2.19  50 2.49  47 2.71  25 2.90   9 2.96

  42  0.639  0.610  0.931- 111 1.88  91 2.03  86 2.13 110 2.20 115 2.30 116 2.40  26 2.86  24 2.89
                            40 2.93  48 2.99
  43  0.786  0.834  0.438- 117 1.76 118 2.06  97 2.07 113 2.08  69 2.47  46 2.61  27 2.66  44 2.69
                            38 3.06  45 3.07
  44  0.673  0.628  0.532- 117 1.87 118 1.89 114 1.92 109 2.02  94 2.09  85 2.29  43 2.69  46 2.80
                            12 2.96  37 3.00  28 3.02  45 3.02
  45  0.635  0.901  0.617-  78 1.82  94 1.96 102 1.98 119 2.02 118 2.24  97 2.29  29 2.69  20 2.95
                            27 3.00  44 3.02  43 3.07
  46  0.792  0.600  0.360- 120 1.77 101 1.89 117 1.97 109 2.28  69 2.37  53 2.47  43 2.61  30 2.76
                            44 2.80   3 3.06
  47  0.815  0.591  0.133- 120 1.84 100 2.01 116 2.02  68 2.10 110 2.15  52 2.20  41 2.71  31 2.93

  48  0.661  0.886  0.852- 115 1.79 119 1.91  99 2.01  75 2.06  91 2.10  98 2.46  16 2.98  42 2.99

  49  0.001  0.020  0.495-   4 1.92  36 2.20   6 2.34  13 2.36  11 2.52
  50  0.019  0.994  0.011-   9 2.12   2 2.17   7 2.24  41 2.49  34 2.50
  51  0.176  0.027  0.819-   2 1.90  32 2.05  16 2.19
  52  0.003  0.455  0.161-  15 1.90   1 2.01  47 2.20
  53  0.008  0.455  0.324-  14 1.75   3 1.76  46 2.47
  54  0.166  0.019  0.643-   4 1.96  13 2.06  29 2.11
  55  0.005  0.279  0.903-   8 2.02   2 2.08  40 2.13   1 2.21  34 2.28
  56  0.156  0.211  0.062-   1 2.08  17 2.15   2 2.17   7 2.19  23 2.37
  57  0.171  0.226  0.413-  19 1.92   4 2.04   3 2.17   6 2.27  22 2.31
  58  0.989  0.278  0.560-  36 2.05  37 2.14   3 2.17   5 2.24   4 2.28
  59  0.162  0.337  0.731-   5 1.73   8 1.97
  60  0.990  0.175  0.242-   7 1.67   6 1.74
  61  0.147  0.487  0.493-  12 1.98   3 2.03  28 2.14  19 2.18   5 2.19  14 2.43
  62  0.154  0.498  0.996-  10 1.99   1 2.01  26 2.06  15 2.20   8 2.33  17 2.37
  63  0.979  0.518  0.814-   8 1.74  40 1.85  10 2.17
  64  0.168  0.933  0.149-   9 1.87   7 2.08  23 2.16
  65  0.152  0.943  0.336-  11 2.11   6 2.19  22 2.20
  66  0.996  0.501  0.646-  37 1.93  12 2.05   5 2.10
  67  0.168  0.740  0.907-  26 1.89  10 2.03  32 2.10   9 2.29  16 2.32
  68  0.993  0.703  0.079-   9 1.86  47 2.10  41 2.11  15 2.17  10 2.21
  69  0.016  0.702  0.410-  11 1.91  14 1.93  12 2.03  46 2.37  43 2.47
  70  0.165  0.768  0.554-  11 1.61  12 2.04  29 2.05  13 2.08  28 2.22
  71  0.993  0.803  0.727-  13 1.75  16 1.85
  72  0.160  0.660  0.244-  14 1.69  15 1.86
  73  0.314  0.969  0.490-  29 1.93  11 2.04  27 2.09   4 2.09  20 2.34  22 2.46
  74  0.303  0.005  0.003-   2 2.08  23 2.32  18 2.38   9 2.41  25 2.45
  75  0.511  0.034  0.818-  48 2.06  18 2.25  32 2.45
  76  0.323  0.466  0.164-  15 1.82  31 1.95  17 2.08
  77  0.317  0.471  0.346-  19 1.80  30 1.81  14 1.91
  78  0.473  0.012  0.627-  29 1.81  45 1.82  20 1.88
  79  0.321  0.293  0.897-  24 1.95  18 2.21   8 2.24   2 2.28  17 2.35
  80  0.470  0.228  0.061-  17 1.68  33 1.79  18 1.88  23 2.22  39 2.38
  81  0.474  0.223  0.417-  19 1.92  20 1.93  35 1.94  22 2.11  38 2.26
  82  0.311  0.286  0.561-   5 1.72  19 1.94  21 1.96   4 2.07  20 2.24
  83  0.498  0.326  0.741-  24 1.65  21 2.12
  84  0.338  0.160  0.241-  23 1.59  22 1.73
  85  0.488  0.482  0.488-  28 1.96  21 1.98  35 2.02  19 2.06  30 2.12  44 2.29
  86  0.490  0.498  0.012-  31 1.99  33 2.06  17 2.07  42 2.13  26 2.21
  87  0.327  0.525  0.806-  24 1.89   8 2.09  26 2.23
  88  0.483  0.944  0.152-  25 1.94  23 1.96  39 2.07
  89  0.483  0.949  0.330-  22 1.87  27 1.89  38 2.10
  90  0.318  0.517  0.650-   5 1.83  21 2.01  28 2.05
  91  0.491  0.751  0.890-  42 2.03  48 2.10  32 2.10  26 2.17  25 2.46
  92  0.319  0.700  0.068-   9 2.00  26 2.06  25 2.07  31 2.11  15 2.12
  93  0.324  0.713  0.416-  11 1.88  28 1.96  27 2.06  30 2.19  14 2.36
  94  0.503  0.758  0.574-  45 1.96  29 2.00  44 2.09  28 2.22  27 2.23
  95  0.336  0.813  0.728-  32 1.69  29 1.95
  96  0.477  0.654  0.244-  31 1.80  30 1.91
  97  0.666  0.000  0.480-  38 2.05  43 2.07  36 2.15  20 2.19  27 2.24  45 2.29
  98  0.646  0.021  0.990-  18 2.00  34 2.04  39 2.26  25 2.45  48 2.46
  99  0.816  0.024  0.822-  48 2.01  34 2.06  16 2.15
 100  0.648  0.460  0.153-  31 1.93  47 2.01  33 2.11
 101  0.665  0.454  0.329-  46 1.89  30 2.03  35 2.08
 102  0.803  0.031  0.626-  36 1.80  45 1.98  13 2.35
 103  0.654  0.283  0.888-  40 2.04  24 2.11  18 2.14  34 2.23  33 2.33
 104  0.818  0.229  0.080-  33 2.10   1 2.22  39 2.22  34 2.31   7 2.45
 105  0.812  0.203  0.417-  36 1.85  38 2.02   6 2.10  35 2.14   3 2.34
 106  0.651  0.279  0.567-  35 1.92  21 1.99  36 2.00  37 2.08  20 2.11
 107  0.814  0.313  0.732-  37 1.80  40 2.01
 108  0.638  0.178  0.251-  38 1.81  39 1.97
 109  0.810  0.479  0.489-  44 2.02  35 2.14   3 2.14  37 2.19  46 2.28  12 2.37
 110  0.804  0.490  0.006-  47 2.15  42 2.20   1 2.23  33 2.26  10 2.32  40 2.46
 111  0.644  0.494  0.831-  24 1.77  42 1.88  40 1.93
 112  0.816  0.939  0.145-  41 1.76  39 2.12   7 2.29
 113  0.810  0.958  0.327-  38 1.98  43 2.08   6 2.16
 114  0.652  0.526  0.641-  44 1.92  37 2.00  21 2.10
 115  0.800  0.786  0.908-  48 1.79  41 2.19  16 2.22  42 2.30  10 2.50
 116  0.651  0.705  0.078-  41 1.98  25 2.00  47 2.02  31 2.05  42 2.40
 117  0.644  0.713  0.422-  43 1.76  44 1.87  46 1.97  27 1.98  30 2.22
 118  0.812  0.761  0.566-  44 1.89  43 2.06  13 2.22  12 2.24  45 2.24
 119  0.644  0.805  0.736-  48 1.91  45 2.02
 120  0.786  0.654  0.247-  46 1.77  47 1.84
 
  LATTYP: Found a simple orthorhombic cell.
 ALAT       =     8.9259767500
 B/A-ratio  =     1.1146370060
 C/A-ratio  =     1.6738812646
  
  Lattice vectors:
  
 A1 = (   8.9259767500,   0.0000000000,   0.0000000000)
 A2 = (   0.0000000000,   9.9492240000,   0.0000000000)
 A3 = (   0.0000000000,   0.0000000000,  14.9410252500)


Analysis of symmetry for initial positions (statically):
=====================================================================
 Subroutine PRICEL returns:
 Original cell was already a primitive cell.
 

 Routine SETGRP: Setting up the symmetry group for a 
 simple orthorhombic supercell.


 Subroutine GETGRP returns: Found  1 space group operations
 (whereof  1 operations were pure point group operations)
 out of a pool of  8 trial point group operations.


The static configuration has the point symmetry C_1 .


Analysis of symmetry for dynamics (positions and initial velocities):
=====================================================================
 Subroutine PRICEL returns:
 Original cell was already a primitive cell.
 

 Routine SETGRP: Setting up the symmetry group for a 
 simple orthorhombic supercell.


 Subroutine GETGRP returns: Found  1 space group operations
 (whereof  1 operations were pure point group operations)
 out of a pool of  8 trial point group operations.


The dynamic configuration has the point symmetry C_1 .


Analysis of structural, dynamic, and magnetic symmetry:
=====================================================================
 Subroutine PRICEL returns:
 Original cell was already a primitive cell.
 

 Routine SETGRP: Setting up the symmetry group for a 
 simple orthorhombic supercell.


 Subroutine GETGRP returns: Found  1 space group operations
 (whereof  1 operations were pure point group operations)
 out of a pool of  8 trial point group operations.


The magnetic configuration has the point symmetry C_1 .


 Subroutine INISYM returns: Found  1 space group operations
 (whereof  1 operations are pure point group operations),
 and found     1 'primitive' translations

 
 
 KPOINTS: Automatic mesh                          

Automatic generation of k-mesh.
Space group operators:
 irot       det(A)        alpha          n_x          n_y          n_z        tau_x        tau_y        tau_z
    1     1.000000     0.000001     1.000000     0.000000     0.000000     0.000000     0.000000     0.000000
 
 Subroutine IBZKPT returns following result:
 ===========================================
 
 Found     10 irreducible k-points:
 
 Following reciprocal coordinates:
            Coordinates               Weight
  0.000000  0.000000  0.000000      1.000000
  0.333333  0.000000  0.000000      2.000000
  0.000000  0.333333  0.000000      2.000000
  0.333333  0.333333  0.000000      2.000000
 -0.333333  0.333333  0.000000      2.000000
  0.000000  0.000000  0.500000      1.000000
  0.333333  0.000000  0.500000      2.000000
  0.000000  0.333333  0.500000      2.000000
  0.333333  0.333333  0.500000      2.000000
 -0.333333  0.333333  0.500000      2.000000
 
 Following cartesian coordinates:
            Coordinates               Weight
  0.000000  0.000000  0.000000      1.000000
  0.037344  0.000000  0.000000      2.000000
  0.000000  0.033503  0.000000      2.000000
  0.037344  0.033503  0.000000      2.000000
 -0.037344  0.033503  0.000000      2.000000
  0.000000  0.000000  0.033465      1.000000
  0.037344  0.000000  0.033465      2.000000
  0.000000  0.033503  0.033465      2.000000
  0.037344  0.033503  0.033465      2.000000
 -0.037344  0.033503  0.033465      2.000000
 


--------------------------------------------------------------------------------------------------------




 Dimension of arrays:
   k-points           NKPTS =     10   k-points in BZ     NKDIM =     10   number of bands    NBANDS=    608
   number of dos      NEDOS =    301   number of ions     NIONS =    120
   non local maximal  LDIM  =      6   non local SUM 2l+1 LMDIM =     18
   total plane-waves  NPLWV = 627200
   max r-space proj   IRMAX =   6396   max aug-charges    IRDMAX=  15520
   dimension x,y,z NGX =    70 NGY =   80 NGZ =  112
   dimension x,y,z NGXF=   140 NGYF=  160 NGZF=  224
   support grid    NGXF=   140 NGYF=  160 NGZF=  224
   ions per type =              48  72
   NGX,Y,Z   is equivalent  to a cutoff of  13.04, 13.37, 12.46 a.u.
   NGXF,Y,Z  is equivalent  to a cutoff of  26.07, 26.74, 24.92 a.u.

 SYSTEM =  unknown system                          
 POSCAR =  Ni2O3_Cmcm_scale_1_025_disp_0_10_round_1

 Startparameter for this run:
   NWRITE =      1    write-flag & timer
   PREC   = accura    normal or accurate (medium, high low for compatibility)
   ISTART =      0    job   : 0-new  1-cont  2-samecut
   ICHARG =      2    charge: 1-file 2-atom 10-const
   ISPIN  =      2    spin polarized calculation?
   LNONCOLLINEAR =      F non collinear calculations
   LSORBIT =      F    spin-orbit coupling
   INIWAV =      1    electr: 0-lowe 1-rand  2-diag
   LASPH  =      F    aspherical Exc in radial PAW
   METAGGA=      F    non-selfconsistent MetaGGA calc.

 Electronic Relaxation 1
   ENCUT  =  500.0 eV  36.75 Ry    6.06 a.u.  16.27 18.14 27.24*2*pi/ulx,y,z
   ENINI  =  500.0     initial cutoff
   ENAUG  =  605.4 eV  augmentation charge cutoff
   NELM   =     80;   NELMIN=  2; NELMDL= -5     # of ELM steps 
   EDIFF  = 0.1E-04   stopping-criterion for ELM
   LREAL  =      T    real-space projection
   NLSPLINE    = F    spline interpolate recip. space projectors
   LCOMPAT=      F    compatible to vasp.4.4
   GGA_COMPAT  = T    GGA compatible to vasp.4.4-vasp.4.6
   LMAXPAW     = -100 max onsite density
   LMAXMIX     =    2 max onsite mixed and CHGCAR
   VOSKOWN=      1    Vosko Wilk Nusair interpolation
   ROPT   =   -0.00025  -0.00025
 Ionic relaxation
   EDIFFG = 0.1E-03   stopping-criterion for IOM
   NSW    =      0    number of steps for IOM
   NBLOCK =      1;   KBLOCK =      1    inner block; outer block 
   IBRION =     -1    ionic relax: 0-MD 1-quasi-New 2-CG
   NFREE  =      0    steps in history (QN), initial steepest desc. (CG)
   ISIF   =      2    stress and relaxation
   IWAVPR =     10    prediction:  0-non 1-charg 2-wave 3-comb
   ISYM   =      2    0-nonsym 1-usesym 2-fastsym
   LCORR  =      T    Harris-Foulkes like correction to forces

   POTIM  = 0.5000    time-step for ionic-motion
   TEIN   =    0.0    initial temperature
   TEBEG  =    0.0;   TEEND  =   0.0 temperature during run
   SMASS  =  -3.00    Nose mass-parameter (am)
   estimated Nose-frequenzy (Omega)   =  0.10E-29 period in steps =****** mass=  -0.182E-26a.u.
   SCALEE = 1.0000    scale energy and forces
   NPACO  =    256;   APACO  = 16.0  distance and # of slots for P.C.
   PSTRESS=    0.0 pullay stress

  Mass of Ions in am
   POMASS =  58.69 16.00
  Ionic Valenz
   ZVAL   =  10.00  6.00
  Atomic Wigner-Seitz radii
   RWIGS  =   1.15  0.73
  virtual crystal weights 
   VCA    =   1.00  1.00
   NELECT =     912.0000    total number of electrons
   NUPDOWN=      -1.0000    fix difference up-down

 DOS related values:
   EMIN   =  10.00;   EMAX   =-10.00  energy-range for DOS
   EFERMI =   0.00
   ISMEAR =     0;   SIGMA  =   0.05  broadening in eV -4-tet -1-fermi 0-gaus

 Electronic relaxation 2 (details)
   IALGO  =     38    algorithm
   LDIAG  =      T    sub-space diagonalisation (order eigenvalues)
   LSUBROT=      F    optimize rotation matrix (better conditioning)
   TURBO    =      0    0=normal 1=particle mesh
   IRESTART =      0    0=no restart 2=restart with 2 vectors
   NREBOOT  =      0    no. of reboots
   NMIN     =      0    reboot dimension
   EREF     =   0.00    reference energy to select bands
   IMIX   =      4    mixing-type and parameters
     AMIX     =   0.40;   BMIX     =  1.00
     AMIX_MAG =   1.60;   BMIX_MAG =  1.00
     AMIN     =   0.10
     WC   =   100.;   INIMIX=   1;  MIXPRE=   1;  MAXMIX= -45

 Intra band minimization:
   WEIMIN = 0.0000     energy-eigenvalue tresh-hold
   EBREAK =  0.41E-08  absolut break condition
   DEPER  =   0.30     relativ break condition  

   TIME   =   0.40     timestep for ELM

  volume/ion in A,a.u.               =      11.06        74.62
  Fermi-wavevector in a.u.,A,eV,Ry     =   1.444768  2.730215 28.400167  2.087353
  Thomas-Fermi vector in A             =   2.563025
 
 Write flags
   LWAVE        =      F    write WAVECAR
   LDOWNSAMPLE  =      F    k-point downsampling of WAVECAR
   LCHARG       =      T    write CHGCAR
   LVTOT        =      F    write LOCPOT, total local potential
   LVHAR        =      F    write LOCPOT, Hartree potential only
   LELF         =      F    write electronic localiz. function (ELF)
   LORBIT       =      0    0 simple, 1 ext, 2 COOP (PROOUT), +10 PAW based schemes


 Dipole corrections
   LMONO  =      F    monopole corrections only (constant potential shift)
   LDIPOL =      F    correct potential (dipole corrections)
   IDIPOL =      0    1-x, 2-y, 3-z, 4-all directions 
   EPSILON=  1.0000000 bulk dielectric constant

 Exchange correlation treatment:
   GGA     =    PS    GGA type
   LEXCH   =    14    internal setting for exchange type
   VOSKOWN=      1    Vosko Wilk Nusair interpolation
   LHFCALC =     F    Hartree Fock is set to
   LHFONE  =     F    Hartree Fock one center treatment
   AEXX    =    0.0000 exact exchange contribution

 Linear response parameters
   LEPSILON=     F    determine dielectric tensor
   LRPA    =     F    only Hartree local field effects (RPA)
   LNABLA  =     F    use nabla operator in PAW spheres
   LVEL    =     F    velocity operator in full k-point grid
   LINTERFAST=   F  fast interpolation
   KINTER  =     0    interpolate to denser k-point grid
   CSHIFT  =0.1000    complex shift for real part using Kramers Kronig
   OMEGAMAX=  -1.0    maximum frequency
   DEG_THRESHOLD= 0.2000000E-02 threshold for treating states as degnerate
   RTIME   =   -0.100 relaxation time in fs
  (WPLASMAI=    0.000 imaginary part of plasma frequency in eV, 0.658/RTIME)
   DFIELD  = 0.0000000 0.0000000 0.0000000 field for delta impulse in time
 
 Orbital magnetization related:
   ORBITALMAG=     F  switch on orbital magnetization
   LCHIMAG   =     F  perturbation theory with respect to B field
   DQ        =  0.001000  dq finite difference perturbation B field
   LLRAUG    =     F  two centre corrections for induced B field



--------------------------------------------------------------------------------------------------------


 Static calculation
 charge density and potential will be updated during run
 spin polarized calculation
 Variant of blocked Davidson
 Davidson routine will perform the subspace rotation
 perform sub-space diagonalisation
    after iterative eigenvector-optimisation
 modified Broyden-mixing scheme, WC =      100.0
 initial mixing is a Kerker type mixing with AMIX =  0.4000 and BMIX =      1.0000
 Hartree-type preconditioning will be used
 using additional bands          152
 real space projection scheme for non local part
 use partial core corrections
 calculate Harris-corrections to forces 
   (improved forces if not selfconsistent)
 use gradient corrections 
 use of overlap-Matrix (Vanderbilt PP)
 Gauss-broadening in eV      SIGMA  =   0.05


--------------------------------------------------------------------------------------------------------


  energy-cutoff  :      500.00
  volume of cell :     1326.86
      direct lattice vectors                 reciprocal lattice vectors
     8.925976750  0.000000000  0.000000000     0.112032557  0.000000000  0.000000000
     0.000000000  9.949224000  0.000000000     0.000000000  0.100510351  0.000000000
     0.000000000  0.000000000 14.941025250     0.000000000  0.000000000  0.066929811

  length of vectors
     8.925976750  9.949224000 14.941025250     0.112032557  0.100510351  0.066929811


 
 k-points in units of 2pi/SCALE and weight: Automatic mesh                          
   0.00000000  0.00000000  0.00000000       0.056
   0.03734419  0.00000000  0.00000000       0.111
   0.00000000  0.03350345  0.00000000       0.111
   0.03734419  0.03350345  0.00000000       0.111
  -0.03734419  0.03350345  0.00000000       0.111
   0.00000000  0.00000000  0.03346491       0.056
   0.03734419  0.00000000  0.03346491       0.111
   0.00000000  0.03350345  0.03346491       0.111
   0.03734419  0.03350345  0.03346491       0.111
  -0.03734419  0.03350345  0.03346491       0.111
 
 k-points in reciprocal lattice and weights: Automatic mesh                          
   0.00000000  0.00000000  0.00000000       0.056
   0.33333333  0.00000000  0.00000000       0.111
   0.00000000  0.33333333  0.00000000       0.111
   0.33333333  0.33333333  0.00000000       0.111
  -0.33333333  0.33333333  0.00000000       0.111
   0.00000000  0.00000000  0.50000000       0.056
   0.33333333  0.00000000  0.50000000       0.111
   0.00000000  0.33333333  0.50000000       0.111
   0.33333333  0.33333333  0.50000000       0.111
  -0.33333333  0.33333333  0.50000000       0.111
 
 position of ions in fractional coordinates (direct lattice) 
   0.00255740  0.36481887  0.03999043
   0.15598172  0.12368960  0.92851198
   0.99305493  0.37297040  0.42845289
   0.17233584  0.12405298  0.53185978
   0.18672500  0.38270234  0.62038438
   0.98603974  0.10377189  0.34870935
   0.01183747  0.08746961  0.14742763
   0.13353817  0.42448870  0.84809864
   0.14492957  0.82243904  0.04917939
   0.99674131  0.61595079  0.94326968
   0.16513683  0.82380949  0.45295523
   0.00435013  0.62512992  0.53612848
   0.00243113  0.87755523  0.62152380
   0.14087565  0.58063910  0.34311803
   0.16532817  0.57240187  0.13450874
   0.99436530  0.88165291  0.83975633
   0.33980074  0.34907519  0.04915649
   0.49209345  0.15140544  0.94682360
   0.32245508  0.35659550  0.44018153
   0.48951889  0.13361869  0.53123972
   0.47909689  0.39272543  0.60634993
   0.34110606  0.08423104  0.34529609
   0.33602559  0.08985556  0.14563858
   0.47558996  0.40043934  0.83864922
   0.48964373  0.83553598  0.04448087
   0.31912957  0.61756956  0.94130300
   0.48883964  0.85356976  0.43917509
   0.33496983  0.60963250  0.52766087
   0.33562678  0.88213360  0.60542702
   0.48456423  0.57039869  0.35900019
   0.48733468  0.58601970  0.13219629
   0.31424542  0.86409260  0.83506722
   0.62692110  0.33581594  0.03912951
   0.81812345  0.13219519  0.93927533
   0.63827956  0.34354657  0.44618148
   0.81391654  0.15023673  0.53545707
   0.81961855  0.39433542  0.62476158
   0.65206399  0.09017636  0.35736785
   0.64746103  0.08788565  0.13434392
   0.83031046  0.40194151  0.85225253
   0.81396145  0.83399108  0.05016449
   0.63882108  0.60994835  0.93066322
   0.78598933  0.83430776  0.43820122
   0.67300603  0.62765280  0.53203816
   0.63509417  0.90132305  0.61719206
   0.79197337  0.59956931  0.35982476
   0.81518620  0.59133544  0.13280802
   0.66101909  0.88550935  0.85237596
   0.00115836  0.02028709  0.49512866
   0.01862468  0.99369344  0.01085066
   0.17580380  0.02720769  0.81916657
   0.00322386  0.45476056  0.16076457
   0.00816635  0.45459754  0.32414414
   0.16610635  0.01931217  0.64270353
   0.00528791  0.27924225  0.90349975
   0.15558618  0.21088936  0.06166537
   0.17121947  0.22571701  0.41342941
   0.98916359  0.27837922  0.55961068
   0.16165603  0.33713220  0.73128783
   0.99046451  0.17473575  0.24204473
   0.14716741  0.48684806  0.49338441
   0.15381307  0.49831972  0.99567778
   0.97880815  0.51780219  0.81371470
   0.16818757  0.93310239  0.14920907
   0.15233721  0.94250184  0.33629558
   0.99638490  0.50141578  0.64571877
   0.16759384  0.73977427  0.90694635
   0.99341925  0.70265843  0.07924189
   0.01595559  0.70214354  0.41031925
   0.16521214  0.76799285  0.55428692
   0.99325875  0.80346038  0.72730078
   0.16040877  0.66003824  0.24411858
   0.31398593  0.96934545  0.49044673
   0.30338346  0.00536052  0.00253773
   0.51066032  0.03406364  0.81833090
   0.32299771  0.46610497  0.16436044
   0.31651681  0.47056658  0.34634192
   0.47343330  0.01155456  0.62679394
   0.32076866  0.29278898  0.89674571
   0.47034679  0.22824128  0.06097336
   0.47358001  0.22347038  0.41724612
   0.31107986  0.28551090  0.56083823
   0.49765087  0.32584003  0.74075526
   0.33770069  0.16009414  0.24092887
   0.48844820  0.48214869  0.48783500
   0.48975025  0.49756069  0.01249768
   0.32654305  0.52521940  0.80571915
   0.48287583  0.94400140  0.15235107
   0.48336101  0.94871070  0.32999054
   0.31787401  0.51710115  0.65004490
   0.49070930  0.75129427  0.88952201
   0.31915226  0.69951246  0.06775214
   0.32354847  0.71286110  0.41598877
   0.50334682  0.75836194  0.57382971
   0.33598824  0.81327235  0.72794096
   0.47745979  0.65408956  0.24392815
   0.66608293  0.00049556  0.48039996
   0.64619173  0.02072331  0.98964992
   0.81610746  0.02447530  0.82164645
   0.64843786  0.45974257  0.15296206
   0.66530894  0.45430507  0.32903025
   0.80307199  0.03121531  0.62620625
   0.65396130  0.28284750  0.88811391
   0.81756818  0.22851782  0.07997174
   0.81229121  0.20296864  0.41662091
   0.65059116  0.27931373  0.56713152
   0.81383480  0.31285155  0.73192544
   0.63812508  0.17794126  0.25134637
   0.81038636  0.47902615  0.48935051
   0.80398166  0.48998360  0.00559332
   0.64357650  0.49360822  0.83130132
   0.81609955  0.93859915  0.14489592
   0.80970614  0.95843121  0.32690983
   0.65240637  0.52621138  0.64051356
   0.80013850  0.78633492  0.90756341
   0.65136623  0.70507498  0.07790022
   0.64427443  0.71336883  0.42211663
   0.81157505  0.76108818  0.56642744
   0.64431081  0.80536204  0.73642992
   0.78588720  0.65449489  0.24703336
 
 position of ions in cartesian coordinates  (Angst):
   0.02282729  3.62966466  0.59749802
   1.39228921  1.23061554 13.87292094
   8.86398522  3.71076605  6.40152545
   1.53826570  1.23423089  7.94653040
   1.66670301  3.80759131  9.26917869
   8.80136779  1.03244978  5.21007520
   0.10566098  0.87025474  2.20271994
   1.19195860  4.22333316 12.67146319
   1.29363797  8.18263024  0.73479051
   8.89688976  6.12823238 14.09341611
   1.47400751  8.19626515  6.76761553
   0.03882916  6.21955760  8.01030916
   0.02170021  8.73099356  9.28620279
   1.25745278  5.77690847  5.12653515
   1.47571540  5.69495442  2.00969848
   8.87568155  8.77176229 12.54682053
   3.03305350  3.47302726  0.73444836
   4.39241469  1.50636664 14.14651531
   2.87822655  3.54784851  6.57676335
   4.36943423  1.32940228  7.93726607
   4.27640770  3.90731327  9.05948961
   3.04470476  0.83803348  5.15907760
   2.99935660  0.89399309  2.17598970
   4.24510493  3.98406069 12.53027917
   4.37054855  8.31293463  0.66458980
   2.84854312  6.14433789 14.06403189
   4.36337126  8.49235674  6.56172611
   2.98993291  6.06537030  7.88379438
   2.99579683  8.77654478  9.04570039
   4.32520905  5.67502434  5.36383090
   4.34993802  5.83044126  1.97514811
   2.80494731  8.59705083 12.47676042
   5.59588316  3.34110801  0.58463500
   7.30255089  1.31523956 14.03373642
   5.69726851  3.41802178  6.66640876
   7.26500011  1.49473888  8.00027760
   7.31589612  3.92333142  9.33457854
   5.82030801  0.89718481  5.33944207
   5.77922210  0.87439402  2.00723590
   7.41133186  3.99900612 12.73352657
   7.26540098  8.29756407  0.74950891
   5.70210211  6.06851276 13.90506267
   7.01572249  8.30071479  6.54717549
   6.00723618  6.24465830  7.94919558
   5.66883580  8.96746492  9.22148215
   7.06913589  5.96524937  5.37615082
   7.27633307  5.88332875  1.98428798
   5.90024103  8.81013088 12.73537074
   0.01033949  0.20184080  7.39772981
   0.16624346  9.88647862  0.16211999
   1.56922063  0.27069540 12.23918841
   0.02877610  4.52451468  2.40198750
   0.07289265  4.52289276  4.84304578
   1.48266142  0.19214111  9.60264967
   0.04719976  2.77824370 13.49921258
   1.38875863  2.09818548  0.92134385
   1.52830101  2.24570909  6.17705925
   8.82925121  2.76965722  8.36115730
   1.44293797  3.35420378 10.92618993
   8.84086319  1.73848512  3.61639642
   1.31361288  4.84376040  7.37166893
   1.37293189  4.95789452 14.87644685
   8.73681879  5.15172998 12.15773188
   1.50123834  9.28364469  2.22933648
   1.35975839  9.37716193  5.02460075
   8.89370845  4.98869791  9.64770045
   1.49593872  7.36017992 13.55070832
   8.86723713  6.99090612  1.18395508
   0.14241923  6.98578336  6.13059027
   1.47467972  7.64093290  8.28161487
   8.86580451  7.99380730 10.86661932
   1.43180495  6.56686830  3.64738187
   2.80263111  9.64423502  7.32777698
   2.70799371  0.05333301  0.03791629
   4.55814214  0.33890678 12.22670264
   2.88307005  4.63738275  2.45571348
   2.82522169  4.68177231  5.17470337
   4.22585463  0.11495891  9.36494408
   2.86317360  2.91302315 13.39830030
   4.19830451  2.27082362  0.91100451
   4.22716416  2.22335687  6.23408481
   2.77669160  2.84061190  8.37949816
   4.44202010  3.24185545 11.06764304
   3.01430851  1.59281246  3.59972433
   4.35987728  4.79700532  7.28875505
   4.37149934  4.95034276  0.18672815
   2.91471567  5.22552546 12.03827016
   4.31013843  9.39208138  2.27628118
   4.31446914  9.43893527  4.93039699
   2.83733602  5.14475517  9.71233726
   4.38005980  7.47479498 13.29037081
   2.84874565  6.95960616  1.01228643
   2.88798612  7.09241476  6.21529872
   4.49286201  7.54511281  8.57360419
   2.99902322  8.09142878 10.87618426
   4.26179498  6.50768355  3.64453665
   5.94544075  0.00493044  7.17766793
   5.76789236  0.20618085 14.78638444
   7.28455621  0.24351024 12.27624036
   5.78794126  4.57408181  2.28541000
   5.93853213  4.51998291  4.91604927
   7.16820191  0.31056811  9.35616339
   5.83724336  2.81411314 13.26933235
   7.29759457  2.27357498  1.19485979
   7.25049245  2.01938046  6.22474354
   5.80716157  2.77895487  8.47352636
   7.26427050  3.11263015 10.93571648
   5.69588963  1.77037745  3.75537246
   7.23348981  4.76593847  7.31139833
   7.17632160  4.87495659  0.08356994
   5.74454888  4.91101875 12.42049401
   7.28448561  9.33833319  2.16489360
   7.22741818  9.53564680  4.88436802
   5.82336409  5.23539489  9.56992927
   7.14201765  7.82342226 13.55992782
   5.81407982  7.01494891  1.16390915
   5.75077858  7.09746628  6.30685523
   7.24410003  7.57223679  8.46300668
   5.75110331  8.01272734 11.00301803
   7.01481088  6.51171627  3.69093167
 


--------------------------------------------------------------------------------------------------------


 k-point  1 :   0.0000 0.0000 0.0000  plane waves:   33683
 k-point  2 :   0.3333 0.0000 0.0000  plane waves:   33688
 k-point  3 :   0.0000 0.3333 0.0000  plane waves:   33656
 k-point  4 :   0.3333 0.3333 0.0000  plane waves:   33676
 k-point  5 :  -0.3333 0.3333 0.0000  plane waves:   33676
 k-point  6 :   0.0000 0.0000 0.5000  plane waves:   33710
 k-point  7 :   0.3333 0.0000 0.5000  plane waves:   33628
 k-point  8 :   0.0000 0.3333 0.5000  plane waves:   33658
 k-point  9 :   0.3333 0.3333 0.5000  plane waves:   33710
 k-point 10 :  -0.3333 0.3333 0.5000  plane waves:   33710

 maximum and minimum number of plane-waves per node :     33710    33628

 maximum number of plane-waves:     33710
 maximum index in each direction: 
   IXMAX=   16   IYMAX=   18   IZMAX=   27
   IXMIN=  -16   IYMIN=  -18   IZMIN=  -27

 The following grids will avoid any aliasing or wrap around errors in the Hartre
 e energy
  - symmetry arguments have not been applied
  - exchange correlation energies might require even more grid points
  - we recommend to set PREC=Normal or Accurate and rely on VASP defaults
 NGX is ok and might be reduce to    70
 NGY is ok and might be reduce to    80
 NGZ is ok and might be reduce to   112

 serial   3D FFT for wavefunctions
 parallel 3D FFT for charge:
    minimum data exchange during FFTs selected (reduces bandwidth)


 total amount of memory used by VASP MPI-rank0   623707. kBytes
=======================================================================

   base      :      30000. kBytes
   nonlr-proj:      72761. kBytes
   fftplans  :      13422. kBytes
   grid      :      76344. kBytes
   one-center:       3732. kBytes
   wavefun   :     427448. kBytes
 
     INWAV:  cpu time    0.0000: real time    0.0000
 Broyden mixing: mesh for mixing (old mesh)
   NGX = 33   NGY = 37   NGZ = 55
  (NGX  =140   NGY  =160   NGZ  =224)
  gives a total of  67155 points

 initial charge density was supplied:
 charge density of overlapping atoms calculated
 number of electron     912.0000000 magnetization     120.0000000
 keeping initial charge density in first step


--------------------------------------------------------------------------------------------------------


 Maximum index for non-local projection operator         6202
 Maximum index for augmentation-charges         1129 (set IRDMAX)


--------------------------------------------------------------------------------------------------------


 First call to EWALD:  gamma=   0.161
 Maximum number of real-space cells 3x 3x 2
 Maximum number of reciprocal cells 2x 3x 4

    FEWALD:  cpu time    0.0054: real time    0.0054


--------------------------------------- Iteration      1(   1)  ---------------------------------------


    POTLOK:  cpu time    0.3571: real time    0.4180
    SETDIJ:  cpu time    0.0430: real time    0.0431
     EDDAV:  cpu time  132.8188: real time  133.2647
    --------------------------------------------
      LOOP:  cpu time  133.2210: real time  133.7279

 eigenvalue-minimisations  : 24320
 total energy-change (2. order) : 0.1135410E+05  (-0.3824689E+05)
 number of electron     912.0000000 magnetization     120.0000000
 augmentation part      912.0000000 magnetization     120.0000000

 Free energy of the ion-electron system (eV)
  ---------------------------------------------------
  alpha Z        PSCENC =      2828.68208838
  Ewald energy   TEWEN  =    -57196.21240929
  -Hartree energ DENC   =    -28408.02077292
  -exchange      EXHF   =         0.00000000
  -V(xc)+E(xc)   XCENC  =      3562.97743008
  PAW double counting   =     71080.72462945   -74396.17323249
  entropy T*S    EENTRO =        -0.01593236
  eigenvalues    EBANDS =     11176.32061637
  atomic energy  EATOM  =     82705.81968683
  Solvation  Ediel_sol  =         0.00000000
  ---------------------------------------------------
  free energy    TOTEN  =     11354.10210404 eV

  energy without entropy =    11354.11803641  energy(sigma->0) =    11354.11007022


--------------------------------------------------------------------------------------------------------




--------------------------------------- Iteration      1(   2)  ---------------------------------------


     EDDAV:  cpu time  129.4740: real time  129.7809
    --------------------------------------------
      LOOP:  cpu time  129.4744: real time  129.8024

 eigenvalue-minimisations  : 24320
 total energy-change (2. order) :-0.9571789E+04  (-0.8749149E+04)
 number of electron     912.0000000 magnetization     120.0000000
 augmentation part      912.0000000 magnetization     120.0000000

 Free energy of the ion-electron system (eV)
  ---------------------------------------------------
  alpha Z        PSCENC =      2828.68208838
  Ewald energy   TEWEN  =    -57196.21240929
  -Hartree energ DENC   =    -28408.02077292
  -exchange      EXHF   =         0.00000000
  -V(xc)+E(xc)   XCENC  =      3562.97743008
  PAW double counting   =     71080.72462945   -74396.17323249
  entropy T*S    EENTRO =        -0.05893731
  eigenvalues    EBANDS =      1604.57422454
  atomic energy  EATOM  =     82705.81968683
  Solvation  Ediel_sol  =         0.00000000
  ---------------------------------------------------
  free energy    TOTEN  =      1782.31270726 eV

  energy without entropy =     1782.37164457  energy(sigma->0) =     1782.34217591


--------------------------------------------------------------------------------------------------------




--------------------------------------- Iteration      1(   3)  ---------------------------------------


     EDDAV:  cpu time  135.2400: real time  135.5858
    --------------------------------------------
      LOOP:  cpu time  135.2396: real time  135.5643

 eigenvalue-minimisations  : 24912
 total energy-change (2. order) :-0.2419374E+04  (-0.2101733E+04)
 number of electron     912.0000000 magnetization     120.0000000
 augmentation part      912.0000000 magnetization     120.0000000

 Free energy of the ion-electron system (eV)
  ---------------------------------------------------
  alpha Z        PSCENC =      2828.68208838
  Ewald energy   TEWEN  =    -57196.21240929
  -Hartree energ DENC   =    -28408.02077292
  -exchange      EXHF   =         0.00000000
  -V(xc)+E(xc)   XCENC  =      3562.97743008
  PAW double counting   =     71080.72462945   -74396.17323249
  entropy T*S    EENTRO =        -0.21104309
  eigenvalues    EBANDS =      -814.64758985
  atomic energy  EATOM  =     82705.81968683
  Solvation  Ediel_sol  =         0.00000000
  ---------------------------------------------------
  free energy    TOTEN  =      -637.06121291 eV

  energy without entropy =     -636.85016981  energy(sigma->0) =     -636.95569136


--------------------------------------------------------------------------------------------------------




--------------------------------------- Iteration      1(   4)  ---------------------------------------


     EDDAV:  cpu time  145.1416: real time  145.4913
    --------------------------------------------
      LOOP:  cpu time  145.1417: real time  145.4914

 eigenvalue-minimisations  : 27248
 total energy-change (2. order) :-0.3360515E+03  (-0.3209664E+03)
 number of electron     912.0000000 magnetization     120.0000000
 augmentation part      912.0000000 magnetization     120.0000000

 Free energy of the ion-electron system (eV)
  ---------------------------------------------------
  alpha Z        PSCENC =      2828.68208838
  Ewald energy   TEWEN  =    -57196.21240929
  -Hartree energ DENC   =    -28408.02077292
  -exchange      EXHF   =         0.00000000
  -V(xc)+E(xc)   XCENC  =      3562.97743008
  PAW double counting   =     71080.72462945   -74396.17323249
  entropy T*S    EENTRO =        -0.19268108
  eigenvalues    EBANDS =     -1150.71744888
  atomic energy  EATOM  =     82705.81968683
  Solvation  Ediel_sol  =         0.00000000
  ---------------------------------------------------
  free energy    TOTEN  =      -973.11270992 eV

  energy without entropy =     -972.92002885  energy(sigma->0) =     -973.01636938


--------------------------------------------------------------------------------------------------------




--------------------------------------- Iteration      1(   5)  ---------------------------------------


     EDDAV:  cpu time  180.9557: real time  181.3866
    CHARGE:  cpu time    7.6581: real time    7.6990
    MIXING:  cpu time    0.0108: real time    0.0351
    --------------------------------------------
      LOOP:  cpu time  188.6223: real time  189.1186

 eigenvalue-minimisations  : 26880
 total energy-change (2. order) :-0.1209503E+02  (-0.1195175E+02)
 number of electron     911.9999908 magnetization     125.7699662
 augmentation part      301.4018165 magnetization      89.4038525

 Broyden mixing:
  rms(total) = 0.15955E+02    rms(broyden)= 0.15953E+02
  rms(prec ) = 0.17824E+02
  weight for this iteration     100.00

 Free energy of the ion-electron system (eV)
  ---------------------------------------------------
  alpha Z        PSCENC =      2828.68208838
  Ewald energy   TEWEN  =    -57196.21240929
  -Hartree energ DENC   =    -28408.02077292
  -exchange      EXHF   =         0.00000000
  -V(xc)+E(xc)   XCENC  =      3562.97743008
  PAW double counting   =     71080.72462945   -74396.17323249
  entropy T*S    EENTRO =        -0.19259106
  eigenvalues    EBANDS =     -1162.81256415
  atomic energy  EATOM  =     82705.81968683
  Solvation  Ediel_sol  =         0.00000000
  ---------------------------------------------------
  free energy    TOTEN  =      -985.20773517 eV

  energy without entropy =     -985.01514411  energy(sigma->0) =     -985.11143964


--------------------------------------------------------------------------------------------------------




--------------------------------------- Iteration      1(   6)  ---------------------------------------


    POTLOK:  cpu time    0.3885: real time    0.3894
    SETDIJ:  cpu time    0.0476: real time    0.0478
     EDDAV:  cpu time  243.4565: real time  244.0369
    CHARGE:  cpu time    7.4940: real time    7.5118
    MIXING:  cpu time    0.0091: real time    0.0387
    --------------------------------------------
      LOOP:  cpu time  251.3957: real time  252.0245

 eigenvalue-minimisations  : 37216
 total energy-change (2. order) :-0.1956122E+03  (-0.2084495E+03)
 number of electron     911.9999881 magnetization     118.2024823
 augmentation part      393.3751589 magnetization     117.8547869

 Broyden mixing:
  rms(total) = 0.31713E+02    rms(broyden)= 0.31711E+02
  rms(prec ) = 0.34027E+02
  weight for this iteration     100.00

 eigenvalues of (default mixing * dielectric matrix)
  average eigenvalue GAMMA=   0.2374
  0.2374

 Free energy of the ion-electron system (eV)
  ---------------------------------------------------
  alpha Z        PSCENC =      2828.68208838
  Ewald energy   TEWEN  =    -57196.21240929
  -Hartree energ DENC   =    -27088.90462436
  -exchange      EXHF   =         0.00000000
  -V(xc)+E(xc)   XCENC  =      3597.14097476
  PAW double counting   =     75208.72618549   -78052.50394345
  entropy T*S    EENTRO =        -0.07938498
  eigenvalues    EBANDS =     -3183.48853870
  atomic energy  EATOM  =     82705.81968683
  Solvation  Ediel_sol  =         0.00000000
  ---------------------------------------------------
  free energy    TOTEN  =     -1180.81996533 eV

  energy without entropy =    -1180.74058035  energy(sigma->0) =    -1180.78027284


--------------------------------------------------------------------------------------------------------




--------------------------------------- Iteration      1(   7)  ---------------------------------------


    POTLOK:  cpu time    0.3934: real time    0.3943
    SETDIJ:  cpu time    0.0481: real time    0.0482
     EDDAV:  cpu time  221.3705: real time  221.8954
    CHARGE:  cpu time    7.7243: real time    7.7427
    MIXING:  cpu time    0.0089: real time    0.0230
    --------------------------------------------
      LOOP:  cpu time  229.5453: real time  230.1036

 eigenvalue-minimisations  : 33120
 total energy-change (2. order) : 0.3954870E+03  (-0.6084721E+02)
 number of electron     911.9999901 magnetization     111.6087676
 augmentation part      361.3736110 magnetization      96.9279076

 Broyden mixing:
  rms(total) = 0.14394E+02    rms(broyden)= 0.14392E+02
  rms(prec ) = 0.15986E+02
  weight for this iteration     100.00

 eigenvalues of (default mixing * dielectric matrix)
  average eigenvalue GAMMA=   0.4409
  0.4409  0.4409

 Free energy of the ion-electron system (eV)
  ---------------------------------------------------
  alpha Z        PSCENC =      2828.68208838
  Ewald energy   TEWEN  =    -57196.21240929
  -Hartree energ DENC   =    -27605.34867179
  -exchange      EXHF   =         0.00000000
  -V(xc)+E(xc)   XCENC  =      3558.89632685
  PAW double counting   =     77682.95697311   -80823.13921645
  entropy T*S    EENTRO =        -0.12044174
  eigenvalues    EBANDS =     -1936.86734125
  atomic energy  EATOM  =     82705.81968683
  Solvation  Ediel_sol  =         0.00000000
  ---------------------------------------------------
  free energy    TOTEN  =      -785.33300536 eV

  energy without entropy =     -785.21256363  energy(sigma->0) =     -785.27278450


--------------------------------------------------------------------------------------------------------




--------------------------------------- Iteration      1(   8)  ---------------------------------------


    POTLOK:  cpu time    0.3917: real time    0.3926
    SETDIJ:  cpu time    0.0475: real time    0.0476
     EDDAV:  cpu time  235.5361: real time  236.0946
    CHARGE:  cpu time    7.5048: real time    7.5226
    MIXING:  cpu time    0.0096: real time    0.0109
    --------------------------------------------
      LOOP:  cpu time  243.4896: real time  244.0682

 eigenvalue-minimisations  : 34976
 total energy-change (2. order) :-0.1083788E+03  (-0.2718664E+02)
 number of electron     911.9999897 magnetization     105.8962103
 augmentation part      349.4018020 magnetization      95.2416857

 Broyden mixing:
  rms(total) = 0.16631E+02    rms(broyden)= 0.16630E+02
  rms(prec ) = 0.22587E+02
  weight for this iteration     100.00

 eigenvalues of (default mixing * dielectric matrix)
  average eigenvalue GAMMA=   0.4093
  0.5322  0.5322  0.1634

 Free energy of the ion-electron system (eV)
  ---------------------------------------------------
  alpha Z        PSCENC =      2828.68208838
  Ewald energy   TEWEN  =    -57196.21240929
  -Hartree energ DENC   =    -27611.34929224
  -exchange      EXHF   =         0.00000000
  -V(xc)+E(xc)   XCENC  =      3540.62721845
  PAW double counting   =     79165.59890731   -82433.59217105
  entropy T*S    EENTRO =        -0.08982364
  eigenvalues    EBANDS =     -1893.19596573
  atomic energy  EATOM  =     82705.81968683
  Solvation  Ediel_sol  =         0.00000000
  ---------------------------------------------------
  free energy    TOTEN  =      -893.71176099 eV

  energy without entropy =     -893.62193735  energy(sigma->0) =     -893.66684917


--------------------------------------------------------------------------------------------------------




--------------------------------------- Iteration      1(   9)  ---------------------------------------


    POTLOK:  cpu time    0.3878: real time    0.3888
    SETDIJ:  cpu time    0.0471: real time    0.0473
     EDDAV:  cpu time  210.0751: real time  210.5732
    CHARGE:  cpu time    7.5738: real time    7.5918
    MIXING:  cpu time    0.0106: real time    0.0106
    --------------------------------------------
      LOOP:  cpu time  218.0944: real time  218.6116

 eigenvalue-minimisations  : 30512
 total energy-change (2. order) : 0.1582986E+02  (-0.4160300E+02)
 number of electron     911.9999914 magnetization     100.8994054
 augmentation part      332.4577802 magnetization      84.7077410

 Broyden mixing:
  rms(total) = 0.19303E+02    rms(broyden)= 0.19302E+02
  rms(prec ) = 0.25149E+02
  weight for this iteration     100.00

 eigenvalues of (default mixing * dielectric matrix)
  average eigenvalue GAMMA=   0.3632
  0.5813  0.5813  0.1836  0.1068

 Free energy of the ion-electron system (eV)
  ---------------------------------------------------
  alpha Z        PSCENC =      2828.68208838
  Ewald energy   TEWEN  =    -57196.21240929
  -Hartree energ DENC   =    -27564.91904397
  -exchange      EXHF   =         0.00000000
  -V(xc)+E(xc)   XCENC  =      3534.71150769
  PAW double counting   =     80287.95812861   -83603.09575520
  entropy T*S    EENTRO =        -0.12077156
  eigenvalues    EBANDS =     -1870.70532950
  atomic energy  EATOM  =     82705.81968683
  Solvation  Ediel_sol  =         0.00000000
  ---------------------------------------------------
  free energy    TOTEN  =      -877.88189801 eV

  energy without entropy =     -877.76112646  energy(sigma->0) =     -877.82151223


--------------------------------------------------------------------------------------------------------




--------------------------------------- Iteration      1(  10)  ---------------------------------------


    POTLOK:  cpu time    0.3885: real time    0.3894
    SETDIJ:  cpu time    0.0470: real time    0.0471
     EDDAV:  cpu time  230.8581: real time  231.4055
    CHARGE:  cpu time    7.5269: real time    7.5447
    MIXING:  cpu time    0.0099: real time    0.0099
    --------------------------------------------
      LOOP:  cpu time  238.8303: real time  239.3966

 eigenvalue-minimisations  : 34096
 total energy-change (2. order) : 0.6869736E+02  (-0.1586246E+02)
 number of electron     911.9999887 magnetization      97.2013893
 augmentation part      332.3645917 magnetization      77.6404728

 Broyden mixing:
  rms(total) = 0.14951E+02    rms(broyden)= 0.14950E+02
  rms(prec ) = 0.18829E+02
  weight for this iteration     100.00

 eigenvalues of (default mixing * dielectric matrix)
  average eigenvalue GAMMA=   0.3390
  0.6274  0.6274  0.1666  0.1666  0.1068

 Free energy of the ion-electron system (eV)
  ---------------------------------------------------
  alpha Z        PSCENC =      2828.68208838
  Ewald energy   TEWEN  =    -57196.21240929
  -Hartree energ DENC   =    -27588.80646805
  -exchange      EXHF   =         0.00000000
  -V(xc)+E(xc)   XCENC  =      3531.34426999
  PAW double counting   =     81347.40477354   -84698.08850304
  entropy T*S    EENTRO =        -0.14551819
  eigenvalues    EBANDS =     -1739.18245471
  atomic energy  EATOM  =     82705.81968683
  Solvation  Ediel_sol  =         0.00000000
  ---------------------------------------------------
  free energy    TOTEN  =      -809.18453455 eV

  energy without entropy =     -809.03901636  energy(sigma->0) =     -809.11177545


--------------------------------------------------------------------------------------------------------




--------------------------------------- Iteration      1(  11)  ---------------------------------------


    POTLOK:  cpu time    0.3956: real time    0.3965
    SETDIJ:  cpu time    0.0470: real time    0.0471
     EDDAV:  cpu time  230.7679: real time  231.3150
    CHARGE:  cpu time    7.9355: real time    7.9543
    MIXING:  cpu time    0.0095: real time    0.0095
    --------------------------------------------
      LOOP:  cpu time  239.1555: real time  239.7225

 eigenvalue-minimisations  : 33328
 total energy-change (2. order) : 0.5808052E+02  (-0.1530274E+02)
 number of electron     911.9999911 magnetization      94.6944659
 augmentation part      337.0890203 magnetization      73.3014004

 Broyden mixing:
  rms(total) = 0.11913E+02    rms(broyden)= 0.11912E+02
  rms(prec ) = 0.15240E+02
  weight for this iteration     100.00

 eigenvalues of (default mixing * dielectric matrix)
  average eigenvalue GAMMA=   0.3327
  0.6666  0.6666  0.2243  0.2243  0.1452  0.0691

 Free energy of the ion-electron system (eV)
  ---------------------------------------------------
  alpha Z        PSCENC =      2828.68208838
  Ewald energy   TEWEN  =    -57196.21240929
  -Hartree energ DENC   =    -27529.21906039
  -exchange      EXHF   =         0.00000000
  -V(xc)+E(xc)   XCENC  =      3530.43911374
  PAW double counting   =     82037.25818923   -85398.59208410
  entropy T*S    EENTRO =        -0.13331594
  eigenvalues    EBANDS =     -1729.14622176
  atomic energy  EATOM  =     82705.81968683
  Solvation  Ediel_sol  =         0.00000000
  ---------------------------------------------------
  free energy    TOTEN  =      -751.10401330 eV

  energy without entropy =     -750.97069736  energy(sigma->0) =     -751.03735533


--------------------------------------------------------------------------------------------------------




--------------------------------------- Iteration      1(  12)  ---------------------------------------


    POTLOK:  cpu time    0.3938: real time    0.3948
    SETDIJ:  cpu time    0.0482: real time    0.0483
     EDDAV:  cpu time  209.4101: real time  209.9064
    CHARGE:  cpu time    7.8154: real time    7.8340
    MIXING:  cpu time    0.0105: real time    0.0106
    --------------------------------------------
      LOOP:  cpu time  217.6781: real time  218.1941

 eigenvalue-minimisations  : 30784
 total energy-change (2. order) :-0.9373104E+01  (-0.1047946E+02)
 number of electron     911.9999916 magnetization      89.7723557
 augmentation part      333.6028146 magnetization      71.6642644

 Broyden mixing:
  rms(total) = 0.14509E+02    rms(broyden)= 0.14508E+02
  rms(prec ) = 0.18351E+02
  weight for this iteration     100.00

 eigenvalues of (default mixing * dielectric matrix)
  average eigenvalue GAMMA=   0.3462
  0.7556  0.7556  0.3084  0.3084  0.1433  0.0761  0.0761

 Free energy of the ion-electron system (eV)
  ---------------------------------------------------
  alpha Z        PSCENC =      2828.68208838
  Ewald energy   TEWEN  =    -57196.21240929
  -Hartree energ DENC   =    -27535.29386789
  -exchange      EXHF   =         0.00000000
  -V(xc)+E(xc)   XCENC  =      3530.22532292
  PAW double counting   =     82496.95881180   -85870.26131235
  entropy T*S    EENTRO =        -0.11731793
  eigenvalues    EBANDS =     -1720.27811953
  atomic energy  EATOM  =     82705.81968683
  Solvation  Ediel_sol  =         0.00000000
  ---------------------------------------------------
  free energy    TOTEN  =      -760.47711707 eV

  energy without entropy =     -760.35979914  energy(sigma->0) =     -760.41845810


--------------------------------------------------------------------------------------------------------




--------------------------------------- Iteration      1(  13)  ---------------------------------------


    POTLOK:  cpu time    0.3903: real time    0.3912
    SETDIJ:  cpu time    0.0479: real time    0.0480
     EDDAV:  cpu time  220.9090: real time  221.4325
    CHARGE:  cpu time    7.7387: real time    7.7570
    MIXING:  cpu time    0.0103: real time    0.0103
    --------------------------------------------
      LOOP:  cpu time  229.0962: real time  229.6391

 eigenvalue-minimisations  : 32800
 total energy-change (2. order) : 0.2069528E+02  (-0.6509729E+01)
 number of electron     911.9999914 magnetization      86.4004524
 augmentation part      336.6204982 magnetization      68.0047389

 Broyden mixing:
  rms(total) = 0.11969E+02    rms(broyden)= 0.11969E+02
  rms(prec ) = 0.14849E+02
  weight for this iteration     100.00

 eigenvalues of (default mixing * dielectric matrix)
  average eigenvalue GAMMA=   0.3380
  0.9368  0.6842  0.3332  0.3332  0.1327  0.1327  0.0757  0.0757

 Free energy of the ion-electron system (eV)
  ---------------------------------------------------
  alpha Z        PSCENC =      2828.68208838
  Ewald energy   TEWEN  =    -57196.21240929
  -Hartree energ DENC   =    -27527.05487377
  -exchange      EXHF   =         0.00000000
  -V(xc)+E(xc)   XCENC  =      3530.21849601
  PAW double counting   =     83196.41895335   -86581.12099354
  entropy T*S    EENTRO =        -0.12740833
  eigenvalues    EBANDS =     -1696.40538145
  atomic energy  EATOM  =     82705.81968683
  Solvation  Ediel_sol  =         0.00000000
  ---------------------------------------------------
  free energy    TOTEN  =      -739.78184181 eV

  energy without entropy =     -739.65443348  energy(sigma->0) =     -739.71813765


--------------------------------------------------------------------------------------------------------




--------------------------------------- Iteration      1(  14)  ---------------------------------------


    POTLOK:  cpu time    0.3882: real time    0.3891
    SETDIJ:  cpu time    0.0479: real time    0.0480
     EDDAV:  cpu time  218.9675: real time  219.4864
    CHARGE:  cpu time    7.6149: real time    7.6330
    MIXING:  cpu time    0.0120: real time    0.0120
    --------------------------------------------
      LOOP:  cpu time  227.0305: real time  227.5686

 eigenvalue-minimisations  : 32400
 total energy-change (2. order) : 0.3050727E+02  (-0.5251108E+01)
 number of electron     911.9999905 magnetization      82.9921019
 augmentation part      338.7731622 magnetization      62.7112087

 Broyden mixing:
  rms(total) = 0.79027E+01    rms(broyden)= 0.79019E+01
  rms(prec ) = 0.97036E+01
  weight for this iteration     100.00

 eigenvalues of (default mixing * dielectric matrix)
  average eigenvalue GAMMA=   0.3421
  1.0634  0.6787  0.3736  0.3736  0.1740  0.1740  0.0905  0.0758  0.0758

 Free energy of the ion-electron system (eV)
  ---------------------------------------------------
  alpha Z        PSCENC =      2828.68208838
  Ewald energy   TEWEN  =    -57196.21240929
  -Hartree energ DENC   =    -27526.82380231
  -exchange      EXHF   =         0.00000000
  -V(xc)+E(xc)   XCENC  =      3530.28555443
  PAW double counting   =     83630.83662739   -87022.81187108
  entropy T*S    EENTRO =        -0.14300414
  eigenvalues    EBANDS =     -1658.90744450
  atomic energy  EATOM  =     82705.81968683
  Solvation  Ediel_sol  =         0.00000000
  ---------------------------------------------------
  free energy    TOTEN  =      -709.27457428 eV

  energy without entropy =     -709.13157015  energy(sigma->0) =     -709.20307221


--------------------------------------------------------------------------------------------------------




--------------------------------------- Iteration      1(  15)  ---------------------------------------


    POTLOK:  cpu time    0.3878: real time    0.3888
    SETDIJ:  cpu time    0.0484: real time    0.0485
     EDDAV:  cpu time  201.2947: real time  201.7717
    CHARGE:  cpu time    7.7148: real time    7.7331
    MIXING:  cpu time    0.0118: real time    0.0118
    --------------------------------------------
      LOOP:  cpu time  209.4575: real time  209.9539

 eigenvalue-minimisations  : 29120
 total energy-change (2. order) : 0.1091464E+02  (-0.3967750E+01)
 number of electron     911.9999917 magnetization      80.3104620
 augmentation part      338.5196564 magnetization      59.0687863

 Broyden mixing:
  rms(total) = 0.68797E+01    rms(broyden)= 0.68787E+01
  rms(prec ) = 0.82693E+01
  weight for this iteration     100.00

 eigenvalues of (default mixing * dielectric matrix)
  average eigenvalue GAMMA=   0.3401
  1.1526  0.6632  0.4127  0.4127  0.2609  0.1482  0.1104  0.0909  0.0749  0.0749

 Free energy of the ion-electron system (eV)
  ---------------------------------------------------
  alpha Z        PSCENC =      2828.68208838
  Ewald energy   TEWEN  =    -57196.21240929
  -Hartree energ DENC   =    -27540.89542964
  -exchange      EXHF   =         0.00000000
  -V(xc)+E(xc)   XCENC  =      3530.14317868
  PAW double counting   =     84013.20742675   -87413.15529989
  entropy T*S    EENTRO =        -0.14881352
  eigenvalues    EBANDS =     -1625.80035833
  atomic energy  EATOM  =     82705.81968683
  Solvation  Ediel_sol  =         0.00000000
  ---------------------------------------------------
  free energy    TOTEN  =      -698.35993005 eV

  energy without entropy =     -698.21111653  energy(sigma->0) =     -698.28552329


--------------------------------------------------------------------------------------------------------




--------------------------------------- Iteration      1(  16)  ---------------------------------------


    POTLOK:  cpu time    0.3887: real time    0.3896
    SETDIJ:  cpu time    0.0473: real time    0.0474
     EDDAV:  cpu time  209.8215: real time  210.3189
    CHARGE:  cpu time    7.6154: real time    7.6334
    MIXING:  cpu time    0.0148: real time    0.0562
    --------------------------------------------
      LOOP:  cpu time  217.8877: real time  218.4456

 eigenvalue-minimisations  : 30688
 total energy-change (2. order) : 0.2618073E+01  (-0.4320061E+01)
 number of electron     911.9999911 magnetization      76.9165842
 augmentation part      338.6493285 magnetization      56.3565343

 Broyden mixing:
  rms(total) = 0.48092E+01    rms(broyden)= 0.48084E+01
  rms(prec ) = 0.58004E+01
  weight for this iteration     100.00

 eigenvalues of (default mixing * dielectric matrix)
  average eigenvalue GAMMA=   0.3452
  1.2740  0.6226  0.4564  0.4564  0.3268  0.1646  0.1646  0.0904  0.0904  0.0757
  0.0757

 Free energy of the ion-electron system (eV)
  ---------------------------------------------------
  alpha Z        PSCENC =      2828.68208838
  Ewald energy   TEWEN  =    -57196.21240929
  -Hartree energ DENC   =    -27551.03390608
  -exchange      EXHF   =         0.00000000
  -V(xc)+E(xc)   XCENC  =      3529.86321203
  PAW double counting   =     84311.09721440   -87717.17077871
  entropy T*S    EENTRO =        -0.13652720
  eigenvalues    EBANDS =     -1606.65043750
  atomic energy  EATOM  =     82705.81968683
  Solvation  Ediel_sol  =         0.00000000
  ---------------------------------------------------
  free energy    TOTEN  =      -695.74185714 eV

  energy without entropy =     -695.60532994  energy(sigma->0) =     -695.67359354


--------------------------------------------------------------------------------------------------------




--------------------------------------- Iteration      1(  17)  ---------------------------------------


    POTLOK:  cpu time    0.3891: real time    0.3900
    SETDIJ:  cpu time    0.0477: real time    0.0478
     EDDAV:  cpu time  199.4031: real time  199.8755
    CHARGE:  cpu time    7.7141: real time    7.7324
    MIXING:  cpu time    0.0116: real time    0.0117
    --------------------------------------------
      LOOP:  cpu time  207.5655: real time  208.0574

 eigenvalue-minimisations  : 28480
 total energy-change (2. order) : 0.1276762E+01  (-0.1948429E+01)
 number of electron     911.9999909 magnetization      74.5190666
 augmentation part      338.3507648 magnetization      54.7465848

 Broyden mixing:
  rms(total) = 0.44887E+01    rms(broyden)= 0.44878E+01
  rms(prec ) = 0.56400E+01
  weight for this iteration     100.00

 eigenvalues of (default mixing * dielectric matrix)
  average eigenvalue GAMMA=   0.3407
  1.3409  0.5739  0.4887  0.4887  0.3023  0.3023  0.1552  0.1005  0.1005  0.0770
  0.0770  0.0817

 Free energy of the ion-electron system (eV)
  ---------------------------------------------------
  alpha Z        PSCENC =      2828.68208838
  Ewald energy   TEWEN  =    -57196.21240929
  -Hartree energ DENC   =    -27562.18195493
  -exchange      EXHF   =         0.00000000
  -V(xc)+E(xc)   XCENC  =      3528.96152430
  PAW double counting   =     84650.03860247   -88062.87950329
  entropy T*S    EENTRO =        -0.14046632
  eigenvalues    EBANDS =     -1586.55266314
  atomic energy  EATOM  =     82705.81968683
  Solvation  Ediel_sol  =         0.00000000
  ---------------------------------------------------
  free energy    TOTEN  =      -694.46509499 eV

  energy without entropy =     -694.32462867  energy(sigma->0) =     -694.39486183


--------------------------------------------------------------------------------------------------------




--------------------------------------- Iteration      1(  18)  ---------------------------------------


    POTLOK:  cpu time    0.3900: real time    0.3910
    SETDIJ:  cpu time    0.0476: real time    0.0477
     EDDAV:  cpu time  209.3774: real time  209.8736
    CHARGE:  cpu time    7.7795: real time    7.7980
    MIXING:  cpu time    0.0129: real time    0.0130
    --------------------------------------------
      LOOP:  cpu time  217.6076: real time  218.1233

 eigenvalue-minimisations  : 30256
 total energy-change (2. order) : 0.4705748E+00  (-0.1651120E+01)
 number of electron     911.9999909 magnetization      71.8653363
 augmentation part      338.2243423 magnetization      52.3227437

 Broyden mixing:
  rms(total) = 0.34610E+01    rms(broyden)= 0.34602E+01
  rms(prec ) = 0.41118E+01
  weight for this iteration     100.00

 eigenvalues of (default mixing * dielectric matrix)
  average eigenvalue GAMMA=   0.3480
  1.3984  0.5806  0.5806  0.5082  0.3722  0.3722  0.1449  0.1243  0.1243  0.0806
  0.0806  0.0784  0.0784

 Free energy of the ion-electron system (eV)
  ---------------------------------------------------
  alpha Z        PSCENC =      2828.68208838
  Ewald energy   TEWEN  =    -57196.21240929
  -Hartree energ DENC   =    -27571.26121815
  -exchange      EXHF   =         0.00000000
  -V(xc)+E(xc)   XCENC  =      3528.41610447
  PAW double counting   =     84864.68821614   -88281.15372608
  entropy T*S    EENTRO =        -0.12386618
  eigenvalues    EBANDS =     -1572.84939628
  atomic energy  EATOM  =     82705.81968683
  Solvation  Ediel_sol  =         0.00000000
  ---------------------------------------------------
  free energy    TOTEN  =      -693.99452016 eV

  energy without entropy =     -693.87065398  energy(sigma->0) =     -693.93258707


--------------------------------------------------------------------------------------------------------




--------------------------------------- Iteration      1(  19)  ---------------------------------------


    POTLOK:  cpu time    0.3878: real time    0.3887
    SETDIJ:  cpu time    0.0476: real time    0.0477
     EDDAV:  cpu time  204.9833: real time  205.4691
    CHARGE:  cpu time    7.6138: real time    7.6318
    MIXING:  cpu time    0.0136: real time    0.0136
    --------------------------------------------
      LOOP:  cpu time  213.0462: real time  213.5510

 eigenvalue-minimisations  : 29392
 total energy-change (2. order) : 0.4699416E+00  (-0.7386609E+00)
 number of electron     911.9999912 magnetization      69.3042613
 augmentation part      338.1541174 magnetization      49.7179323

 Broyden mixing:
  rms(total) = 0.26828E+01    rms(broyden)= 0.26822E+01
  rms(prec ) = 0.31530E+01
  weight for this iteration     100.00

 eigenvalues of (default mixing * dielectric matrix)
  average eigenvalue GAMMA=   0.3567
  1.5066  0.6682  0.6682  0.4287  0.4090  0.4090  0.2150  0.1359  0.1359  0.0922
  0.0922  0.0770  0.0770  0.0796

 Free energy of the ion-electron system (eV)
  ---------------------------------------------------
  alpha Z        PSCENC =      2828.68208838
  Ewald energy   TEWEN  =    -57196.21240929
  -Hartree energ DENC   =    -27578.49216818
  -exchange      EXHF   =         0.00000000
  -V(xc)+E(xc)   XCENC  =      3527.74855095
  PAW double counting   =     85058.16381884   -88477.14256093
  entropy T*S    EENTRO =        -0.12417719
  eigenvalues    EBANDS =     -1561.96740794
  atomic energy  EATOM  =     82705.81968683
  Solvation  Ediel_sol  =         0.00000000
  ---------------------------------------------------
  free energy    TOTEN  =      -693.52457854 eV

  energy without entropy =     -693.40040136  energy(sigma->0) =     -693.46248995


--------------------------------------------------------------------------------------------------------




--------------------------------------- Iteration      1(  20)  ---------------------------------------


    POTLOK:  cpu time    0.3918: real time    0.3928
    SETDIJ:  cpu time    0.0471: real time    0.0472
     EDDAV:  cpu time  209.9191: real time  210.4167
    CHARGE:  cpu time    7.8101: real time    7.8286
    MIXING:  cpu time    0.0128: real time    0.0129
    --------------------------------------------
      LOOP:  cpu time  218.1809: real time  218.6981

 eigenvalue-minimisations  : 30496
 total energy-change (2. order) :-0.2208120E+01  (-0.6028496E+00)
 number of electron     911.9999909 magnetization      66.0113352
 augmentation part      337.6093263 magnetization      46.5096591

 Broyden mixing:
  rms(total) = 0.32729E+01    rms(broyden)= 0.32725E+01
  rms(prec ) = 0.39712E+01
  weight for this iteration     100.00

 eigenvalues of (default mixing * dielectric matrix)
  average eigenvalue GAMMA=   0.3707
  1.6614  0.7764  0.7764  0.4416  0.4416  0.3328  0.3328  0.1420  0.1420  0.0982
  0.0982  0.0779  0.0779  0.0804  0.0804

 Free energy of the ion-electron system (eV)
  ---------------------------------------------------
  alpha Z        PSCENC =      2828.68208838
  Ewald energy   TEWEN  =    -57196.21240929
  -Hartree energ DENC   =    -27585.30525543
  -exchange      EXHF   =         0.00000000
  -V(xc)+E(xc)   XCENC  =      3527.08905768
  PAW double counting   =     85239.96589883   -88660.03406591
  entropy T*S    EENTRO =        -0.13553203
  eigenvalues    EBANDS =     -1555.60216747
  atomic energy  EATOM  =     82705.81968683
  Solvation  Ediel_sol  =         0.00000000
  ---------------------------------------------------
  free energy    TOTEN  =      -695.73269841 eV

  energy without entropy =     -695.59716638  energy(sigma->0) =     -695.66493239


--------------------------------------------------------------------------------------------------------




--------------------------------------- Iteration      1(  21)  ---------------------------------------


    POTLOK:  cpu time    0.3978: real time    0.3987
    SETDIJ:  cpu time    0.0489: real time    0.0491
     EDDAV:  cpu time  213.2794: real time  213.7849
    CHARGE:  cpu time    7.9041: real time    7.9228
    MIXING:  cpu time    0.0135: real time    0.0136
    --------------------------------------------
      LOOP:  cpu time  221.6438: real time  222.1691

 eigenvalue-minimisations  : 30992
 total energy-change (2. order) :-0.1252150E+01  (-0.8020185E+00)
 number of electron     911.9999908 magnetization      63.3537726
 augmentation part      337.9687237 magnetization      44.9558320

 Broyden mixing:
  rms(total) = 0.26005E+01    rms(broyden)= 0.25999E+01
  rms(prec ) = 0.31733E+01
  weight for this iteration     100.00

 eigenvalues of (default mixing * dielectric matrix)
  average eigenvalue GAMMA=   0.3799
  1.7285  0.8719  0.8719  0.4495  0.4495  0.3671  0.3671  0.2114  0.1306  0.1306
  0.0776  0.0776  0.0950  0.0874  0.0874  0.0749

 Free energy of the ion-electron system (eV)
  ---------------------------------------------------
  alpha Z        PSCENC =      2828.68208838
  Ewald energy   TEWEN  =    -57196.21240929
  -Hartree energ DENC   =    -27588.07145243
  -exchange      EXHF   =         0.00000000
  -V(xc)+E(xc)   XCENC  =      3526.27853284
  PAW double counting   =     85468.28898929   -88888.76492989
  entropy T*S    EENTRO =        -0.12095923
  eigenvalues    EBANDS =     -1552.88439530
  atomic energy  EATOM  =     82705.81968683
  Solvation  Ediel_sol  =         0.00000000
[...]
      7.26500      1.49474      8.00028         1.150716     -2.699948      0.175910
      7.31590      3.92333      9.33458         0.802334      0.657900      0.396884
      5.82031      0.89718      5.33944         0.409921     -1.431965     -1.159672
      5.77922      0.87439      2.00724         0.869277     -0.905418      1.268564
      7.41133      3.99901     12.73353        -1.350656     -1.181812     -1.606681
      7.26540      8.29756      0.74951         0.131433      0.850622     -0.631873
      5.70210      6.06851     13.90506         0.424260      0.073900      0.447538
      7.01572      8.30071      6.54718         2.687131      3.094984     -0.426298
      6.00724      6.24466      7.94920        -1.496265     -1.551895      1.927781
      5.66884      8.96746      9.22148         2.077798     -0.413592      1.723205
      7.06914      5.96525      5.37615         0.469088     -1.439802     -1.571347
      7.27633      5.88333      1.98429        -0.304786     -1.805573      0.813709
      5.90024      8.81013     12.73537        -1.525602      2.468103     -2.372165
      0.01034      0.20184      7.39773         0.233344      0.326615     -0.146542
      0.16624      9.88648      0.16212        -0.769869     -0.316333     -0.215500
      1.56922      0.27070     12.23919        -0.691792     -1.589283      2.081253
      0.02878      4.52451      2.40199        -0.068487      0.733278     -2.357069
      0.07289      4.52289      4.84305        -1.136646      0.049868      0.778339
      1.48266      0.19214      9.60265         0.230919     -0.979786     -2.075276
      0.04720      2.77824     13.49921        -0.650429     -0.068140      1.259698
      1.38876      2.09819      0.92134         0.045315      1.168472     -0.374695
      1.52830      2.24571      6.17706        -0.318695     -0.685967      0.242160
      8.82925      2.76966      8.36116        -0.394861      0.133129     -0.620476
      1.44294      3.35420     10.92619        -0.159897     -0.270690      0.987557
      8.84086      1.73849      3.61640         0.050493     -0.116279      1.158421
      1.31361      4.84376      7.37167         0.395533      0.462835     -0.036603
      1.37293      4.95789     14.87645         0.227294     -0.261131      0.364094
      8.73682      5.15173     12.15773        -0.848651      0.848488      2.036178
      1.50124      9.28364      2.22934        -0.498328      0.927831     -0.329193
      1.35976      9.37716      5.02460         0.375193      1.177751      1.426938
      8.89371      4.98870      9.64770        -0.236853      0.473744     -1.788363
      1.49594      7.36018     13.55071        -0.572065      0.780921      0.771941
      8.86724      6.99091      1.18396        -0.533377     -0.810520     -0.749539
      0.14242      6.98578      6.13059        -0.852299     -0.283728      0.920485
      1.47468      7.64093      8.28161         0.198974     -2.344361      5.859112
      8.86580      7.99381     10.86662         0.069892      0.862683      0.862997
      1.43180      6.56687      3.64738         0.042800     -0.217860     -1.747716
      2.80263      9.64424      7.32778         0.296039     -0.294214     -0.747206
      2.70799      0.05333      0.03792         0.845893      0.294857     -0.352848
      4.55814      0.33891     12.22670         0.163020     -1.497899      2.352027
      2.88307      4.63738      2.45571         0.619533     -0.290498     -1.886942
      2.82522      4.68177      5.17470        -0.288201     -0.314201     -0.509363
      4.22585      0.11496      9.36494         0.864558      0.728774     -0.070639
      2.86317      2.91302     13.39830         0.342362     -0.072147      1.019926
      4.19830      2.27082      0.91100         1.676220     -2.488736      0.425454
      4.22716      2.22336      6.23408         0.700094     -0.747522      0.197612
      2.77669      2.84061      8.37950         2.115098     -2.355933     -1.172634
      4.44202      3.24186     11.06764        -0.104287     -0.817858     -3.308030
      3.01431      1.59281      3.59972        -0.129667      1.605575      2.985315
      4.35988      4.79701      7.28876        -0.073316      0.296246     -0.431386
      4.37150      4.95034      0.18673        -0.613156      0.242828     -0.599755
      2.91472      5.22553     12.03827        -0.517952     -0.308034      3.035545
      4.31014      9.39208      2.27628         0.477452      1.411701     -1.821138
      4.31447      9.43894      4.93040         0.666140      1.171301      1.662988
      2.83734      5.14476      9.71234         1.219588     -0.229836     -2.844879
      4.38006      7.47479     13.29037         0.402811      0.337494      1.584373
      2.84875      6.95961      1.01229         0.196339      0.116376     -0.549135
      2.88799      7.09241      6.21530         1.410843     -0.721500      0.418914
      4.49286      7.54511      8.57360        -0.311744      0.450979     -1.676145
      2.99902      8.09143     10.87618         0.005760      0.081420     -1.810384
      4.26179      6.50768      3.64454         0.291621     -0.397077      0.478815
      5.94544      0.00493      7.17767        -0.983816      0.227756     -0.531183
      5.76789      0.20618     14.78638        -0.044458      0.791130     -0.095391
      7.28456      0.24351     12.27624         0.187327     -1.224497      2.518456
      5.78794      4.57408      2.28541        -0.206872      0.569617     -1.119692
      5.93853      4.51998      4.91605        -1.167804      0.215725      2.152101
      7.16820      0.31057      9.35616        -0.291425     -0.893697      0.099094
      5.83724      2.81411     13.26933         0.194945     -0.536564      1.870011
      7.29759      2.27357      1.19486        -0.702903     -0.621313     -1.802959
      7.25049      2.01938      6.22474        -0.042650      1.044450     -0.704252
      5.80716      2.77895      8.47353        -0.329362     -0.282841     -0.268501
      7.26427      3.11263     10.93572         0.121939      1.181511      0.156139
      5.69589      1.77038      3.75537         0.247333     -1.698506     -0.803595
      7.23349      4.76594      7.31140         0.123255      0.031699     -0.325760
      7.17632      4.87496      0.08357         0.564550      0.265241     -0.434336
      5.74455      4.91102     12.42049         1.221224      2.404171      0.989167
      7.28449      9.33833      2.16489        -0.025713      1.359226     -0.278971
      7.22742      9.53565      4.88437        -0.222046      0.854277      1.810973
      5.82336      5.23539      9.56993         0.238329     -0.985031     -1.684844
      7.14202      7.82342     13.55993         1.187480     -1.260485      1.237426
      5.81408      7.01495      1.16391        -0.372685      0.212015     -1.001535
      5.75078      7.09747      6.30686        -1.246241     -1.241556     -0.790208
      7.24410      7.57224      8.46301         0.920077      0.754613     -0.613232
      5.75110      8.01273     11.00302         0.177469      1.740644      0.055623
      7.01481      6.51172      3.69093         0.607624      0.188212     -0.539910
 -----------------------------------------------------------------------------------
    total drift:                               -0.022106     -0.054255      0.020099


--------------------------------------------------------------------------------------------------------



  FREE ENERGIE OF THE ION-ELECTRON SYSTEM (eV)
  ---------------------------------------------------
  free  energy   TOTEN  =      -706.4895986336 eV

  energy  without entropy=     -706.3683276557  energy(sigma->0) =     -706.42896314
 


--------------------------------------------------------------------------------------------------------


    POTLOK:  cpu time    0.4375: real time    0.4386


--------------------------------------------------------------------------------------------------------


     LOOP+:  cpu time17813.0708: real time17856.0503
    4ORBIT:  cpu time    0.0000: real time    0.0000

volume of typ            1:    23.0 %

volume of typ            2:     8.8 %
 
total charge     
 
# of ion       s       p       d       tot
------------------------------------------
    1        0.199   0.197   7.842   8.238
    2        0.203   0.203   7.831   8.236
    3        0.217   0.231   7.892   8.341
    4        0.220   0.237   7.879   8.336
    5        0.289   0.362   7.857   8.508
    6        0.217   0.220   7.837   8.274
    7        0.234   0.239   7.836   8.309
    8        0.242   0.262   7.853   8.357
    9        0.226   0.243   7.873   8.342
   10        0.188   0.177   7.900   8.266
   11        0.282   0.359   7.924   8.564
   12        0.201   0.205   7.894   8.301
   13        0.222   0.224   7.851   8.297
   14        0.295   0.349   7.855   8.499
   15        0.254   0.286   7.831   8.371
   16        0.199   0.174   7.847   8.220
   17        0.234   0.251   7.899   8.383
   18        0.202   0.208   7.913   8.323
   19        0.250   0.306   7.894   8.450
   20        0.211   0.220   7.917   8.348
   21        0.220   0.249   7.864   8.333
   22        0.241   0.253   7.869   8.363
   23        0.266   0.297   7.884   8.448
   24        0.303   0.373   7.838   8.514
   25        0.187   0.170   7.877   8.235
   26        0.206   0.214   7.904   8.324
   27        0.214   0.227   7.883   8.324
   28        0.208   0.214   7.902   8.324
   29        0.245   0.298   7.866   8.409
   30        0.233   0.251   7.863   8.346
   31        0.251   0.302   7.826   8.379
   32        0.236   0.242   7.823   8.301
   33        0.219   0.236   7.892   8.347
   34        0.181   0.154   7.867   8.202
   35        0.221   0.249   7.891   8.361
   36        0.242   0.293   7.848   8.382
   37        0.245   0.271   7.809   8.325
   38        0.238   0.266   7.852   8.356
   39        0.198   0.181   7.835   8.213
   40        0.229   0.251   7.853   8.332
   41        0.223   0.225   7.871   8.320
   42        0.200   0.194   7.870   8.264
   43        0.225   0.232   7.908   8.365
   44        0.241   0.281   7.929   8.451
   45        0.237   0.253   7.835   8.325
   46        0.235   0.251   7.882   8.368
   47        0.219   0.241   7.831   8.291
   48        0.246   0.274   7.793   8.313
   49        1.291   2.655   0.003   3.950
   50        1.295   2.632   0.003   3.929
   51        1.291   2.639   0.004   3.935
   52        1.294   2.637   0.005   3.937
   53        1.292   2.700   0.010   4.001
   54        1.294   2.637   0.004   3.935
   55        1.272   2.696   0.004   3.972
   56        1.285   2.661   0.003   3.949
   57        1.278   2.700   0.005   3.983
   58        1.286   2.672   0.004   3.961
   59        1.296   2.657   0.006   3.959
   60        1.284   2.727   0.011   4.022
   61        1.289   2.702   0.005   3.997
   62        1.276   2.720   0.006   4.001
   63        1.290   2.695   0.009   3.995
   64        1.296   2.634   0.005   3.934
   65        1.293   2.606   0.002   3.901
   66        1.294   2.642   0.004   3.940
   67        1.265   2.728   0.005   3.998
   68        1.271   2.725   0.006   4.001
   69        1.275   2.722   0.006   4.003
   70        1.269   2.797   0.013   4.079
   71        1.285   2.685   0.007   3.977
   72        1.293   2.696   0.009   3.998
   73        1.286   2.713   0.006   4.005
   74        1.296   2.625   0.002   3.924
   75        1.304   2.585   0.002   3.891
   76        1.291   2.673   0.007   3.971
   77        1.280   2.739   0.009   4.028
   78        1.279   2.731   0.010   4.019
   79        1.281   2.679   0.003   3.963
   80        1.273   2.785   0.015   4.072
   81        1.267   2.754   0.008   4.029
   82        1.262   2.797   0.011   4.070
   83        1.299   2.663   0.008   3.970
   84        1.285   2.759   0.014   4.058
   85        1.276   2.750   0.007   4.034
   86        1.282   2.709   0.005   3.996
   87        1.301   2.629   0.005   3.935
   88        1.290   2.654   0.005   3.949
   89        1.289   2.668   0.007   3.964
   90        1.298   2.656   0.007   3.961
   91        1.276   2.689   0.004   3.969
   92        1.273   2.716   0.005   3.995
   93        1.280   2.721   0.007   4.008
   94        1.276   2.714   0.005   3.996
   95        1.290   2.676   0.007   3.973
   96        1.289   2.662   0.005   3.956
   97        1.291   2.688   0.005   3.984
   98        1.287   2.665   0.004   3.956
   99        1.295   2.619   0.004   3.917
  100        1.299   2.635   0.005   3.938
  101        1.293   2.654   0.005   3.953
  102        1.286   2.670   0.005   3.962
  103        1.289   2.671   0.004   3.964
  104        1.284   2.649   0.003   3.936
  105        1.274   2.728   0.006   4.008
  106        1.267   2.748   0.007   4.023
  107        1.298   2.627   0.005   3.930
  108        1.290   2.653   0.005   3.947
  109        1.285   2.693   0.004   3.982
  110        1.285   2.666   0.003   3.954
  111        1.285   2.718   0.009   4.012
  112        1.289   2.660   0.006   3.956
  113        1.292   2.632   0.004   3.928
  114        1.291   2.653   0.005   3.949
  115        1.269   2.715   0.005   3.989
  116        1.272   2.718   0.006   3.996
  117        1.263   2.791   0.012   4.066
  118        1.273   2.711   0.005   3.989
  119        1.301   2.604   0.004   3.909
  120        1.286   2.679   0.007   3.972
--------------------------------------------------
tot         103.52  205.26  378.02  686.79
 
magnetization (x)
 
# of ion       s       p       d       tot
------------------------------------------
    1       -0.002  -0.001  -0.876  -0.879
    2       -0.003   0.001  -0.539  -0.541
    3       -0.000   0.001  -0.078  -0.077
    4       -0.001   0.001  -0.312  -0.313
    5       -0.001   0.001   0.388   0.388
    6        0.000   0.004   0.836   0.840
    7        0.003   0.007   0.864   0.875
    8       -0.001   0.003   0.589   0.592
    9        0.000   0.002   0.340   0.343
   10        0.003   0.006   1.163   1.172
   11       -0.001  -0.004  -0.228  -0.234
   12        0.002   0.001   0.791   0.795
   13        0.003   0.009   0.965   0.976
   14       -0.001   0.005   0.272   0.276
   15       -0.001   0.001   0.082   0.082
   16       -0.000   0.011   1.250   1.262
   17        0.001   0.005   0.263   0.270
   18        0.000  -0.001   0.029   0.028
   19        0.000  -0.001  -0.360  -0.361
   20       -0.007  -0.001  -0.697  -0.705
   21       -0.001   0.001   0.316   0.316
   22       -0.000   0.012   0.767   0.779
   23        0.003   0.006   0.655   0.663
   24       -0.002   0.004   0.461   0.464
   25       -0.001  -0.001  -0.364  -0.367
   26        0.002   0.003   0.685   0.690
   27        0.001   0.001   0.162   0.165
   28        0.001   0.002   0.368   0.370
   29       -0.000   0.003  -0.017  -0.014
   30       -0.001   0.009   0.735   0.742
   31       -0.001   0.003   0.181   0.183
   32        0.001   0.014   1.317   1.331
   33        0.001   0.004   0.275   0.280
   34       -0.005  -0.001  -0.813  -0.819
   35       -0.002   0.001  -0.682  -0.682
   36        0.002   0.004   0.358   0.364
   37       -0.002   0.003   0.534   0.535
   38       -0.002   0.003   0.342   0.344
   39       -0.002   0.004   1.139   1.141
   40       -0.002   0.004   0.412   0.414
   41        0.009   0.010   0.957   0.976
   42       -0.001  -0.002  -0.502  -0.505
   43        0.004   0.011   0.980   0.995
   44       -0.001  -0.002  -0.190  -0.193
   45       -0.001   0.006   0.680   0.685
   46        0.001   0.010   0.940   0.951
   47        0.000   0.003   0.704   0.708
   48       -0.003   0.004   0.329   0.331
   49        0.001   0.014   0.000   0.015
   50        0.000  -0.034   0.000  -0.034
   51        0.007   0.245  -0.000   0.252
   52        0.001  -0.001   0.000  -0.001
   53        0.003   0.109  -0.000   0.112
   54        0.004   0.118   0.000   0.122
   55       -0.002  -0.025   0.000  -0.027
   56       -0.001  -0.024   0.000  -0.025
   57       -0.001  -0.017   0.000  -0.018
   58        0.000  -0.003   0.000  -0.003
   59        0.013   0.523   0.000   0.537
   60        0.007   0.312  -0.000   0.319
   61        0.001   0.020   0.000   0.021
   62        0.006   0.069   0.000   0.075
   63        0.005   0.140  -0.000   0.145
   64        0.010   0.369  -0.000   0.379
   65        0.008   0.288   0.000   0.296
   66        0.007   0.202   0.000   0.209
   67        0.012   0.117   0.000   0.129
   68        0.008   0.097   0.000   0.106
   69        0.003   0.052   0.000   0.055
   70        0.008   0.054   0.000   0.062
   71        0.012   0.525  -0.000   0.537
   72        0.004   0.171   0.000   0.175
   73       -0.003  -0.031  -0.000  -0.034
   74       -0.000   0.023  -0.000   0.023
   75        0.007   0.389  -0.000   0.396
   76        0.003   0.106  -0.000   0.109
   77        0.004   0.113   0.000   0.117
   78        0.001   0.048  -0.000   0.049
   79        0.001   0.011   0.000   0.012
   80        0.003   0.035   0.000   0.038
   81       -0.003  -0.047  -0.000  -0.050
   82       -0.004  -0.016   0.000  -0.019
   83        0.010   0.478  -0.000   0.488
   84        0.007   0.281   0.000   0.288
   85       -0.000  -0.008   0.000  -0.008
   86        0.003  -0.006   0.000  -0.003
   87        0.005   0.120   0.000   0.125
   88        0.005   0.160  -0.000   0.165
   89        0.004   0.115   0.000   0.119
   90        0.003   0.065  -0.000   0.069
   91        0.003  -0.027   0.000  -0.023
   92        0.003  -0.005   0.000  -0.002
   93        0.002  -0.019   0.000  -0.018
   94        0.002   0.007   0.000   0.009
   95        0.013   0.561   0.000   0.573
   96        0.009   0.393  -0.000   0.401
   97        0.001  -0.002   0.000  -0.001
   98       -0.001  -0.002  -0.000  -0.002
   99        0.005   0.206  -0.000   0.211
  100        0.006   0.199   0.000   0.204
  101        0.006   0.191  -0.000   0.197
  102        0.008   0.297  -0.000   0.305
  103       -0.001  -0.059  -0.000  -0.060
  104        0.001   0.033   0.000   0.034
  105        0.001   0.000   0.000   0.001
  106       -0.001  -0.074   0.000  -0.075
  107        0.011   0.497  -0.000   0.508
  108        0.009   0.413  -0.000   0.422
  109        0.000  -0.007   0.000  -0.007
  110        0.001   0.006  -0.000   0.007
  111        0.004   0.046   0.000   0.050
  112        0.013   0.445  -0.000   0.458
  113        0.008   0.233   0.000   0.241
  114        0.002   0.057   0.000   0.059
  115        0.004   0.023   0.000   0.028
  116        0.005   0.022   0.000   0.026
  117        0.008   0.102   0.000   0.110
  118        0.005   0.033   0.000   0.037
  119        0.013   0.581  -0.000   0.594
  120        0.013   0.501  -0.000   0.514
--------------------------------------------------
tot           0.31    9.97   15.47   25.76
 

 total amount of memory used by VASP MPI-rank0   623707. kBytes
=======================================================================

   base      :      30000. kBytes
   nonlr-proj:      72761. kBytes
   fftplans  :      13422. kBytes
   grid      :      76344. kBytes
   one-center:       3732. kBytes
   wavefun   :     427448. kBytes
 
  
  
 General timing and accounting informations for this job:
 ========================================================
  
                  Total CPU time used (sec):    17983.617
                            User time (sec):    17965.906
                          System time (sec):       17.711
                         Elapsed time (sec):    18032.661
  
                   Maximum memory used (kb):      741428.
                   Average memory used (kb):           0.
  
                          Minor page faults:        46380
                          Major page faults:           86
                 Voluntary context switches:         1271
