 vasp.5.4.4.18Apr17-6-g9f103f2a35 (build May 12 2020 04:58:55) complex          
  
 MD_VERSION_INFO: Compiled 2020-05-12T11:58:55-UTC in devlin.sd.materialsdesign.
 com:/home/medea2/data/build/wwolf/vasp-gpu5.4.4/13047/x86_64/src/src/build/std 
 from svn 13047
 
 This VASP executable licensed from Materials Design, Inc.
 
 executed on                        Lin64 date 2023.03.25  02:11:41
 running on   16 total cores
 distrk:  each k-point on   16 cores,    1 groups
 distr:  one band on NCORES_PER_BAND=   1 cores,   16 groups


--------------------------------------------------------------------------------------------------------


 INCAR:
 POTCAR:    PAW_PBE Ni 02Aug2007                  
 POTCAR:    PAW_PBE O 08Apr2002                   

 ----------------------------------------------------------------------------- 
|                                                                             |
|           W    W    AA    RRRRR   N    N  II  N    N   GGGG   !!!           |
|           W    W   A  A   R    R  NN   N  II  NN   N  G    G  !!!           |
|           W    W  A    A  R    R  N N  N  II  N N  N  G       !!!           |
|           W WW W  AAAAAA  RRRRR   N  N N  II  N  N N  G  GGG   !            |
|           WW  WW  A    A  R   R   N   NN  II  N   NN  G    G                |
|           W    W  A    A  R    R  N    N  II  N    N   GGGG   !!!           |
|                                                                             |
|      For optimal performance we recommend to set                            |
|        NCORE= 4 - approx SQRT( number of cores)                             |
|      NCORE specifies how many cores store one orbital (NPAR=cpu/NCORE).     |
|      This setting can  greatly improve the performance of VASP for DFT.     |
|      The default,   NCORE=1            might be grossly inefficient         |
|      on modern multi-core architectures or massively parallel machines.     |
|      Do your own testing !!!!                                               |
|      Unfortunately you need to use the default for GW and RPA calculations. |
|      (for HF NCORE is supported but not extensively tested yet)             |
|                                                                             |
 ----------------------------------------------------------------------------- 

 POTCAR:    PAW_PBE Ni 02Aug2007                  
  local pseudopotential read in
  partial core-charges read in
  partial kinetic energy density read in
  atomic valenz-charges read in
  non local Contribution for L=           2  read in
    real space projection operators read in
  non local Contribution for L=           2  read in
    real space projection operators read in
  non local Contribution for L=           0  read in
    real space projection operators read in
  non local Contribution for L=           0  read in
    real space projection operators read in
  non local Contribution for L=           1  read in
    real space projection operators read in
  non local Contribution for L=           1  read in
    real space projection operators read in
    PAW grid and wavefunctions read in
 
   number of l-projection  operators is LMAX  =           6
   number of lm-projection operators is LMMAX =          18
 
 POTCAR:    PAW_PBE O 08Apr2002                   
  local pseudopotential read in
  partial core-charges read in
  partial kinetic energy density read in
  kinetic energy density of atom read in
  atomic valenz-charges read in
  non local Contribution for L=           0  read in
    real space projection operators read in
  non local Contribution for L=           0  read in
    real space projection operators read in
  non local Contribution for L=           1  read in
    real space projection operators read in
  non local Contribution for L=           1  read in
    real space projection operators read in
    PAW grid and wavefunctions read in
 
   number of l-projection  operators is LMAX  =           4
   number of lm-projection operators is LMMAX =           8
 
 Optimization of the real space projectors (new method)

 maximal supplied QI-value         = 16.25
 optimisation between [QCUT,QGAM] = [ 11.38, 22.75] = [ 36.24,144.96] Ry 
 Optimized for a Real-space Cutoff    1.47 Angstroem

   l    n(q)    QCUT    max X(q) W(low)/X(q) W(high)/X(q)  e(spline) 
   2      9    11.376    60.317    0.17E-03    0.16E-04    0.16E-06
   2      9    11.376    55.921    0.17E-03    0.16E-04    0.17E-06
   0     10    11.376    51.690    0.45E-04    0.60E-04    0.21E-06
   0     10    11.376    30.015    0.37E-04    0.55E-04    0.19E-06
   1     10    11.376    18.849    0.83E-04    0.11E-03    0.92E-07
   1     10    11.376    14.624    0.69E-04    0.92E-04    0.82E-07
 Optimization of the real space projectors (new method)

 maximal supplied QI-value         = 24.76
 optimisation between [QCUT,QGAM] = [ 11.39, 22.77] = [ 36.31,145.25] Ry 
 Optimized for a Real-space Cutoff    1.10 Angstroem

   l    n(q)    QCUT    max X(q) W(low)/X(q) W(high)/X(q)  e(spline) 
   0      7    11.387    20.381    0.22E-03    0.48E-03    0.18E-06
   0      7    11.387    15.268    0.22E-03    0.52E-03    0.19E-06
   1      7    11.387     5.964    0.22E-03    0.73E-03    0.24E-06
   1      7    11.387     5.382    0.19E-03    0.60E-03    0.21E-06

 ----------------------------------------------------------------------------- 
|                                                                             |
|  ADVICE TO THIS USER RUNNING 'VASP/VAMP'   (HEAR YOUR MASTER'S VOICE ...):  |
|                                                                             |
|      You enforced a specific xc-type in the INCAR file,                     |
|      a different type was found on the POTCAR file                          |
|          I HOPE YOU KNOW, WHAT YOU ARE  DOING                               |
|                                                                             |
 ----------------------------------------------------------------------------- 

  PAW_PBE Ni 02Aug2007                  :
 energy of atom  1       EATOM=-1077.6739
 kinetic energy error for atom=    0.0030 (will be added to EATOM!!)
  PAW_PBE O 08Apr2002                   :
 energy of atom  2       EATOM= -432.3788
 kinetic energy error for atom=    0.0224 (will be added to EATOM!!)
 
 
 POSCAR: Ni2O3_Cmcm_scale_1_025_disp_0_05_round_2
  positions in direct lattice
  No initial velocities read in
 exchange correlation table for  LEXCH =       14
   RHO(1)=    0.500       N(1)  =     2000
   RHO(2)=  100.500       N(2)  =     4000
 


--------------------------------------------------------------------------------------------------------


 ion  position               nearest neighbor table
   1  0.003  0.363  0.045-  52 1.78  62 2.01  56 2.05 110 2.22  55 2.32 104 2.37  15 2.90  17 2.92
                             7 2.98  47 3.03
   2  0.157  0.134  0.935-  51 1.97  55 2.03  79 2.03  50 2.16  74 2.17  56 2.20   8 2.94  18 3.02
                            34 3.08
   3  0.002  0.353  0.439-  58 1.92  53 1.92  57 1.99  61 2.08 105 2.13 109 2.28   4 2.89   6 2.92
                            19 2.93  14 2.94  12 2.97   5 3.07
   4  0.160  0.135  0.525-  57 1.84  73 1.97  49 1.98  54 2.01  82 2.03  58 2.10   3 2.89   5 2.89
                            20 2.92   6 2.92  19 2.93  22 2.93
   5  0.159  0.387  0.621-  59 1.83  66 1.99  58 2.00  90 2.00  82 2.07  61 2.36  21 2.86   4 2.89
                            12 2.91  28 3.07   3 3.07
   6  0.007  0.088  0.355-  60 1.90  57 2.00  65 2.03  49 2.14 113 2.26 105 2.31  22 2.82   3 2.92
                             4 2.92
   7  0.997  0.094  0.132-  60 1.78  64 2.02  50 2.10 104 2.16  56 2.16 112 2.19   1 2.98  23 3.01

   8  0.158  0.395  0.844-  59 1.82  63 1.95  87 1.99  55 2.01  79 2.10  62 2.46  24 2.89   2 2.94
                            10 2.94  26 2.94
   9  0.167  0.846  0.043-  64 2.04  92 2.07  68 2.08  74 2.19  50 2.25  67 2.28  25 2.95  15 3.02

  10  0.002  0.622  0.929-  63 1.88  67 2.06  62 2.24 115 2.27  68 2.34 110 2.43  26 2.79  16 2.84
                             8 2.94  40 3.04
  11  0.159  0.843  0.445-  65 1.93  70 1.94  69 1.97  93 2.08  49 2.27  73 2.30  27 2.93  14 2.95
                            12 2.98  13 3.01  28 3.02  29 3.05
  12  0.008  0.613  0.537-  66 1.82  70 1.98  61 2.08  69 2.08 109 2.28 118 2.35  28 2.90   5 2.91
                             3 2.97  11 2.98  13 2.99  14 3.05
  13  0.997  0.886  0.620-  71 1.82  70 2.13  54 2.13 102 2.15 118 2.16  49 2.32  12 2.99  11 3.01
                            29 3.04
  14  0.167  0.577  0.358-  77 1.81  72 1.84  53 1.94  61 2.00  93 2.05  69 2.19   3 2.94  30 2.94
                            19 2.94  11 2.95  28 3.02  12 3.05
  15  0.164  0.576  0.135-  72 1.88  76 1.94  52 1.97  92 2.12  68 2.14  62 2.25  31 2.90   1 2.90
                            17 2.94   9 3.02
  16  0.001  0.880  0.847-  71 1.93  67 2.11  51 2.12 115 2.26  99 2.27  10 2.84  32 2.90
  17  0.330  0.358  0.047-  76 1.86  86 1.95  56 2.04  62 2.08  80 2.15  79 2.24  31 2.86  33 2.88
                             1 2.92  15 2.94  23 2.95
  18  0.495  0.133  0.929-  75 1.89 103 2.02  79 2.14  74 2.25  80 2.27  98 2.27  34 2.83  24 2.90
                             2 3.02  48 3.06
  19  0.330  0.353  0.441-  77 1.96  85 2.03  81 2.03  82 2.03  61 2.06  57 2.15  22 2.85  35 2.86
                             3 2.93   4 2.93  14 2.94  20 2.95  28 2.95  30 2.97  21 2.99
  20  0.486  0.133  0.535-  78 1.87  81 1.97 106 1.98  82 2.02  73 2.04  97 2.20  36 2.89  21 2.89
                             4 2.92  19 2.95  35 3.02  29 3.06  22 3.07
  21  0.479  0.396  0.619- 114 1.91  83 1.92  90 1.94  82 2.08 106 2.09  85 2.18   5 2.86  28 2.87
                            20 2.89  37 2.92  19 2.99  44 3.02
  22  0.322  0.096  0.356-  84 1.88  81 2.03  57 2.07  89 2.11  65 2.12  73 2.36   6 2.82  19 2.85
                             4 2.93  38 2.95  20 3.07
  23  0.334  0.092  0.133-  84 1.78  88 2.02  80 2.09  64 2.19  56 2.20  74 2.33  39 2.79  17 2.95
                             7 3.01
  24  0.482  0.396  0.847-  83 1.82  87 1.86 111 1.98  79 2.13 103 2.18  86 2.50   8 2.89  18 2.90
                            42 2.92  40 2.94  26 2.96
  25  0.498  0.841  0.045-  88 1.88 116 2.01  98 2.11  92 2.14  91 2.26  74 2.35  41 2.73  31 2.90
                             9 2.95
  26  0.315  0.620  0.931-  87 1.90  67 1.92  91 2.15  62 2.15  92 2.18  86 2.34  10 2.79  32 2.88
                             8 2.94  24 2.96  42 3.03
  27  0.486  0.853  0.443-  89 1.80  94 1.96  93 2.13 117 2.18  97 2.23  73 2.27  43 2.90  11 2.93
                            29 2.93  45 3.01  28 3.02  44 3.08  30 3.09
  28  0.333  0.617  0.531-  90 1.86  93 2.00  85 2.02  61 2.11  70 2.13  94 2.18  21 2.87  44 2.89
                            12 2.90  19 2.95  29 2.96  14 3.02  11 3.02  27 3.02   5 3.07  30 3.07
  29  0.337  0.885  0.617-  95 1.86  94 1.92  78 1.97  73 2.10  54 2.14  70 2.21  45 2.78  27 2.93
                            28 2.96  13 3.04  11 3.05  20 3.06
  30  0.496  0.575  0.353-  96 1.74 101 1.87  77 1.91 117 2.01  85 2.18  93 2.19  46 2.85  35 2.88
                            14 2.94  19 2.97  28 3.07  44 3.08  27 3.09
  31  0.489  0.576  0.128- 100 1.86  96 1.94  76 1.95 116 1.98  86 2.08  92 2.11  17 2.86  15 2.90
                            25 2.90  33 2.93  47 2.94
  32  0.326  0.877  0.843-  95 1.82  91 2.02  67 2.03  75 2.06  51 2.06  74 2.51  26 2.88  48 2.88
                            16 2.90
  33  0.653  0.355  0.044- 100 1.92 110 2.02  86 2.02  80 2.05 104 2.10 103 2.25  17 2.88  31 2.93
                            39 2.98  47 3.00  42 3.07
  34  0.812  0.128  0.934-  99 1.95 103 2.02  98 2.24  55 2.31 104 2.32  50 2.33  18 2.83  40 3.04
                             2 3.08
  35  0.650  0.358  0.441- 101 1.90 106 2.03  85 2.04 109 2.05 105 2.06  81 2.13  19 2.86  30 2.88
                            38 2.93  44 2.94  36 2.97  46 3.00  20 3.02  37 3.04
  36  0.810  0.139  0.537- 102 1.85 106 2.02 105 2.04  97 2.06  58 2.23  49 2.26  37 2.78  20 2.89
                            35 2.97
  37  0.806  0.389  0.621- 107 1.83 114 1.99 106 2.07  66 2.15 109 2.18  58 2.24  36 2.78  21 2.92
                            44 2.96  35 3.04
  38  0.653  0.095  0.353- 108 1.78  81 2.09 113 2.10  89 2.14 105 2.14  97 2.19  35 2.93  22 2.95

  39  0.646  0.091  0.138- 108 1.79  80 2.02  88 2.05 112 2.05 104 2.06  98 2.28  23 2.79  33 2.98

  40  0.811  0.403  0.844- 111 1.89 107 1.90 103 2.11  63 2.11  55 2.30 110 2.46  42 2.82  24 2.94
                            10 3.04  34 3.04
  41  0.804  0.846  0.046- 112 1.87  98 2.08 116 2.11 115 2.29  68 2.30  50 2.44  25 2.73  47 2.96

  42  0.654  0.613  0.930- 111 1.84 115 2.05 110 2.14  91 2.17  86 2.28 116 2.33  40 2.82  24 2.92
                            48 2.98  26 3.03  33 3.07
  43  0.811  0.843  0.439- 113 1.84 118 1.99 117 2.09  97 2.15  69 2.16  49 2.46  46 2.83  27 2.90
                            44 2.96  45 3.07
  44  0.657  0.620  0.532- 114 1.88 117 2.02 109 2.02 118 2.10  85 2.15  94 2.20  28 2.89  45 2.92
                            35 2.94  37 2.96  43 2.96  46 3.01  21 3.02  30 3.08  27 3.08
  45  0.649  0.883  0.619- 119 1.93  94 1.94  78 1.94 118 2.04 102 2.14  97 2.31  29 2.78  44 2.92
                            27 3.01  43 3.07
  46  0.815  0.587  0.356- 120 1.88 101 1.99 117 2.01  53 2.17 109 2.24  69 2.25  43 2.83  30 2.85
                            35 3.00  44 3.01
  47  0.818  0.579  0.134- 120 1.75 100 1.91  52 1.95 116 2.11 110 2.23  68 2.25  31 2.94  41 2.96
                            33 3.00   1 3.03
  48  0.648  0.885  0.847- 119 1.89  75 2.01  99 2.02  91 2.05 115 2.06  98 2.52  32 2.88  42 2.98
                            18 3.06
  49  1.000  0.009  0.488-   4 1.98   6 2.14  36 2.26  11 2.27  13 2.32  43 2.46
  50  0.000  0.005  0.004-   7 2.10   2 2.16   9 2.25  34 2.33  41 2.44
  51  0.169  0.027  0.824-   2 1.97  32 2.06  16 2.12
  52  0.988  0.458  0.145-   1 1.78  47 1.95  15 1.97
  53  0.004  0.455  0.330-   3 1.92  14 1.94  46 2.17
  54  0.168  0.033  0.641-   4 2.01  13 2.13  29 2.14
  55  0.004  0.276  0.901-   8 2.01   2 2.03  40 2.30  34 2.31   1 2.32
  56  0.164  0.222  0.070-  17 2.04   1 2.05   7 2.16  23 2.20   2 2.20
  57  0.154  0.212  0.413-   4 1.84   3 1.99   6 2.00  22 2.07  19 2.15
  58  1.000  0.281  0.559-   3 1.92   5 2.00   4 2.10  36 2.23  37 2.24
  59  0.160  0.317  0.734-   8 1.82   5 1.83
  60  0.996  0.169  0.240-   7 1.78   6 1.90
  61  0.167  0.489  0.478-  14 2.00  19 2.06  12 2.08   3 2.08  28 2.11   5 2.36
  62  0.164  0.485  0.998-   1 2.01  17 2.08  26 2.15  10 2.24  15 2.25   8 2.46
  63  0.000  0.526  0.821-  10 1.88   8 1.95  40 2.11
  64  0.150  0.950  0.160-   7 2.02   9 2.04  23 2.19
  65  0.162  0.943  0.335-  11 1.93   6 2.03  22 2.12
  66  0.995  0.519  0.641-  12 1.82   5 1.99  37 2.15
  67  0.171  0.757  0.902-  26 1.92  32 2.03  10 2.06  16 2.11   9 2.28
  68  0.002  0.705  0.075-   9 2.08  15 2.14  47 2.25  41 2.30  10 2.34
  69  1.000  0.714  0.414-  11 1.97  12 2.08  43 2.16  14 2.19  46 2.25
  70  0.159  0.755  0.561-  11 1.94  12 1.98  28 2.13  13 2.13  29 2.21
  71  0.994  0.802  0.728-  13 1.82  16 1.93
  72  0.161  0.661  0.248-  14 1.84  15 1.88
  73  0.320  0.003  0.501-   4 1.97  20 2.04  29 2.10  27 2.27  11 2.30  22 2.36
  74  0.322  0.997  0.991-   2 2.17   9 2.19  18 2.25  23 2.33  25 2.35  32 2.51
  75  0.487  0.023  0.826-  18 1.89  48 2.01  32 2.06
  76  0.328  0.451  0.155-  17 1.86  15 1.94  31 1.95
  77  0.323  0.467  0.334-  14 1.81  30 1.91  19 1.96
  78  0.496  0.020  0.635-  20 1.87  45 1.94  29 1.97
  79  0.318  0.273  0.908-   2 2.03   8 2.10  24 2.13  18 2.14  17 2.24
  80  0.499  0.209  0.072-  39 2.02  33 2.05  23 2.09  17 2.15  18 2.27
  81  0.485  0.210  0.413-  20 1.97  22 2.03  19 2.03  38 2.09  35 2.13
  82  0.322  0.266  0.564-  20 2.02  19 2.03   4 2.03   5 2.07  21 2.08
  83  0.489  0.319  0.736-  24 1.82  21 1.92
  84  0.323  0.169  0.240-  23 1.78  22 1.88
  85  0.487  0.485  0.486-  28 2.02  19 2.03  35 2.04  44 2.15  21 2.18  30 2.18
  86  0.486  0.480  0.004-  17 1.95  33 2.02  31 2.08  42 2.28  26 2.34  24 2.50
  87  0.330  0.519  0.823-  24 1.86  26 1.90   8 1.99
  88  0.486  0.944  0.150-  25 1.88  23 2.02  39 2.05
  89  0.484  0.944  0.339-  27 1.80  22 2.11  38 2.14
  90  0.320  0.525  0.639-  28 1.86  21 1.94   5 2.00
  91  0.486  0.765  0.903-  32 2.02  48 2.05  26 2.15  42 2.17  25 2.26
  92  0.323  0.697  0.067-   9 2.07  31 2.11  15 2.12  25 2.14  26 2.18
  93  0.323  0.704  0.411-  28 2.00  14 2.05  11 2.08  27 2.13  30 2.19
  94  0.491  0.777  0.564-  29 1.92  45 1.94  27 1.96  28 2.18  44 2.20
  95  0.326  0.808  0.730-  32 1.82  29 1.86
  96  0.487  0.650  0.248-  30 1.74  31 1.94
  97  0.663  0.999  0.485-  36 2.06  43 2.15  38 2.19  20 2.20  27 2.23  45 2.31
  98  0.651  0.989  0.001-  41 2.08  25 2.11  34 2.24  18 2.27  39 2.28  48 2.52
  99  0.808  0.024  0.824-  34 1.95  48 2.02  16 2.27
 100  0.650  0.463  0.150-  31 1.86  47 1.91  33 1.92
 101  0.653  0.455  0.331-  30 1.87  35 1.90  46 1.99
 102  0.820  0.031  0.638-  36 1.85  45 2.14  13 2.15
 103  0.657  0.270  0.904-  18 2.02  34 2.02  40 2.11  24 2.18  33 2.25
 104  0.810  0.208  0.080-  39 2.06  33 2.10   7 2.16  34 2.32   1 2.37
 105  0.819  0.222  0.412-  36 2.04  35 2.06   3 2.13  38 2.14   6 2.31
 106  0.642  0.269  0.563-  20 1.98  36 2.02  35 2.03  37 2.07  21 2.09
 107  0.812  0.312  0.732-  37 1.83  40 1.90
 108  0.643  0.171  0.245-  38 1.78  39 1.79
 109  0.811  0.485  0.490-  44 2.02  35 2.05  37 2.18  46 2.24   3 2.28  12 2.28
 110  0.809  0.485  0.999-  33 2.02  42 2.14   1 2.22  47 2.23  10 2.43  40 2.46
 111  0.650  0.522  0.823-  42 1.84  40 1.89  24 1.98
 112  0.813  0.950  0.149-  41 1.87  39 2.05   7 2.19
 113  0.814  0.944  0.336-  43 1.84  38 2.10   6 2.26
 114  0.640  0.520  0.639-  44 1.88  21 1.91  37 1.99
 115  0.806  0.762  0.903-  42 2.05  48 2.06  16 2.26  10 2.27  41 2.29
 116  0.645  0.695  0.076-  31 1.98  25 2.01  41 2.11  47 2.11  42 2.33
 117  0.648  0.699  0.408-  46 2.01  30 2.01  44 2.02  43 2.09  27 2.18
 118  0.815  0.770  0.563-  43 1.99  45 2.04  44 2.10  13 2.16  12 2.35
 119  0.658  0.798  0.735-  48 1.89  45 1.93
 120  0.824  0.657  0.239-  47 1.75  46 1.88
 
  LATTYP: Found a simple orthorhombic cell.
 ALAT       =     8.9259767500
 B/A-ratio  =     1.1146370060
 C/A-ratio  =     1.6738812646
  
  Lattice vectors:
  
 A1 = (   8.9259767500,   0.0000000000,   0.0000000000)
 A2 = (   0.0000000000,   9.9492240000,   0.0000000000)
 A3 = (   0.0000000000,   0.0000000000,  14.9410252500)


Analysis of symmetry for initial positions (statically):
=====================================================================
 Subroutine PRICEL returns:
 Original cell was already a primitive cell.
 

 Routine SETGRP: Setting up the symmetry group for a 
 simple orthorhombic supercell.


 Subroutine GETGRP returns: Found  1 space group operations
 (whereof  1 operations were pure point group operations)
 out of a pool of  8 trial point group operations.


The static configuration has the point symmetry C_1 .


Analysis of symmetry for dynamics (positions and initial velocities):
=====================================================================
 Subroutine PRICEL returns:
 Original cell was already a primitive cell.
 

 Routine SETGRP: Setting up the symmetry group for a 
 simple orthorhombic supercell.


 Subroutine GETGRP returns: Found  1 space group operations
 (whereof  1 operations were pure point group operations)
 out of a pool of  8 trial point group operations.


The dynamic configuration has the point symmetry C_1 .


Analysis of structural, dynamic, and magnetic symmetry:
=====================================================================
 Subroutine PRICEL returns:
 Original cell was already a primitive cell.
 

 Routine SETGRP: Setting up the symmetry group for a 
 simple orthorhombic supercell.


 Subroutine GETGRP returns: Found  1 space group operations
 (whereof  1 operations were pure point group operations)
 out of a pool of  8 trial point group operations.


The magnetic configuration has the point symmetry C_1 .


 Subroutine INISYM returns: Found  1 space group operations
 (whereof  1 operations are pure point group operations),
 and found     1 'primitive' translations

 
 
 KPOINTS: Automatic mesh                          

Automatic generation of k-mesh.
Space group operators:
 irot       det(A)        alpha          n_x          n_y          n_z        tau_x        tau_y        tau_z
    1     1.000000     0.000001     1.000000     0.000000     0.000000     0.000000     0.000000     0.000000
 
 Subroutine IBZKPT returns following result:
 ===========================================
 
 Found     10 irreducible k-points:
 
 Following reciprocal coordinates:
            Coordinates               Weight
  0.000000  0.000000  0.000000      1.000000
  0.333333  0.000000  0.000000      2.000000
  0.000000  0.333333  0.000000      2.000000
  0.333333  0.333333  0.000000      2.000000
 -0.333333  0.333333  0.000000      2.000000
  0.000000  0.000000  0.500000      1.000000
  0.333333  0.000000  0.500000      2.000000
  0.000000  0.333333  0.500000      2.000000
  0.333333  0.333333  0.500000      2.000000
 -0.333333  0.333333  0.500000      2.000000
 
 Following cartesian coordinates:
            Coordinates               Weight
  0.000000  0.000000  0.000000      1.000000
  0.037344  0.000000  0.000000      2.000000
  0.000000  0.033503  0.000000      2.000000
  0.037344  0.033503  0.000000      2.000000
 -0.037344  0.033503  0.000000      2.000000
  0.000000  0.000000  0.033465      1.000000
  0.037344  0.000000  0.033465      2.000000
  0.000000  0.033503  0.033465      2.000000
  0.037344  0.033503  0.033465      2.000000
 -0.037344  0.033503  0.033465      2.000000
 


--------------------------------------------------------------------------------------------------------




 Dimension of arrays:
   k-points           NKPTS =     10   k-points in BZ     NKDIM =     10   number of bands    NBANDS=    608
   number of dos      NEDOS =    301   number of ions     NIONS =    120
   non local maximal  LDIM  =      6   non local SUM 2l+1 LMDIM =     18
   total plane-waves  NPLWV = 627200
   max r-space proj   IRMAX =   6396   max aug-charges    IRDMAX=  15520
   dimension x,y,z NGX =    70 NGY =   80 NGZ =  112
   dimension x,y,z NGXF=   140 NGYF=  160 NGZF=  224
   support grid    NGXF=   140 NGYF=  160 NGZF=  224
   ions per type =              48  72
   NGX,Y,Z   is equivalent  to a cutoff of  13.04, 13.37, 12.46 a.u.
   NGXF,Y,Z  is equivalent  to a cutoff of  26.07, 26.74, 24.92 a.u.

 SYSTEM =  unknown system                          
 POSCAR =  Ni2O3_Cmcm_scale_1_025_disp_0_05_round_2

 Startparameter for this run:
   NWRITE =      1    write-flag & timer
   PREC   = accura    normal or accurate (medium, high low for compatibility)
   ISTART =      0    job   : 0-new  1-cont  2-samecut
   ICHARG =      2    charge: 1-file 2-atom 10-const
   ISPIN  =      2    spin polarized calculation?
   LNONCOLLINEAR =      F non collinear calculations
   LSORBIT =      F    spin-orbit coupling
   INIWAV =      1    electr: 0-lowe 1-rand  2-diag
   LASPH  =      F    aspherical Exc in radial PAW
   METAGGA=      F    non-selfconsistent MetaGGA calc.

 Electronic Relaxation 1
   ENCUT  =  500.0 eV  36.75 Ry    6.06 a.u.  16.27 18.14 27.24*2*pi/ulx,y,z
   ENINI  =  500.0     initial cutoff
   ENAUG  =  605.4 eV  augmentation charge cutoff
   NELM   =     80;   NELMIN=  2; NELMDL= -5     # of ELM steps 
   EDIFF  = 0.1E-04   stopping-criterion for ELM
   LREAL  =      T    real-space projection
   NLSPLINE    = F    spline interpolate recip. space projectors
   LCOMPAT=      F    compatible to vasp.4.4
   GGA_COMPAT  = T    GGA compatible to vasp.4.4-vasp.4.6
   LMAXPAW     = -100 max onsite density
   LMAXMIX     =    2 max onsite mixed and CHGCAR
   VOSKOWN=      1    Vosko Wilk Nusair interpolation
   ROPT   =   -0.00025  -0.00025
 Ionic relaxation
   EDIFFG = 0.1E-03   stopping-criterion for IOM
   NSW    =      0    number of steps for IOM
   NBLOCK =      1;   KBLOCK =      1    inner block; outer block 
   IBRION =     -1    ionic relax: 0-MD 1-quasi-New 2-CG
   NFREE  =      0    steps in history (QN), initial steepest desc. (CG)
   ISIF   =      2    stress and relaxation
   IWAVPR =     10    prediction:  0-non 1-charg 2-wave 3-comb
   ISYM   =      2    0-nonsym 1-usesym 2-fastsym
   LCORR  =      T    Harris-Foulkes like correction to forces

   POTIM  = 0.5000    time-step for ionic-motion
   TEIN   =    0.0    initial temperature
   TEBEG  =    0.0;   TEEND  =   0.0 temperature during run
   SMASS  =  -3.00    Nose mass-parameter (am)
   estimated Nose-frequenzy (Omega)   =  0.10E-29 period in steps =****** mass=  -0.182E-26a.u.
   SCALEE = 1.0000    scale energy and forces
   NPACO  =    256;   APACO  = 16.0  distance and # of slots for P.C.
   PSTRESS=    0.0 pullay stress

  Mass of Ions in am
   POMASS =  58.69 16.00
  Ionic Valenz
   ZVAL   =  10.00  6.00
  Atomic Wigner-Seitz radii
   RWIGS  =   1.15  0.73
  virtual crystal weights 
   VCA    =   1.00  1.00
   NELECT =     912.0000    total number of electrons
   NUPDOWN=      -1.0000    fix difference up-down

 DOS related values:
   EMIN   =  10.00;   EMAX   =-10.00  energy-range for DOS
   EFERMI =   0.00
   ISMEAR =     0;   SIGMA  =   0.05  broadening in eV -4-tet -1-fermi 0-gaus

 Electronic relaxation 2 (details)
   IALGO  =     38    algorithm
   LDIAG  =      T    sub-space diagonalisation (order eigenvalues)
   LSUBROT=      F    optimize rotation matrix (better conditioning)
   TURBO    =      0    0=normal 1=particle mesh
   IRESTART =      0    0=no restart 2=restart with 2 vectors
   NREBOOT  =      0    no. of reboots
   NMIN     =      0    reboot dimension
   EREF     =   0.00    reference energy to select bands
   IMIX   =      4    mixing-type and parameters
     AMIX     =   0.40;   BMIX     =  1.00
     AMIX_MAG =   1.60;   BMIX_MAG =  1.00
     AMIN     =   0.10
     WC   =   100.;   INIMIX=   1;  MIXPRE=   1;  MAXMIX= -45

 Intra band minimization:
   WEIMIN = 0.0000     energy-eigenvalue tresh-hold
   EBREAK =  0.41E-08  absolut break condition
   DEPER  =   0.30     relativ break condition  

   TIME   =   0.40     timestep for ELM

  volume/ion in A,a.u.               =      11.06        74.62
  Fermi-wavevector in a.u.,A,eV,Ry     =   1.444768  2.730215 28.400167  2.087353
  Thomas-Fermi vector in A             =   2.563025
 
 Write flags
   LWAVE        =      F    write WAVECAR
   LDOWNSAMPLE  =      F    k-point downsampling of WAVECAR
   LCHARG       =      T    write CHGCAR
   LVTOT        =      F    write LOCPOT, total local potential
   LVHAR        =      F    write LOCPOT, Hartree potential only
   LELF         =      F    write electronic localiz. function (ELF)
   LORBIT       =      0    0 simple, 1 ext, 2 COOP (PROOUT), +10 PAW based schemes


 Dipole corrections
   LMONO  =      F    monopole corrections only (constant potential shift)
   LDIPOL =      F    correct potential (dipole corrections)
   IDIPOL =      0    1-x, 2-y, 3-z, 4-all directions 
   EPSILON=  1.0000000 bulk dielectric constant

 Exchange correlation treatment:
   GGA     =    PS    GGA type
   LEXCH   =    14    internal setting for exchange type
   VOSKOWN=      1    Vosko Wilk Nusair interpolation
   LHFCALC =     F    Hartree Fock is set to
   LHFONE  =     F    Hartree Fock one center treatment
   AEXX    =    0.0000 exact exchange contribution

 Linear response parameters
   LEPSILON=     F    determine dielectric tensor
   LRPA    =     F    only Hartree local field effects (RPA)
   LNABLA  =     F    use nabla operator in PAW spheres
   LVEL    =     F    velocity operator in full k-point grid
   LINTERFAST=   F  fast interpolation
   KINTER  =     0    interpolate to denser k-point grid
   CSHIFT  =0.1000    complex shift for real part using Kramers Kronig
   OMEGAMAX=  -1.0    maximum frequency
   DEG_THRESHOLD= 0.2000000E-02 threshold for treating states as degnerate
   RTIME   =   -0.100 relaxation time in fs
  (WPLASMAI=    0.000 imaginary part of plasma frequency in eV, 0.658/RTIME)
   DFIELD  = 0.0000000 0.0000000 0.0000000 field for delta impulse in time
 
 Orbital magnetization related:
   ORBITALMAG=     F  switch on orbital magnetization
   LCHIMAG   =     F  perturbation theory with respect to B field
   DQ        =  0.001000  dq finite difference perturbation B field
   LLRAUG    =     F  two centre corrections for induced B field



--------------------------------------------------------------------------------------------------------


 Static calculation
 charge density and potential will be updated during run
 spin polarized calculation
 Variant of blocked Davidson
 Davidson routine will perform the subspace rotation
 perform sub-space diagonalisation
    after iterative eigenvector-optimisation
 modified Broyden-mixing scheme, WC =      100.0
 initial mixing is a Kerker type mixing with AMIX =  0.4000 and BMIX =      1.0000
 Hartree-type preconditioning will be used
 using additional bands          152
 real space projection scheme for non local part
 use partial core corrections
 calculate Harris-corrections to forces 
   (improved forces if not selfconsistent)
 use gradient corrections 
 use of overlap-Matrix (Vanderbilt PP)
 Gauss-broadening in eV      SIGMA  =   0.05


--------------------------------------------------------------------------------------------------------


  energy-cutoff  :      500.00
  volume of cell :     1326.86
      direct lattice vectors                 reciprocal lattice vectors
     8.925976750  0.000000000  0.000000000     0.112032557  0.000000000  0.000000000
     0.000000000  9.949224000  0.000000000     0.000000000  0.100510351  0.000000000
     0.000000000  0.000000000 14.941025250     0.000000000  0.000000000  0.066929811

  length of vectors
     8.925976750  9.949224000 14.941025250     0.112032557  0.100510351  0.066929811


 
 k-points in units of 2pi/SCALE and weight: Automatic mesh                          
   0.00000000  0.00000000  0.00000000       0.056
   0.03734419  0.00000000  0.00000000       0.111
   0.00000000  0.03350345  0.00000000       0.111
   0.03734419  0.03350345  0.00000000       0.111
  -0.03734419  0.03350345  0.00000000       0.111
   0.00000000  0.00000000  0.03346491       0.056
   0.03734419  0.00000000  0.03346491       0.111
   0.00000000  0.03350345  0.03346491       0.111
   0.03734419  0.03350345  0.03346491       0.111
  -0.03734419  0.03350345  0.03346491       0.111
 
 k-points in reciprocal lattice and weights: Automatic mesh                          
   0.00000000  0.00000000  0.00000000       0.056
   0.33333333  0.00000000  0.00000000       0.111
   0.00000000  0.33333333  0.00000000       0.111
   0.33333333  0.33333333  0.00000000       0.111
  -0.33333333  0.33333333  0.00000000       0.111
   0.00000000  0.00000000  0.50000000       0.056
   0.33333333  0.00000000  0.50000000       0.111
   0.00000000  0.33333333  0.50000000       0.111
   0.33333333  0.33333333  0.50000000       0.111
  -0.33333333  0.33333333  0.50000000       0.111
 
 position of ions in fractional coordinates (direct lattice) 
   0.00250019  0.36288575  0.04472535
   0.15718343  0.13360477  0.93506866
   0.00188702  0.35297800  0.43938862
   0.15970474  0.13458133  0.52509960
   0.15895587  0.38719442  0.62065721
   0.00694266  0.08841954  0.35484570
   0.99698229  0.09380224  0.13174942
   0.15829232  0.39519376  0.84413315
   0.16673359  0.84578946  0.04288059
   0.00217164  0.62164760  0.92894727
   0.15868535  0.84256873  0.44532111
   0.00817766  0.61317752  0.53660138
   0.99662525  0.88624095  0.61985992
   0.16695929  0.57701454  0.35777303
   0.16436510  0.57591801  0.13543251
   0.00118339  0.87953393  0.84683494
   0.33005023  0.35836578  0.04686945
   0.49527146  0.13271358  0.92885023
   0.32998779  0.35302355  0.44136955
   0.48608502  0.13342609  0.53539390
   0.47883874  0.39597792  0.61855552
   0.32227072  0.09621918  0.35640783
   0.33374564  0.09161377  0.13303059
   0.48242867  0.39621179  0.84650770
   0.49769518  0.84073759  0.04533479
   0.31481502  0.62003295  0.93086243
   0.48629379  0.85334748  0.44320624
   0.33320769  0.61679167  0.53147517
   0.33740568  0.88453423  0.61711167
   0.49620901  0.57482384  0.35253194
   0.48855915  0.57637458  0.12765616
   0.32563575  0.87708806  0.84301036
   0.65278038  0.35515985  0.04355918
   0.81191025  0.12839167  0.93380603
   0.65048098  0.35788255  0.44093800
   0.80978080  0.13904862  0.53733383
   0.80555856  0.38913370  0.62069199
   0.65296748  0.09480023  0.35298283
   0.64607643  0.09126513  0.13798277
   0.81117782  0.40284269  0.84406890
   0.80385450  0.84558585  0.04576478
   0.65425735  0.61270507  0.93014620
   0.81090982  0.84313581  0.43949982
   0.65712039  0.61967743  0.53247939
   0.64924715  0.88296858  0.61879475
   0.81515927  0.58729850  0.35614677
   0.81772194  0.57931227  0.13441527
   0.64767692  0.88535936  0.84724807
   0.99960675  0.00893900  0.48766213
   0.00026036  0.00503004  0.00442087
   0.16916492  0.02702960  0.82449544
   0.98762216  0.45794412  0.14542282
   0.00374285  0.45455431  0.33003111
   0.16785237  0.03255371  0.64133674
   0.00368692  0.27564277  0.90097563
   0.16386455  0.22169637  0.07033154
   0.15428182  0.21192402  0.41309670
   0.99968087  0.28104404  0.55869823
   0.16023678  0.31710245  0.73416659
   0.99606721  0.16889004  0.23989254
   0.16711110  0.48873767  0.47817561
   0.16428365  0.48498022  0.99767373
   0.00048178  0.52571501  0.82071011
   0.15033935  0.95040445  0.15982367
   0.16209952  0.94253764  0.33488978
   0.99523129  0.51921920  0.64090439
   0.17053634  0.75700947  0.90216645
   0.00235787  0.70542799  0.07528359
   0.99977947  0.71359744  0.41428067
   0.15866232  0.75505669  0.56147358
   0.99411817  0.80197432  0.72823034
   0.16116578  0.66070267  0.24763384
   0.31988667  0.00253261  0.50117947
   0.32231945  0.99715738  0.99060485
   0.48657640  0.02331274  0.82583760
   0.32800454  0.45074500  0.15540222
   0.32274986  0.46654778  0.33389188
   0.49588236  0.01973571  0.63482281
   0.31754493  0.27315289  0.90841947
   0.49882938  0.20904510  0.07207859
   0.48515975  0.20968051  0.41339304
   0.32161086  0.26564362  0.56420053
   0.48886154  0.31943314  0.73606035
   0.32337036  0.16899882  0.24031737
   0.48687310  0.48470233  0.48552510
   0.48612984  0.47984809  0.00405308
   0.32975485  0.51918493  0.82342044
   0.48638968  0.94432994  0.15031553
   0.48404441  0.94381292  0.33879212
   0.31985843  0.52460779  0.63949081
   0.48624125  0.76527234  0.90305708
   0.32270229  0.69673752  0.06710424
   0.32341644  0.70427151  0.41127117
   0.49143246  0.77651694  0.56406974
   0.32560248  0.80795916  0.73041030
   0.48729459  0.65005889  0.24775173
   0.66296173  0.99948956  0.48504356
   0.65112247  0.98862556  0.00148179
   0.80805364  0.02391728  0.82371510
   0.64963858  0.46273084  0.15015900
   0.65342742  0.45538902  0.33123047
   0.81991697  0.03083004  0.63822383
   0.65702031  0.26960649  0.90434061
   0.81036201  0.20768835  0.08015567
   0.81876631  0.22220517  0.41237417
   0.64168375  0.26932643  0.56324689
   0.81221095  0.31229831  0.73200032
   0.64320362  0.17110218  0.24505407
   0.81096285  0.48492557  0.48978330
   0.80939134  0.48549559  0.99890874
   0.65037674  0.52178824  0.82281429
   0.81277900  0.95023882  0.14946834
   0.81436211  0.94386874  0.33586877
   0.63971002  0.51954240  0.63881529
   0.80643335  0.76155367  0.90343423
   0.64491430  0.69500315  0.07598008
   0.64849484  0.69873050  0.40796126
   0.81536861  0.76955549  0.56307100
   0.65796006  0.79813425  0.73497606
   0.82401665  0.65678293  0.23927974
 
 position of ions in cartesian coordinates  (Angst):
   0.02231664  3.61043161  0.66824258
   1.40301564  1.32926378 13.97088446
   0.01684350  3.51185719  6.56491647
   1.42552080  1.33897980  7.84552638
   1.41883640  3.85228402  9.27325505
   0.06197002  0.87970581  5.30175856
   8.89904074  0.93325950  1.96847141
   1.41291357  3.93187124 12.61221471
   1.48826015  8.41494879  0.64067998
   0.01938401  6.18491122 13.87942462
   1.41642174  8.38290503  6.65355395
   0.07299360  6.10064050  8.01737477
   8.89585381  8.81740973  9.26134272
   1.49027474  5.74084691  5.34549587
   1.46711906  5.72993729  2.02350055
   0.01056291  8.75068009 12.65258222
   2.94602068  3.56546142  0.70027764
   4.42078154  1.32039714 13.87797474
   2.94546334  3.51231038  6.59451359
   4.33878359  1.32748606  7.99933378
   4.27410346  3.93967303  9.24185364
   2.87658095  0.95730617  5.32509839
   2.97900582  0.91148592  1.98761340
   4.30614709  3.94199985 12.64769292
   4.44241561  8.36468661  0.67734824
   2.81003155  6.16884671 13.90803907
   4.34064706  8.49014523  6.62195562
   2.97420409  6.13659849  7.94078393
   3.01167525  8.80042919  9.22028104
   4.42915009  5.71905114  5.26718862
   4.36086761  5.73447980  1.90731391
   2.90661713  8.72634558 12.59543907
   5.82670249  3.53356490  0.65081881
   7.24709201  1.27739748 13.95201947
   5.80617810  3.56065366  6.58806579
   7.22808459  1.38342587  8.02831832
   7.19039698  3.87157835  9.27377470
   5.82837254  0.94318872  5.27392538
   5.76686319  0.90801722  2.06160405
   7.24055436  4.00797216 12.61125475
   7.17518658  8.41292303  0.68377273
   5.83988589  6.09593999 13.89733786
   7.23816220  8.38854704  6.56657791
   5.86544132  6.16530956  7.95578801
   5.79516497  8.78485219  9.24542798
   7.27609269  5.84316433  5.32119788
   7.29896702  5.76370754  2.00830194
   5.78114913  8.80863859 12.65875481
   8.92246661  0.08893611  7.28617220
   0.00232397  0.05004499  0.06605233
   1.50996214  0.26892355 12.31880719
   8.81549244  4.55618863  2.17276603
   0.03340859  4.52246265  4.93100315
   1.49824635  0.32388415  9.58222843
   0.03290936  2.74243166 13.46149964
   1.46265116  2.20570685  1.05082532
   1.37711594  2.10847955  6.17208823
   8.92312820  2.79617011  8.34752436
   1.43026977  3.15492331 10.96920156
   8.89087276  1.68032484  3.58424050
   1.49162979  4.86256056  7.14443386
   1.46639204  4.82517684 14.90626839
   0.00430036  5.23045639 12.26225048
   1.34192554  9.45578676  2.38792949
   1.44689655  9.37751811  5.00359666
   8.88341136  5.16582813  9.57576867
   1.52220341  7.53165679 13.47929171
   0.02104629  7.01846109  1.12481402
   8.92400830  7.09974078  6.18977795
   1.41621618  7.51222814  8.38899094
   8.87347567  7.97902215 10.88050790
   1.43856201  6.57347886  3.69990346
   2.85530098  0.02519750  7.48813512
   2.87701592  9.92094214 14.80065208
   4.34316963  0.23194367 12.33886043
   2.92776090  4.48456297  2.32186849
   2.88085775  4.64178837  4.98868701
   4.42623442  0.19635500  9.48490363
   2.83439866  2.71765929 13.57271824
   4.45253945  2.07983653  1.07692803
   4.33052465  2.08615836  6.17651585
   2.87069106  2.64294788  8.42973436
   4.36356674  3.17811186 10.99749627
   2.88639631  1.68140712  3.59058789
   4.34581797  4.82241205  7.25424278
   4.33918365  4.77411613  0.06055717
   2.94338412  5.16548717 12.30274559
   4.34150298  9.39535010  2.24586813
   4.32056915  9.39020616  5.06190162
   2.85504891  5.21944041  9.55464834
   4.34017809  7.61386593 13.49259863
   2.88043314  6.93199766  1.00260614
   2.88680762  7.00695501  6.14481294
   4.38651471  7.72574098  8.42778023
   2.90632017  8.03856667 10.91307874
   4.34958018  6.46758151  3.70166485
   5.91758099  9.94414552  7.24704808
   5.81190403  9.83605715  0.02213946
   7.21266800  0.23795838 12.30714811
   5.79865886  4.60381278  2.24352941
   5.83247796  4.53076737  4.94892282
   7.31855981  0.30673497  9.53571836
   5.86454801  2.68237536 13.51177589
   7.23327246  2.06633792  1.19760789
   7.30828905  2.21076901  6.16129289
   5.72765423  2.67958898  8.41548601
   7.24977606  3.10712584 10.93683526
   5.74122056  1.70233392  3.66135905
   7.23863554  4.82463312  7.31786465
   7.22460828  4.83030438 14.92472071
   5.80524766  5.19138808 12.29368908
   7.25484646  9.45413887  2.23321024
   7.26897726  9.39076152  5.01822377
   5.71003677  5.16904372  9.54455538
   7.19820533  7.57686805 13.49823364
   5.75649005  6.91474202  1.13522029
   5.78844986  6.95182626  6.09535949
   7.27796126  7.65647995  8.41285803
   5.87293620  7.94081644 10.98129587
   7.35515346  6.53448049  3.57508464
 


--------------------------------------------------------------------------------------------------------


 k-point  1 :   0.0000 0.0000 0.0000  plane waves:   33683
 k-point  2 :   0.3333 0.0000 0.0000  plane waves:   33688
 k-point  3 :   0.0000 0.3333 0.0000  plane waves:   33656
 k-point  4 :   0.3333 0.3333 0.0000  plane waves:   33676
 k-point  5 :  -0.3333 0.3333 0.0000  plane waves:   33676
 k-point  6 :   0.0000 0.0000 0.5000  plane waves:   33710
 k-point  7 :   0.3333 0.0000 0.5000  plane waves:   33628
 k-point  8 :   0.0000 0.3333 0.5000  plane waves:   33658
 k-point  9 :   0.3333 0.3333 0.5000  plane waves:   33710
 k-point 10 :  -0.3333 0.3333 0.5000  plane waves:   33710

 maximum and minimum number of plane-waves per node :     33710    33628

 maximum number of plane-waves:     33710
 maximum index in each direction: 
   IXMAX=   16   IYMAX=   18   IZMAX=   27
   IXMIN=  -16   IYMIN=  -18   IZMIN=  -27

 The following grids will avoid any aliasing or wrap around errors in the Hartre
 e energy
  - symmetry arguments have not been applied
  - exchange correlation energies might require even more grid points
  - we recommend to set PREC=Normal or Accurate and rely on VASP defaults
 NGX is ok and might be reduce to    70
 NGY is ok and might be reduce to    80
 NGZ is ok and might be reduce to   112

 serial   3D FFT for wavefunctions
 parallel 3D FFT for charge:
    minimum data exchange during FFTs selected (reduces bandwidth)


 total amount of memory used by VASP MPI-rank0   623665. kBytes
=======================================================================

   base      :      30000. kBytes
   nonlr-proj:      72719. kBytes
   fftplans  :      13422. kBytes
   grid      :      76344. kBytes
   one-center:       3732. kBytes
   wavefun   :     427448. kBytes
 
     INWAV:  cpu time    0.0000: real time    0.0000
 Broyden mixing: mesh for mixing (old mesh)
   NGX = 33   NGY = 37   NGZ = 55
  (NGX  =140   NGY  =160   NGZ  =224)
  gives a total of  67155 points

 initial charge density was supplied:
 charge density of overlapping atoms calculated
 number of electron     912.0000000 magnetization     120.0000000
 keeping initial charge density in first step


--------------------------------------------------------------------------------------------------------


 Maximum index for non-local projection operator         6178
 Maximum index for augmentation-charges         1059 (set IRDMAX)


--------------------------------------------------------------------------------------------------------


 First call to EWALD:  gamma=   0.161
 Maximum number of real-space cells 3x 3x 2
 Maximum number of reciprocal cells 2x 3x 4

    FEWALD:  cpu time    0.0055: real time    0.0055


--------------------------------------- Iteration      1(   1)  ---------------------------------------


    POTLOK:  cpu time    0.4107: real time    0.4665
    SETDIJ:  cpu time    0.0455: real time    0.0457
     EDDAV:  cpu time  174.4528: real time  174.8668
    --------------------------------------------
      LOOP:  cpu time  174.9115: real time  175.3815

 eigenvalue-minimisations  : 24320
 total energy-change (2. order) : 0.1131095E+05  (-0.3824191E+05)
 number of electron     912.0000000 magnetization     120.0000000
 augmentation part      912.0000000 magnetization     120.0000000

 Free energy of the ion-electron system (eV)
  ---------------------------------------------------
  alpha Z        PSCENC =      2828.68208838
  Ewald energy   TEWEN  =    -57785.88747130
  -Hartree energ DENC   =    -27878.05043660
  -exchange      EXHF   =         0.00000000
  -V(xc)+E(xc)   XCENC  =      3559.82140885
  PAW double counting   =     71080.72462945   -74396.17323249
  entropy T*S    EENTRO =        -0.01833612
  eigenvalues    EBANDS =     11196.02808602
  atomic energy  EATOM  =     82705.81968683
  Solvation  Ediel_sol  =         0.00000000
  ---------------------------------------------------
  free energy    TOTEN  =     11310.94642301 eV

  energy without entropy =    11310.96475913  energy(sigma->0) =    11310.95559107


--------------------------------------------------------------------------------------------------------




--------------------------------------- Iteration      1(   2)  ---------------------------------------


     EDDAV:  cpu time  173.1096: real time  173.5202
    --------------------------------------------
      LOOP:  cpu time  173.1096: real time  173.5201

 eigenvalue-minimisations  : 24320
 total energy-change (2. order) :-0.9560295E+04  (-0.8741247E+04)
 number of electron     912.0000000 magnetization     120.0000000
 augmentation part      912.0000000 magnetization     120.0000000

 Free energy of the ion-electron system (eV)
  ---------------------------------------------------
  alpha Z        PSCENC =      2828.68208838
  Ewald energy   TEWEN  =    -57785.88747130
  -Hartree energ DENC   =    -27878.05043660
  -exchange      EXHF   =         0.00000000
  -V(xc)+E(xc)   XCENC  =      3559.82140885
  PAW double counting   =     71080.72462945   -74396.17323249
  entropy T*S    EENTRO =        -0.05375143
  eigenvalues    EBANDS =      1635.76815670
  atomic energy  EATOM  =     82705.81968683
  Solvation  Ediel_sol  =         0.00000000
  ---------------------------------------------------
  free energy    TOTEN  =      1750.65107838 eV

  energy without entropy =     1750.70482981  energy(sigma->0) =     1750.67795410


--------------------------------------------------------------------------------------------------------




--------------------------------------- Iteration      1(   3)  ---------------------------------------


     EDDAV:  cpu time  177.5554: real time  177.9765
    --------------------------------------------
      LOOP:  cpu time  177.5556: real time  177.9766

 eigenvalue-minimisations  : 24912
 total energy-change (2. order) :-0.2407996E+04  (-0.2090294E+04)
 number of electron     912.0000000 magnetization     120.0000000
 augmentation part      912.0000000 magnetization     120.0000000

 Free energy of the ion-electron system (eV)
  ---------------------------------------------------
  alpha Z        PSCENC =      2828.68208838
  Ewald energy   TEWEN  =    -57785.88747130
  -Hartree energ DENC   =    -27878.05043660
  -exchange      EXHF   =         0.00000000
  -V(xc)+E(xc)   XCENC  =      3559.82140885
  PAW double counting   =     71080.72462945   -74396.17323249
  entropy T*S    EENTRO =        -0.22900649
  eigenvalues    EBANDS =      -772.05291737
  atomic energy  EATOM  =     82705.81968683
  Solvation  Ediel_sol  =         0.00000000
  ---------------------------------------------------
  free energy    TOTEN  =      -657.34525075 eV

  energy without entropy =     -657.11624426  energy(sigma->0) =     -657.23074750


--------------------------------------------------------------------------------------------------------




--------------------------------------- Iteration      1(   4)  ---------------------------------------


     EDDAV:  cpu time  190.3527: real time  190.8040
    --------------------------------------------
      LOOP:  cpu time  190.3526: real time  190.8039

 eigenvalue-minimisations  : 27440
 total energy-change (2. order) :-0.3260688E+03  (-0.3128932E+03)
 number of electron     912.0000000 magnetization     120.0000000
 augmentation part      912.0000000 magnetization     120.0000000

 Free energy of the ion-electron system (eV)
  ---------------------------------------------------
  alpha Z        PSCENC =      2828.68208838
  Ewald energy   TEWEN  =    -57785.88747130
  -Hartree energ DENC   =    -27878.05043660
  -exchange      EXHF   =         0.00000000
  -V(xc)+E(xc)   XCENC  =      3559.82140885
  PAW double counting   =     71080.72462945   -74396.17323249
  entropy T*S    EENTRO =        -0.23718495
  eigenvalues    EBANDS =     -1098.11352227
  atomic energy  EATOM  =     82705.81968683
  Solvation  Ediel_sol  =         0.00000000
  ---------------------------------------------------
  free energy    TOTEN  =      -983.41403411 eV

  energy without entropy =     -983.17684917  energy(sigma->0) =     -983.29544164


--------------------------------------------------------------------------------------------------------




--------------------------------------- Iteration      1(   5)  ---------------------------------------


     EDDAV:  cpu time  185.9087: real time  186.3494
    CHARGE:  cpu time    7.6841: real time    7.7024
    MIXING:  cpu time    0.0079: real time    0.0080
    --------------------------------------------
      LOOP:  cpu time  193.5983: real time  194.0573

 eigenvalue-minimisations  : 26912
 total energy-change (2. order) :-0.1158036E+02  (-0.1143915E+02)
 number of electron     911.9999990 magnetization     125.7704536
 augmentation part      302.2586882 magnetization      89.7299033

 Broyden mixing:
  rms(total) = 0.15224E+02    rms(broyden)= 0.15222E+02
  rms(prec ) = 0.17106E+02
  weight for this iteration     100.00

 Free energy of the ion-electron system (eV)
  ---------------------------------------------------
  alpha Z        PSCENC =      2828.68208838
  Ewald energy   TEWEN  =    -57785.88747130
  -Hartree energ DENC   =    -27878.05043660
  -exchange      EXHF   =         0.00000000
  -V(xc)+E(xc)   XCENC  =      3559.82140885
  PAW double counting   =     71080.72462945   -74396.17323249
  entropy T*S    EENTRO =        -0.23638970
  eigenvalues    EBANDS =     -1109.69467457
  atomic energy  EATOM  =     82705.81968683
  Solvation  Ediel_sol  =         0.00000000
  ---------------------------------------------------
  free energy    TOTEN  =      -994.99439116 eV

  energy without entropy =     -994.75800147  energy(sigma->0) =     -994.87619632


--------------------------------------------------------------------------------------------------------




--------------------------------------- Iteration      1(   6)  ---------------------------------------


    POTLOK:  cpu time    0.3845: real time    0.3854
    SETDIJ:  cpu time    0.0464: real time    0.0465
     EDDAV:  cpu time  243.0280: real time  243.6041
    CHARGE:  cpu time    7.4482: real time    7.4658
    MIXING:  cpu time    0.0084: real time    0.0084
    --------------------------------------------
      LOOP:  cpu time  250.9153: real time  251.5102

 eigenvalue-minimisations  : 37376
 total energy-change (2. order) :-0.1658392E+03  (-0.2123807E+03)
 number of electron     912.0000017 magnetization     118.3068157
 augmentation part      393.2567726 magnetization     117.4946412

 Broyden mixing:
  rms(total) = 0.30972E+02    rms(broyden)= 0.30970E+02
  rms(prec ) = 0.33352E+02
  weight for this iteration     100.00

 eigenvalues of (default mixing * dielectric matrix)
  average eigenvalue GAMMA=   0.2360
  0.2360

 Free energy of the ion-electron system (eV)
  ---------------------------------------------------
  alpha Z        PSCENC =      2828.68208838
  Ewald energy   TEWEN  =    -57785.88747130
  -Hartree energ DENC   =    -26568.89680508
  -exchange      EXHF   =         0.00000000
  -V(xc)+E(xc)   XCENC  =      3594.99028294
  PAW double counting   =     74690.23734738   -77535.18792983
  entropy T*S    EENTRO =        -0.08106736
  eigenvalues    EBANDS =     -3090.50973380
  atomic energy  EATOM  =     82705.81968683
  Solvation  Ediel_sol  =         0.00000000
  ---------------------------------------------------
  free energy    TOTEN  =     -1160.83360187 eV

  energy without entropy =    -1160.75253450  energy(sigma->0) =    -1160.79306818


--------------------------------------------------------------------------------------------------------




--------------------------------------- Iteration      1(   7)  ---------------------------------------


    POTLOK:  cpu time    0.3826: real time    0.3835
    SETDIJ:  cpu time    0.0436: real time    0.0437
     EDDAV:  cpu time  218.5998: real time  219.1177
    CHARGE:  cpu time    7.6585: real time    7.6767
    MIXING:  cpu time    0.0095: real time    0.0095
    --------------------------------------------
      LOOP:  cpu time  226.6939: real time  227.2312

 eigenvalue-minimisations  : 33424
 total energy-change (2. order) : 0.3652958E+03  (-0.5794115E+02)
 number of electron     911.9999967 magnetization     112.3004124
 augmentation part      361.3824429 magnetization      99.8010099

 Broyden mixing:
  rms(total) = 0.14426E+02    rms(broyden)= 0.14424E+02
  rms(prec ) = 0.16502E+02
  weight for this iteration     100.00

 eigenvalues of (default mixing * dielectric matrix)
  average eigenvalue GAMMA=   0.4194
  0.4194  0.4194

 Free energy of the ion-electron system (eV)
  ---------------------------------------------------
  alpha Z        PSCENC =      2828.68208838
  Ewald energy   TEWEN  =    -57785.88747130
  -Hartree energ DENC   =    -27082.09887713
  -exchange      EXHF   =         0.00000000
  -V(xc)+E(xc)   XCENC  =      3556.36155521
  PAW double counting   =     77026.12730958   -80163.21063935
  entropy T*S    EENTRO =        -0.11369430
  eigenvalues    EBANDS =     -1881.21779409
  atomic energy  EATOM  =     82705.81968683
  Solvation  Ediel_sol  =         0.00000000
  ---------------------------------------------------
  free energy    TOTEN  =      -795.53783619 eV

  energy without entropy =     -795.42414189  energy(sigma->0) =     -795.48098904


--------------------------------------------------------------------------------------------------------




--------------------------------------- Iteration      1(   8)  ---------------------------------------


    POTLOK:  cpu time    0.3902: real time    0.3911
    SETDIJ:  cpu time    0.0475: real time    0.0476
     EDDAV:  cpu time  237.7732: real time  238.3366
    CHARGE:  cpu time    7.3825: real time    7.4000
    MIXING:  cpu time    0.0089: real time    0.0090
    --------------------------------------------
      LOOP:  cpu time  245.6023: real time  246.1844

 eigenvalue-minimisations  : 36000
 total energy-change (2. order) :-0.1133994E+03  (-0.3097811E+02)
 number of electron     912.0000023 magnetization     107.0038742
 augmentation part      344.2915549 magnetization      95.6339729

 Broyden mixing:
  rms(total) = 0.16790E+02    rms(broyden)= 0.16789E+02
  rms(prec ) = 0.23649E+02
  weight for this iteration     100.00

 eigenvalues of (default mixing * dielectric matrix)
  average eigenvalue GAMMA=   0.3788
  0.5007  0.5007  0.1349

 Free energy of the ion-electron system (eV)
  ---------------------------------------------------
  alpha Z        PSCENC =      2828.68208838
  Ewald energy   TEWEN  =    -57785.88747130
  -Hartree energ DENC   =    -27094.70033505
  -exchange      EXHF   =         0.00000000
  -V(xc)+E(xc)   XCENC  =      3540.55708966
  PAW double counting   =     78247.93457710   -81495.91556039
  entropy T*S    EENTRO =        -0.10148111
  eigenvalues    EBANDS =     -1855.32578573
  atomic energy  EATOM  =     82705.81968683
  Solvation  Ediel_sol  =         0.00000000
  ---------------------------------------------------
  free energy    TOTEN  =      -908.93719164 eV

  energy without entropy =     -908.83571053  energy(sigma->0) =     -908.88645108


--------------------------------------------------------------------------------------------------------




--------------------------------------- Iteration      1(   9)  ---------------------------------------


    POTLOK:  cpu time    0.3846: real time    0.3855
    SETDIJ:  cpu time    0.0468: real time    0.0469
     EDDAV:  cpu time  202.4645: real time  202.9442
    CHARGE:  cpu time    7.5049: real time    7.5227
    MIXING:  cpu time    0.0095: real time    0.0095
    --------------------------------------------
      LOOP:  cpu time  210.4102: real time  210.9087

 eigenvalue-minimisations  : 29552
 total energy-change (2. order) : 0.2356681E+02  (-0.3570122E+02)
 number of electron     912.0000007 magnetization     101.0410613
 augmentation part      341.6664047 magnetization      88.0913042

 Broyden mixing:
  rms(total) = 0.17599E+02    rms(broyden)= 0.17598E+02
  rms(prec ) = 0.22037E+02
  weight for this iteration     100.00

 eigenvalues of (default mixing * dielectric matrix)
  average eigenvalue GAMMA=   0.3548
  0.5683  0.5683  0.1507  0.1317

 Free energy of the ion-electron system (eV)
  ---------------------------------------------------
  alpha Z        PSCENC =      2828.68208838
  Ewald energy   TEWEN  =    -57785.88747130
  -Hartree energ DENC   =    -27001.38811361
  -exchange      EXHF   =         0.00000000
  -V(xc)+E(xc)   XCENC  =      3533.51177627
  PAW double counting   =     79197.60021498   -82482.64774881
  entropy T*S    EENTRO =        -0.11497693
  eigenvalues    EBANDS =     -1880.94583432
  atomic energy  EATOM  =     82705.81968683
  Solvation  Ediel_sol  =         0.00000000
  ---------------------------------------------------
  free energy    TOTEN  =      -885.37037852 eV

  energy without entropy =     -885.25540159  energy(sigma->0) =     -885.31289006


--------------------------------------------------------------------------------------------------------




--------------------------------------- Iteration      1(  10)  ---------------------------------------


    POTLOK:  cpu time    0.3855: real time    0.3864
    SETDIJ:  cpu time    0.0476: real time    0.0477
     EDDAV:  cpu time  225.5005: real time  226.0348
    CHARGE:  cpu time    7.7574: real time    7.7758
    MIXING:  cpu time    0.0103: real time    0.0104
    --------------------------------------------
      LOOP:  cpu time  233.7012: real time  234.2550

 eigenvalue-minimisations  : 33936
 total energy-change (2. order) : 0.4929571E+02  (-0.2093943E+02)
 number of electron     912.0000014 magnetization      95.8475943
 augmentation part      333.4642186 magnetization      74.5311414

 Broyden mixing:
  rms(total) = 0.15513E+02    rms(broyden)= 0.15511E+02
  rms(prec ) = 0.18815E+02
  weight for this iteration     100.00

 eigenvalues of (default mixing * dielectric matrix)
  average eigenvalue GAMMA=   0.3432
  0.6344  0.6344  0.1940  0.1265  0.1265

 Free energy of the ion-electron system (eV)
  ---------------------------------------------------
  alpha Z        PSCENC =      2828.68208838
  Ewald energy   TEWEN  =    -57785.88747130
  -Hartree energ DENC   =    -27022.17375370
  -exchange      EXHF   =         0.00000000
  -V(xc)+E(xc)   XCENC  =      3529.41081651
  PAW double counting   =     80288.26461729   -83612.34661738
  entropy T*S    EENTRO =        -0.15272784
  eigenvalues    EBANDS =     -1767.69130862
  atomic energy  EATOM  =     82705.81968683
  Solvation  Ediel_sol  =         0.00000000
  ---------------------------------------------------
  free energy    TOTEN  =      -836.07466984 eV

  energy without entropy =     -835.92194200  energy(sigma->0) =     -835.99830592


--------------------------------------------------------------------------------------------------------




--------------------------------------- Iteration      1(  11)  ---------------------------------------


    POTLOK:  cpu time    0.3853: real time    0.3863
    SETDIJ:  cpu time    0.0469: real time    0.0470
     EDDAV:  cpu time  215.8107: real time  216.3220
    CHARGE:  cpu time    7.4975: real time    7.5153
    MIXING:  cpu time    0.0097: real time    0.0097
    --------------------------------------------
      LOOP:  cpu time  223.7501: real time  224.2803

 eigenvalue-minimisations  : 32160
 total energy-change (2. order) : 0.5813096E+02  (-0.1441417E+02)
 number of electron     911.9999985 magnetization      92.7723505
 augmentation part      342.3666408 magnetization      74.3150285

 Broyden mixing:
  rms(total) = 0.12461E+02    rms(broyden)= 0.12459E+02
  rms(prec ) = 0.15558E+02
  weight for this iteration     100.00

 eigenvalues of (default mixing * dielectric matrix)
  average eigenvalue GAMMA=   0.3398
  0.6944  0.6944  0.2156  0.2156  0.1268  0.0917

 Free energy of the ion-electron system (eV)
  ---------------------------------------------------
  alpha Z        PSCENC =      2828.68208838
  Ewald energy   TEWEN  =    -57785.88747130
  -Hartree energ DENC   =    -26952.50213259
  -exchange      EXHF   =         0.00000000
  -V(xc)+E(xc)   XCENC  =      3527.71424254
  PAW double counting   =     81225.16831050   -84569.38418112
  entropy T*S    EENTRO =        -0.12493946
  eigenvalues    EBANDS =     -1757.42931217
  atomic energy  EATOM  =     82705.81968683
  Solvation  Ediel_sol  =         0.00000000
  ---------------------------------------------------
  free energy    TOTEN  =      -777.94370839 eV

  energy without entropy =     -777.81876893  energy(sigma->0) =     -777.88123866


--------------------------------------------------------------------------------------------------------




--------------------------------------- Iteration      1(  12)  ---------------------------------------


    POTLOK:  cpu time    0.3845: real time    0.3854
    SETDIJ:  cpu time    0.0473: real time    0.0474
     EDDAV:  cpu time  211.7702: real time  212.2720
    CHARGE:  cpu time    7.5884: real time    7.6064
    MIXING:  cpu time    0.0103: real time    0.0103
    --------------------------------------------
      LOOP:  cpu time  219.8008: real time  220.3216

 eigenvalue-minimisations  : 31312
 total energy-change (2. order) : 0.3602030E+02  (-0.7296111E+01)
 number of electron     911.9999996 magnetization      89.9150225
 augmentation part      340.4794476 magnetization      70.7441947

 Broyden mixing:
  rms(total) = 0.92578E+01    rms(broyden)= 0.92567E+01
  rms(prec ) = 0.11355E+02
  weight for this iteration     100.00

 eigenvalues of (default mixing * dielectric matrix)
  average eigenvalue GAMMA=   0.3528
  0.7712  0.7712  0.3044  0.3044  0.1284  0.0949  0.0949

 Free energy of the ion-electron system (eV)
  ---------------------------------------------------
  alpha Z        PSCENC =      2828.68208838
  Ewald energy   TEWEN  =    -57785.88747130
  -Hartree energ DENC   =    -26948.54755368
  -exchange      EXHF   =         0.00000000
  -V(xc)+E(xc)   XCENC  =      3527.10522330
  PAW double counting   =     81680.94317000   -85037.03310348
  entropy T*S    EENTRO =        -0.15415948
  eigenvalues    EBANDS =     -1712.85128990
  atomic energy  EATOM  =     82705.81968683
  Solvation  Ediel_sol  =         0.00000000
  ---------------------------------------------------
  free energy    TOTEN  =      -741.92340934 eV

  energy without entropy =     -741.76924986  energy(sigma->0) =     -741.84632960


--------------------------------------------------------------------------------------------------------




--------------------------------------- Iteration      1(  13)  ---------------------------------------


    POTLOK:  cpu time    0.3842: real time    0.3851
    SETDIJ:  cpu time    0.0466: real time    0.0467
     EDDAV:  cpu time  216.1920: real time  216.7041
    CHARGE:  cpu time    7.6924: real time    7.7106
    MIXING:  cpu time    0.0117: real time    0.0117
    --------------------------------------------
      LOOP:  cpu time  224.3268: real time  224.8582

 eigenvalue-minimisations  : 32144
 total energy-change (2. order) :-0.1007035E+02  (-0.6019750E+01)
 number of electron     912.0000010 magnetization      85.7835707
 augmentation part      336.6924966 magnetization      65.8991146

 Broyden mixing:
  rms(total) = 0.11627E+02    rms(broyden)= 0.11626E+02
  rms(prec ) = 0.14424E+02
  weight for this iteration     100.00

 eigenvalues of (default mixing * dielectric matrix)
  average eigenvalue GAMMA=   0.3489
  0.8376  0.8376  0.3457  0.3457  0.1324  0.1040  0.1040  0.0841

 Free energy of the ion-electron system (eV)
  ---------------------------------------------------
  alpha Z        PSCENC =      2828.68208838
  Ewald energy   TEWEN  =    -57785.88747130
  -Hartree energ DENC   =    -26970.48412594
  -exchange      EXHF   =         0.00000000
  -V(xc)+E(xc)   XCENC  =      3526.32918832
  PAW double counting   =     82019.88839035   -85389.85898254
  entropy T*S    EENTRO =        -0.13826564
  eigenvalues    EBANDS =     -1686.34426843
  atomic energy  EATOM  =     82705.81968683
  Solvation  Ediel_sol  =         0.00000000
  ---------------------------------------------------
  free energy    TOTEN  =      -751.99375998 eV

  energy without entropy =     -751.85549434  energy(sigma->0) =     -751.92462716


--------------------------------------------------------------------------------------------------------




--------------------------------------- Iteration      1(  14)  ---------------------------------------


    POTLOK:  cpu time    0.3880: real time    0.3889
    SETDIJ:  cpu time    0.0464: real time    0.0465
     EDDAV:  cpu time  216.8027: real time  217.3164
    CHARGE:  cpu time    7.6207: real time    7.6388
    MIXING:  cpu time    0.0103: real time    0.0104
    --------------------------------------------
      LOOP:  cpu time  224.8682: real time  225.4010

 eigenvalue-minimisations  : 31920
 total energy-change (2. order) : 0.2311576E+02  (-0.5131527E+01)
 number of electron     912.0000005 magnetization      83.1884715
 augmentation part      338.0217595 magnetization      63.6292777

 Broyden mixing:
  rms(total) = 0.86307E+01    rms(broyden)= 0.86298E+01
  rms(prec ) = 0.10591E+02
  weight for this iteration     100.00

 eigenvalues of (default mixing * dielectric matrix)
  average eigenvalue GAMMA=   0.3373
  1.0207  0.7214  0.3687  0.3687  0.1400  0.1400  0.1003  0.1003  0.0758

 Free energy of the ion-electron system (eV)
  ---------------------------------------------------
  alpha Z        PSCENC =      2828.68208838
  Ewald energy   TEWEN  =    -57785.88747130
  -Hartree energ DENC   =    -26983.68496807
  -exchange      EXHF   =         0.00000000
  -V(xc)+E(xc)   XCENC  =      3525.36399015
  PAW double counting   =     82511.18221692   -85894.44180195
  entropy T*S    EENTRO =        -0.15380070
  eigenvalues    EBANDS =     -1635.75794007
  atomic energy  EATOM  =     82705.81968683
  Solvation  Ediel_sol  =         0.00000000
  ---------------------------------------------------
  free energy    TOTEN  =      -728.87799981 eV

  energy without entropy =     -728.72419911  energy(sigma->0) =     -728.80109946


--------------------------------------------------------------------------------------------------------




--------------------------------------- Iteration      1(  15)  ---------------------------------------


    POTLOK:  cpu time    0.3867: real time    0.3876
    SETDIJ:  cpu time    0.0470: real time    0.0471
     EDDAV:  cpu time  214.7176: real time  215.2263
    CHARGE:  cpu time    7.6358: real time    7.6539
    MIXING:  cpu time    0.0120: real time    0.0120
    --------------------------------------------
      LOOP:  cpu time  222.7990: real time  223.3268

 eigenvalue-minimisations  : 31472
 total energy-change (2. order) : 0.1306780E+02  (-0.3907396E+01)
 number of electron     911.9999993 magnetization      80.3555718
 augmentation part      338.2811478 magnetization      59.5974044

 Broyden mixing:
  rms(total) = 0.63272E+01    rms(broyden)= 0.63263E+01
  rms(prec ) = 0.79794E+01
  weight for this iteration     100.00

 eigenvalues of (default mixing * dielectric matrix)
  average eigenvalue GAMMA=   0.3415
  1.1378  0.6362  0.4328  0.4328  0.2531  0.1554  0.0982  0.0982  0.0850  0.0850

 Free energy of the ion-electron system (eV)
  ---------------------------------------------------
  alpha Z        PSCENC =      2828.68208838
  Ewald energy   TEWEN  =    -57785.88747130
  -Hartree energ DENC   =    -26995.66727736
  -exchange      EXHF   =         0.00000000
  -V(xc)+E(xc)   XCENC  =      3525.09152936
  PAW double counting   =     82805.69470841   -86197.13550404
  entropy T*S    EENTRO =        -0.13037183
  eigenvalues    EBANDS =     -1602.27758359
  atomic energy  EATOM  =     82705.81968683
  Solvation  Ediel_sol  =         0.00000000
  ---------------------------------------------------
  free energy    TOTEN  =      -715.81019515 eV

  energy without entropy =     -715.67982333  energy(sigma->0) =     -715.74500924


--------------------------------------------------------------------------------------------------------




--------------------------------------- Iteration      1(  16)  ---------------------------------------


    POTLOK:  cpu time    0.3916: real time    0.3925
    SETDIJ:  cpu time    0.0470: real time    0.0471
     EDDAV:  cpu time  211.2691: real time  211.7695
    CHARGE:  cpu time    7.6956: real time    7.7139
    MIXING:  cpu time    0.0107: real time    0.0107
    --------------------------------------------
      LOOP:  cpu time  219.4140: real time  219.9337

 eigenvalue-minimisations  : 30960
 total energy-change (2. order) : 0.2049719E+01  (-0.2382690E+01)
 number of electron     911.9999994 magnetization      77.7580697
 augmentation part      337.5807436 magnetization      57.9861386

 Broyden mixing:
  rms(total) = 0.60889E+01    rms(broyden)= 0.60881E+01
  rms(prec ) = 0.75297E+01
  weight for this iteration     100.00

 eigenvalues of (default mixing * dielectric matrix)
  average eigenvalue GAMMA=   0.3411
  1.2525  0.5169  0.5169  0.5034  0.3239  0.1458  0.1458  0.0943  0.0943  0.0791
  0.0791

 Free energy of the ion-electron system (eV)
  ---------------------------------------------------
  alpha Z        PSCENC =      2828.68208838
  Ewald energy   TEWEN  =    -57785.88747130
  -Hartree energ DENC   =    -27003.59811111
  -exchange      EXHF   =         0.00000000
  -V(xc)+E(xc)   XCENC  =      3524.75390174
  PAW double counting   =     83092.75179602   -86489.41873352
  entropy T*S    EENTRO =        -0.13397805
  eigenvalues    EBANDS =     -1586.72965527
  atomic energy  EATOM  =     82705.81968683
  Solvation  Ediel_sol  =         0.00000000
  ---------------------------------------------------
  free energy    TOTEN  =      -713.76047630 eV

  energy without entropy =     -713.62649825  energy(sigma->0) =     -713.69348727


--------------------------------------------------------------------------------------------------------




--------------------------------------- Iteration      1(  17)  ---------------------------------------


    POTLOK:  cpu time    0.3735: real time    0.3744
    SETDIJ:  cpu time    0.0470: real time    0.0471
     EDDAV:  cpu time  209.6723: real time  210.1690
    CHARGE:  cpu time    7.6221: real time    7.6402
    MIXING:  cpu time    0.0130: real time    0.0130
    --------------------------------------------
      LOOP:  cpu time  217.7279: real time  218.2437

 eigenvalue-minimisations  : 30368
 total energy-change (2. order) : 0.5474635E+01  (-0.2377004E+01)
 number of electron     911.9999996 magnetization      75.8641991
 augmentation part      338.3126997 magnetization      55.7913876

 Broyden mixing:
  rms(total) = 0.43061E+01    rms(broyden)= 0.43054E+01
  rms(prec ) = 0.51894E+01
  weight for this iteration     100.00

 eigenvalues of (default mixing * dielectric matrix)
  average eigenvalue GAMMA=   0.3385
  1.2969  0.6019  0.6019  0.3882  0.3882  0.1709  0.1709  0.0965  0.0965  0.0881
  0.0881  0.0743

 Free energy of the ion-electron system (eV)
  ---------------------------------------------------
  alpha Z        PSCENC =      2828.68208838
  Ewald energy   TEWEN  =    -57785.88747130
  -Hartree energ DENC   =    -27009.19776592
  -exchange      EXHF   =         0.00000000
  -V(xc)+E(xc)   XCENC  =      3524.35984916
  PAW double counting   =     83344.22313856   -86744.25460606
  entropy T*S    EENTRO =        -0.12664193
  eigenvalues    EBANDS =     -1571.90411863
  atomic energy  EATOM  =     82705.81968683
  Solvation  Ediel_sol  =         0.00000000
  ---------------------------------------------------
  free energy    TOTEN  =      -708.28584092 eV

  energy without entropy =     -708.15919899  energy(sigma->0) =     -708.22251995


--------------------------------------------------------------------------------------------------------




--------------------------------------- Iteration      1(  18)  ---------------------------------------


    POTLOK:  cpu time    0.3830: real time    0.3840
    SETDIJ:  cpu time    0.0464: real time    0.0465
     EDDAV:  cpu time  204.4181: real time  204.9023
    CHARGE:  cpu time    7.7434: real time    7.7618
    MIXING:  cpu time    0.0122: real time    0.0122
    --------------------------------------------
      LOOP:  cpu time  212.6031: real time  213.1067

 eigenvalue-minimisations  : 29488
 total energy-change (2. order) : 0.1708577E+01  (-0.1432676E+01)
 number of electron     911.9999993 magnetization      73.4118080
 augmentation part      338.4793018 magnetization      54.1421713

 Broyden mixing:
  rms(total) = 0.32193E+01    rms(broyden)= 0.32188E+01
  rms(prec ) = 0.38212E+01
  weight for this iteration     100.00

 eigenvalues of (default mixing * dielectric matrix)
  average eigenvalue GAMMA=   0.3380
  1.3230  0.6334  0.6334  0.4761  0.3064  0.3064  0.1623  0.1048  0.1048  0.0942
  0.0942  0.0773  0.0773

 Free energy of the ion-electron system (eV)
  ---------------------------------------------------
  alpha Z        PSCENC =      2828.68208838
  Ewald energy   TEWEN  =    -57785.88747130
  -Hartree energ DENC   =    -27016.76691813
  -exchange      EXHF   =         0.00000000
  -V(xc)+E(xc)   XCENC  =      3524.04164943
  PAW double counting   =     83497.17011598   -86899.20260805
  entropy T*S    EENTRO =        -0.13178059
  eigenvalues    EBANDS =     -1560.30202627
  atomic energy  EATOM  =     82705.81968683
  Solvation  Ediel_sol  =         0.00000000
  ---------------------------------------------------
  free energy    TOTEN  =      -706.57726373 eV

  energy without entropy =     -706.44548314  energy(sigma->0) =     -706.51137343


--------------------------------------------------------------------------------------------------------




--------------------------------------- Iteration      1(  19)  ---------------------------------------


    POTLOK:  cpu time    0.3866: real time    0.3876
    SETDIJ:  cpu time    0.0468: real time    0.0469
     EDDAV:  cpu time  202.8428: real time  203.3237
    CHARGE:  cpu time    7.5212: real time    7.5391
    MIXING:  cpu time    0.0123: real time    0.0123
    --------------------------------------------
      LOOP:  cpu time  210.8097: real time  211.3095

 eigenvalue-minimisations  : 29392
 total energy-change (2. order) : 0.3361093E+00  (-0.8033888E+00)
 number of electron     911.9999992 magnetization      71.4281137
 augmentation part      338.1699771 magnetization      51.9487462

 Broyden mixing:
  rms(total) = 0.22633E+01    rms(broyden)= 0.22627E+01
  rms(prec ) = 0.26386E+01
  weight for this iteration     100.00

 eigenvalues of (default mixing * dielectric matrix)
  average eigenvalue GAMMA=   0.3417
  1.3716  0.6756  0.6756  0.4755  0.3224  0.3224  0.2530  0.1400  0.1105  0.0924
  0.0924  0.0866  0.0866  0.0786

 Free energy of the ion-electron system (eV)
  ---------------------------------------------------
  alpha Z        PSCENC =      2828.68208838
  Ewald energy   TEWEN  =    -57785.88747130
  -Hartree energ DENC   =    -27027.74585298
  -exchange      EXHF   =         0.00000000
  -V(xc)+E(xc)   XCENC  =      3523.48769451
  PAW double counting   =     83658.77282323   -87062.60910305
  entropy T*S    EENTRO =        -0.12788124
  eigenvalues    EBANDS =     -1546.63313880
  atomic energy  EATOM  =     82705.81968683
  Solvation  Ediel_sol  =         0.00000000
  ---------------------------------------------------
  free energy    TOTEN  =      -706.24115444 eV

  energy without entropy =     -706.11327320  energy(sigma->0) =     -706.17721382


--------------------------------------------------------------------------------------------------------




--------------------------------------- Iteration      1(  20)  ---------------------------------------


    POTLOK:  cpu time    0.3741: real time    0.3750
    SETDIJ:  cpu time    0.0442: real time    0.0443
     EDDAV:  cpu time  208.3350: real time  208.8289
    CHARGE:  cpu time    7.2839: real time    7.3012
    MIXING:  cpu time    0.0143: real time    0.0144
    --------------------------------------------
      LOOP:  cpu time  216.0514: real time  216.5637

 eigenvalue-minimisations  : 30432
 total energy-change (2. order) :-0.1640207E+01  (-0.4695813E+00)
 number of electron     911.9999990 magnetization      68.7009048
 augmentation part      337.7623276 magnetization      49.8248002

 Broyden mixing:
  rms(total) = 0.23856E+01    rms(broyden)= 0.23851E+01
  rms(prec ) = 0.27961E+01
  weight for this iteration     100.00

 eigenvalues of (default mixing * dielectric matrix)
  average eigenvalue GAMMA=   0.3560
  1.4655  0.7550  0.7550  0.4439  0.4439  0.3285  0.3285  0.1436  0.1436  0.0949
  0.0949  0.0934  0.0934  0.0778  0.0778

 Free energy of the ion-electron system (eV)
  ---------------------------------------------------
  alpha Z        PSCENC =      2828.68208838
  Ewald energy   TEWEN  =    -57785.88747130
  -Hartree energ DENC   =    -27032.72413795
  -exchange      EXHF   =         0.00000000
  -V(xc)+E(xc)   XCENC  =      3522.83601852
  PAW double counting   =     83772.00064607   -87176.41383522
  entropy T*S    EENTRO =        -0.12479892
  eigenvalues    EBANDS =     -1542.06955798
  atomic energy  EATOM  =     82705.81968683
  Solvation  Ediel_sol  =         0.00000000
  ---------------------------------------------------
  free energy    TOTEN  =      -707.88136158 eV

  energy without entropy =     -707.75656266  energy(sigma->0) =     -707.81896212


--------------------------------------------------------------------------------------------------------




--------------------------------------- Iteration      1(  21)  ---------------------------------------


    POTLOK:  cpu time    0.3763: real time    0.3772
    SETDIJ:  cpu time    0.0467: real time    0.0468
     EDDAV:  cpu time  199.8307: real time  200.3042
    CHARGE:  cpu time    7.5403: real time    7.5764
    MIXING:  cpu time    0.0149: real time    0.0149
    --------------------------------------------
      LOOP:  cpu time  207.8090: real time  208.3195

 eigenvalue-minimisations  : 29248
 total energy-change (2. order) :-0.1353037E+01  (-0.4363341E+00)
 number of electron     911.9999992 magnetization      65.7715576
 augmentation part      337.7896963 magnetization      47.3218666

 Broyden mixing:
  rms(total) = 0.20737E+01    rms(broyden)= 0.20732E+01
  rms(prec ) = 0.26025E+01
  weight for this iteration     100.00

 eigenvalues of (default mixing * dielectric matrix)
  average eigenvalue GAMMA=   0.3703
  1.5211  0.8632  0.8632  0.4927  0.4927  0.3478  0.3478  0.2103  0.1461  0.0931
  0.0931  0.1030  0.1030  0.0870  0.0800  0.0800

 Free energy of the ion-electron system (eV)
  ---------------------------------------------------
  alpha Z        PSCENC =      2828.68208838
  Ewald energy   TEWEN  =    -57785.88747130
  -Hartree energ DENC   =    -27036.06122124
  -exchange      EXHF   =         0.00000000
  -V(xc)+E(xc)   XCENC  =      3521.96345842
  PAW double counting   =     83933.49401687   -87338.16839619
[...]
      7.22808      1.38343      8.02832         0.882672     -1.523718     -0.340437
      7.19040      3.87158      9.27377         0.719954      0.844292      1.323723
      5.82837      0.94319      5.27393         0.349062     -1.667180     -0.439903
      5.76686      0.90802      2.06160         0.843951     -1.601357     -0.798046
      7.24055      4.00797     12.61125         0.670069     -0.441906     -1.263517
      7.17519      8.41292      0.68377         0.654763      0.778229      0.216990
      5.83989      6.09594     13.89734         0.234881      0.458193      0.451943
      7.23816      8.38855      6.56658         0.427598      1.173238     -0.192483
      5.86544      6.16531      7.95579        -0.201490     -0.262651      0.366274
      5.79516      8.78485      9.24543         1.337917      1.330519      1.320236
      7.27609      5.84316      5.32120         0.783661     -0.777922     -1.634982
      7.29897      5.76371      2.00830         0.397187     -0.265596     -0.591416
      5.78115      8.80864     12.65875         0.681590      0.760828     -1.084308
      8.92247      0.08894      7.28617         0.200073      0.103399     -0.070991
      0.00232      0.05004      0.06605         0.072808      0.352571     -0.156403
      1.50996      0.26892     12.31881        -0.451453     -1.413082      2.087739
      8.81549      4.55619      2.17277         0.239616      0.748140     -0.167848
      0.03341      4.52246      4.93100        -0.274000      0.560047      1.881485
      1.49825      0.32388      9.58223        -0.348586     -1.394435     -1.793378
      0.03291      2.74243     13.46150         0.091632      0.121901      1.044115
      1.46265      2.20571      1.05083         0.044226     -0.033557     -0.763691
      1.37712      2.10848      6.17209         0.567571      0.389653     -0.500643
      8.92313      2.79617      8.34752         0.084864     -0.550391     -0.339327
      1.43027      3.15492     10.96920         0.094411      0.682951     -0.186998
      8.89087      1.68032      3.58424         0.028692     -1.179540      0.720090
      1.49163      4.86256      7.14443        -0.176010      0.028828      0.013271
      1.46639      4.82518     14.90627        -0.073133      0.298573     -0.235113
      0.00430      5.23046     12.26225        -0.237291     -0.935282      1.882206
      1.34193      9.45579      2.38793         0.277952      1.337124     -2.275507
      1.44690      9.37752      5.00360         0.002395      1.340833      1.981279
      8.88341      5.16583      9.57577         0.188022     -0.997711     -1.385730
      1.52220      7.53166     13.47929        -0.536831      0.583674      0.695612
      0.02105      7.01846      1.12481         0.202379      0.067390     -1.184814
      8.92401      7.09974      6.18978        -0.257103     -0.760755      0.868005
      1.41622      7.51223      8.38899         0.273309      0.532909     -0.318488
      8.87348      7.97902     10.88051         0.043430      1.531900      0.469155
      1.43856      6.57348      3.69990         0.126299     -1.224503     -0.206172
      2.85530      0.02520      7.48814         0.151624     -0.401497     -0.852360
      2.87702      9.92094     14.80065        -0.340179      0.232251      0.222292
      4.34317      0.23194     12.33886         0.348643     -1.448132      1.410852
      2.92776      4.48456      2.32187        -0.019791      0.884341     -1.141859
      2.88086      4.64179      4.98869         0.817346     -0.824318      0.953195
      4.42623      0.19635      9.48490         0.050423     -0.903905     -0.300952
      2.83440      2.71766     13.57272         0.248450      0.138084      0.617109
      4.45254      2.07984      1.07693        -0.060092      0.431537     -0.621953
      4.33052      2.08616      6.17652         0.014194      0.169450      0.363672
      2.87069      2.64295      8.42973        -0.254564      0.566486     -0.806995
      4.36357      3.17811     10.99750        -0.229416      0.752211     -0.505131
      2.88640      1.68141      3.59059         0.102748     -1.005949      0.581077
      4.34582      4.82241      7.25424         0.157417      0.209104     -0.180780
      4.33918      4.77412      0.06056         0.224319      0.093732     -0.206619
      2.94338      5.16549     12.30275        -0.725312     -0.538004      1.703139
      4.34150      9.39535      2.24587         0.154291      1.535788     -1.057074
      4.32057      9.39021      5.06190         0.009777      1.580377      1.186723
      2.85505      5.21944      9.55465         0.210717     -1.060215     -1.451443
      4.34018      7.61387     13.49260         0.248828      0.049189      0.773082
      2.88043      6.93200      1.00261         0.149705      0.296588     -0.642444
      2.88681      7.00696      6.14481         0.239483     -0.120228      1.033243
      4.38651      7.72574      8.42778         0.099630     -0.645649     -0.973331
      2.90632      8.03857     10.91308         0.144747      0.835806     -0.419411
      4.34958      6.46758      3.70166         0.012306     -0.090878     -1.355426
      5.91758      9.94415      7.24705        -0.173831     -0.075681     -0.389676
      5.81190      9.83606      0.02214         0.108878     -0.182787     -0.171829
      7.21267      0.23796     12.30715        -0.009082     -1.141139      2.206335
      5.79866      4.60381      2.24353         0.145334     -0.358467     -0.890349
      5.83248      4.53077      4.94892         0.341317      0.189764      1.538431
      7.31856      0.30673      9.53572        -0.148795     -1.196827     -1.164132
      5.86455      2.68238     13.51178        -0.136592     -0.048068      1.161111
      7.23327      2.06634      1.19761        -0.042191      0.127256     -1.046254
      7.30829      2.21077      6.16129        -0.129724     -0.063371      0.945907
      5.72765      2.67959      8.41549         0.005443      0.284496     -0.723165
      7.24978      3.10713     10.93684        -0.007970      1.445498     -0.070375
      5.74122      1.70233      3.66136         0.123051     -0.906183      0.315716
      7.23864      4.82463      7.31786         0.340483      0.138366      0.017817
      7.22461      4.83030     14.92472         0.013113     -0.189569      0.010114
      5.80525      5.19139     12.29369        -0.117291     -0.800340      1.514139
      7.25485      9.45414      2.23321        -0.136800      1.083066     -1.219210
      7.26898      9.39076      5.01822         0.060060      1.132100      1.323489
      5.71004      5.16904      9.54456         0.365995     -0.525809     -1.228646
      7.19821      7.57687     13.49823        -0.000906      0.330906      1.094992
      5.75649      6.91474      1.13522         0.076452      0.249510     -0.934937
      5.78845      6.95183      6.09536         0.313038     -0.011064      0.987154
      7.27796      7.65648      8.41286        -0.268691      0.210918     -0.717627
      5.87294      7.94082     10.98130        -0.313994      1.661255     -0.251085
      7.35515      6.53448      3.57508        -0.038643     -0.560973      1.047670
 -----------------------------------------------------------------------------------
    total drift:                               -0.019131      0.030707      0.008397


--------------------------------------------------------------------------------------------------------



  FREE ENERGIE OF THE ION-ELECTRON SYSTEM (eV)
  ---------------------------------------------------
  free  energy   TOTEN  =      -719.6836448377 eV

  energy  without entropy=     -719.5716981567  energy(sigma->0) =     -719.62767150
 


--------------------------------------------------------------------------------------------------------


    POTLOK:  cpu time    0.4044: real time    0.4054


--------------------------------------------------------------------------------------------------------


     LOOP+:  cpu time18162.3387: real time18206.0548
    4ORBIT:  cpu time    0.0000: real time    0.0000

volume of typ            1:    23.0 %

volume of typ            2:     8.8 %
 
total charge     
 
# of ion       s       p       d       tot
------------------------------------------
    1        0.219   0.224   7.860   8.303
    2        0.207   0.211   7.835   8.253
    3        0.223   0.247   7.878   8.348
    4        0.239   0.287   7.861   8.388
    5        0.236   0.260   7.824   8.319
    6        0.213   0.217   7.825   8.255
    7        0.226   0.245   7.801   8.272
    8        0.240   0.263   7.819   8.322
    9        0.192   0.179   7.836   8.207
   10        0.196   0.181   7.881   8.258
   11        0.218   0.236   7.869   8.324
   12        0.220   0.231   7.888   8.339
   13        0.212   0.208   7.824   8.244
   14        0.260   0.309   7.818   8.388
   15        0.231   0.249   7.794   8.274
   16        0.191   0.167   7.842   8.201
   17        0.224   0.243   7.860   8.327
   18        0.203   0.197   7.862   8.262
   19        0.216   0.236   7.895   8.347
   20        0.230   0.266   7.880   8.376
   21        0.235   0.259   7.846   8.339
   22        0.214   0.221   7.835   8.270
   23        0.224   0.232   7.822   8.278
   24        0.239   0.256   7.845   8.339
   25        0.209   0.209   7.848   8.266
   26        0.210   0.218   7.886   8.314
   27        0.216   0.235   7.903   8.354
   28        0.219   0.243   7.901   8.363
   29        0.232   0.259   7.834   8.325
   30        0.267   0.314   7.845   8.426
   31        0.243   0.285   7.817   8.345
   32        0.229   0.243   7.812   8.284
   33        0.216   0.232   7.857   8.306
   34        0.191   0.173   7.861   8.224
   35        0.221   0.245   7.890   8.356
   36        0.217   0.234   7.864   8.315
   37        0.223   0.231   7.829   8.284
   38        0.224   0.238   7.814   8.276
   39        0.237   0.262   7.803   8.302
   40        0.217   0.216   7.841   8.273
   41        0.200   0.190   7.831   8.221
   42        0.208   0.206   7.870   8.283
   43        0.214   0.227   7.873   8.314
   44        0.216   0.234   7.900   8.350
   45        0.229   0.248   7.820   8.297
   46        0.216   0.223   7.845   8.283
   47        0.249   0.278   7.819   8.346
   48        0.227   0.236   7.803   8.265
   49        1.288   2.676   0.004   3.968
   50        1.282   2.663   0.003   3.948
   51        1.293   2.634   0.004   3.930
   52        1.284   2.700   0.008   3.992
   53        1.289   2.662   0.005   3.955
   54        1.296   2.623   0.003   3.922
   55        1.275   2.689   0.004   3.967
   56        1.275   2.696   0.004   3.976
   57        1.267   2.759   0.008   4.034
   58        1.273   2.721   0.005   4.000
   59        1.293   2.655   0.006   3.955
   60        1.287   2.666   0.006   3.959
   61        1.285   2.720   0.006   4.011
   62        1.286   2.691   0.005   3.981
   63        1.288   2.664   0.006   3.958
   64        1.299   2.610   0.004   3.912
   65        1.292   2.646   0.005   3.943
   66        1.288   2.670   0.006   3.964
   67        1.268   2.723   0.006   3.996
   68        1.278   2.669   0.003   3.950
   69        1.274   2.702   0.004   3.981
   70        1.274   2.717   0.006   3.997
   71        1.291   2.646   0.005   3.942
   72        1.293   2.644   0.005   3.943
   73        1.287   2.700   0.005   3.992
   74        1.284   2.660   0.002   3.947
   75        1.289   2.656   0.005   3.950
   76        1.288   2.683   0.007   3.977
   77        1.285   2.704   0.008   3.997
   78        1.285   2.687   0.006   3.978
   79        1.274   2.701   0.004   3.979
   80        1.273   2.709   0.004   3.987
   81        1.268   2.739   0.006   4.013
   82        1.268   2.740   0.006   4.014
   83        1.291   2.645   0.005   3.942
   84        1.288   2.668   0.006   3.963
   85        1.281   2.730   0.006   4.017
   86        1.284   2.705   0.005   3.994
   87        1.286   2.683   0.007   3.977
   88        1.289   2.662   0.005   3.955
   89        1.290   2.664   0.006   3.960
   90        1.285   2.685   0.007   3.977
   91        1.273   2.703   0.004   3.980
   92        1.271   2.706   0.004   3.981
   93        1.277   2.711   0.005   3.993
   94        1.267   2.748   0.007   4.022
   95        1.289   2.660   0.006   3.955
   96        1.291   2.670   0.006   3.968
   97        1.292   2.675   0.004   3.971
   98        1.287   2.670   0.004   3.960
   99        1.292   2.634   0.004   3.930
  100        1.287   2.692   0.007   3.987
  101        1.287   2.688   0.007   3.981
  102        1.290   2.649   0.005   3.944
  103        1.271   2.707   0.005   3.983
  104        1.279   2.677   0.003   3.958
  105        1.275   2.699   0.004   3.978
  106        1.268   2.739   0.006   4.014
  107        1.292   2.648   0.005   3.945
  108        1.288   2.682   0.008   3.977
  109        1.284   2.701   0.005   3.989
  110        1.284   2.681   0.004   3.969
  111        1.287   2.687   0.008   3.982
  112        1.293   2.640   0.005   3.937
  113        1.291   2.646   0.005   3.941
  114        1.285   2.687   0.007   3.979
  115        1.273   2.687   0.003   3.963
  116        1.272   2.716   0.005   3.992
  117        1.275   2.721   0.006   4.001
  118        1.272   2.707   0.005   3.984
  119        1.296   2.625   0.004   3.925
  120        1.289   2.670   0.007   3.966
--------------------------------------------------
tot         103.03  204.49  377.04  684.57
 
magnetization (x)
 
# of ion       s       p       d       tot
------------------------------------------
    1       -0.002  -0.001  -0.887  -0.891
    2        0.001  -0.000   0.530   0.531
    3       -0.002   0.001  -0.541  -0.542
    4       -0.000   0.001  -0.040  -0.040
    5       -0.003   0.007   0.863   0.867
    6       -0.001   0.004   0.982   0.985
    7        0.002   0.003   0.563   0.569
    8       -0.002   0.008   0.319   0.326
    9        0.003   0.006   0.923   0.931
   10        0.006   0.005   0.992   1.003
   11        0.003   0.001   0.420   0.425
   12        0.005   0.003   0.581   0.588
   13        0.000   0.009   0.889   0.899
   14       -0.001   0.003   0.231   0.234
   15       -0.000   0.003   0.771   0.774
   16       -0.002   0.010   1.222   1.230
   17       -0.001   0.003  -0.718  -0.716
   18        0.005   0.005   0.923   0.933
   19       -0.001   0.002  -0.779  -0.778
   20       -0.001   0.001  -0.546  -0.546
   21       -0.002   0.005   0.610   0.612
   22       -0.002   0.005   0.943   0.946
   23        0.000   0.004   0.869   0.874
   24       -0.001   0.011   0.468   0.478
   25       -0.002   0.000  -1.011  -1.012
   26        0.001  -0.000   0.147   0.148
   27       -0.002   0.001  -0.213  -0.214
   28       -0.001   0.001  -0.125  -0.126
   29       -0.000   0.005   0.540   0.544
   30       -0.001   0.010   0.458   0.468
   31       -0.001   0.003   0.299   0.301
   32       -0.001   0.010   0.600   0.608
   33        0.000   0.002   0.004   0.007
   34        0.005   0.006   1.031   1.042
   35       -0.001   0.000  -0.466  -0.467
   36       -0.003   0.001  -0.607  -0.609
   37       -0.001   0.007   0.909   0.915
   38       -0.000   0.003   0.846   0.850
   39        0.001   0.003   0.474   0.478
   40       -0.002   0.011   0.771   0.780
   41       -0.004  -0.002  -1.206  -1.212
   42        0.003   0.006   0.931   0.939
   43        0.003   0.003   0.478   0.484
   44        0.002   0.001   0.531   0.535
   45       -0.002   0.006   0.664   0.669
   46       -0.000   0.008   0.938   0.946
   47        0.000   0.006   0.664   0.670
   48       -0.003   0.009   0.553   0.559
   49        0.002  -0.002   0.000   0.000
   50        0.006   0.001   0.000   0.007
   51        0.006   0.233  -0.000   0.239
   52        0.003  -0.001   0.000   0.002
   53        0.003   0.075   0.000   0.077
   54        0.005   0.203   0.000   0.208
   55        0.004   0.017   0.000   0.021
   56       -0.001  -0.032  -0.000  -0.033
   57       -0.001  -0.024   0.000  -0.025
   58        0.001  -0.030   0.000  -0.028
   59        0.013   0.564  -0.000   0.576
   60        0.010   0.428  -0.000   0.438
   61       -0.001   0.009   0.000   0.009
   62       -0.001  -0.022  -0.000  -0.023
   63        0.006   0.211  -0.000   0.217
   64        0.007   0.260   0.000   0.267
   65        0.007   0.187   0.000   0.194
   66        0.006   0.149   0.000   0.156
   67        0.008   0.046   0.000   0.054
   68        0.004  -0.007   0.000  -0.003
   69        0.006   0.010   0.000   0.016
   70        0.005   0.003   0.000   0.008
   71        0.014   0.598  -0.000   0.612
   72        0.009   0.433  -0.000   0.442
   73       -0.001  -0.000   0.000  -0.001
   74        0.004  -0.003   0.000   0.002
   75        0.006   0.189  -0.000   0.195
   76        0.002   0.006   0.000   0.008
   77        0.002   0.070  -0.000   0.072
   78        0.004   0.116   0.000   0.119
   79        0.004   0.026   0.000   0.031
   80        0.001  -0.015   0.000  -0.014
   81       -0.002  -0.034  -0.000  -0.036
   82       -0.002  -0.045  -0.000  -0.047
   83        0.011   0.501  -0.000   0.512
   84        0.012   0.506  -0.000   0.517
   85       -0.001  -0.003  -0.000  -0.004
   86        0.000  -0.015   0.000  -0.015
   87        0.003   0.076  -0.000   0.079
   88        0.001  -0.017   0.000  -0.016
   89        0.005   0.137   0.000   0.142
   90        0.005   0.090   0.000   0.095
   91        0.003   0.011   0.000   0.014
   92        0.004   0.013   0.000   0.017
   93        0.003  -0.011   0.000  -0.008
   94        0.005  -0.014   0.000  -0.008
   95        0.011   0.497  -0.000   0.508
   96        0.008   0.395  -0.000   0.403
   97       -0.001  -0.018   0.000  -0.018
   98       -0.001  -0.035   0.000  -0.037
   99        0.007   0.271  -0.000   0.279
  100        0.005   0.147   0.000   0.153
  101        0.005   0.155   0.000   0.160
  102        0.004   0.094   0.000   0.098
  103        0.008   0.077   0.000   0.086
  104        0.001  -0.035   0.000  -0.034
  105       -0.001  -0.049   0.000  -0.050
  106       -0.002  -0.039  -0.000  -0.042
  107        0.012   0.512  -0.000   0.524
  108        0.009   0.413  -0.000   0.422
  109        0.002   0.009   0.000   0.012
  110        0.002   0.009   0.000   0.011
  111        0.007   0.193  -0.000   0.199
  112       -0.002  -0.214   0.000  -0.216
  113        0.005   0.161   0.000   0.166
  114        0.007   0.158   0.000   0.165
  115        0.007   0.079   0.000   0.087
  116       -0.002  -0.075  -0.000  -0.078
  117        0.005   0.029   0.000   0.034
  118        0.006   0.010   0.000   0.017
  119        0.013   0.575  -0.000   0.588
  120        0.011   0.489  -0.000   0.500
--------------------------------------------------
tot           0.32    8.90   16.80   26.02
 

 total amount of memory used by VASP MPI-rank0   623665. kBytes
=======================================================================

   base      :      30000. kBytes
   nonlr-proj:      72719. kBytes
   fftplans  :      13422. kBytes
   grid      :      76344. kBytes
   one-center:       3732. kBytes
   wavefun   :     427448. kBytes
 
  
  
 General timing and accounting informations for this job:
 ========================================================
  
                  Total CPU time used (sec):    18343.766
                            User time (sec):    18326.434
                          System time (sec):       17.332
                         Elapsed time (sec):    18393.025
  
                   Maximum memory used (kb):      732000.
                   Average memory used (kb):           0.
  
                          Minor page faults:        44181
                          Major page faults:           17
                 Voluntary context switches:         1157
