 vasp.5.4.4.18Apr17-6-g9f103f2a35 (build May 12 2020 04:58:55) complex          
  
 MD_VERSION_INFO: Compiled 2020-05-12T11:58:55-UTC in devlin.sd.materialsdesign.
 com:/home/medea2/data/build/wwolf/vasp-gpu5.4.4/13047/x86_64/src/src/build/std 
 from svn 13047
 
 This VASP executable licensed from Materials Design, Inc.
 
 executed on                        Lin64 date 2023.03.25  06:57:07
 running on   16 total cores
 distrk:  each k-point on   16 cores,    1 groups
 distr:  one band on NCORES_PER_BAND=   1 cores,   16 groups


--------------------------------------------------------------------------------------------------------


 INCAR:
 POTCAR:    PAW_PBE Ni 02Aug2007                  
 POTCAR:    PAW_PBE O 08Apr2002                   

 ----------------------------------------------------------------------------- 
|                                                                             |
|           W    W    AA    RRRRR   N    N  II  N    N   GGGG   !!!           |
|           W    W   A  A   R    R  NN   N  II  NN   N  G    G  !!!           |
|           W    W  A    A  R    R  N N  N  II  N N  N  G       !!!           |
|           W WW W  AAAAAA  RRRRR   N  N N  II  N  N N  G  GGG   !            |
|           WW  WW  A    A  R   R   N   NN  II  N   NN  G    G                |
|           W    W  A    A  R    R  N    N  II  N    N   GGGG   !!!           |
|                                                                             |
|      For optimal performance we recommend to set                            |
|        NCORE= 4 - approx SQRT( number of cores)                             |
|      NCORE specifies how many cores store one orbital (NPAR=cpu/NCORE).     |
|      This setting can  greatly improve the performance of VASP for DFT.     |
|      The default,   NCORE=1            might be grossly inefficient         |
|      on modern multi-core architectures or massively parallel machines.     |
|      Do your own testing !!!!                                               |
|      Unfortunately you need to use the default for GW and RPA calculations. |
|      (for HF NCORE is supported but not extensively tested yet)             |
|                                                                             |
 ----------------------------------------------------------------------------- 

 POTCAR:    PAW_PBE Ni 02Aug2007                  
  local pseudopotential read in
  partial core-charges read in
  partial kinetic energy density read in
  atomic valenz-charges read in
  non local Contribution for L=           2  read in
    real space projection operators read in
  non local Contribution for L=           2  read in
    real space projection operators read in
  non local Contribution for L=           0  read in
    real space projection operators read in
  non local Contribution for L=           0  read in
    real space projection operators read in
  non local Contribution for L=           1  read in
    real space projection operators read in
  non local Contribution for L=           1  read in
    real space projection operators read in
    PAW grid and wavefunctions read in
 
   number of l-projection  operators is LMAX  =           6
   number of lm-projection operators is LMMAX =          18
 
 POTCAR:    PAW_PBE O 08Apr2002                   
  local pseudopotential read in
  partial core-charges read in
  partial kinetic energy density read in
  kinetic energy density of atom read in
  atomic valenz-charges read in
  non local Contribution for L=           0  read in
    real space projection operators read in
  non local Contribution for L=           0  read in
    real space projection operators read in
  non local Contribution for L=           1  read in
    real space projection operators read in
  non local Contribution for L=           1  read in
    real space projection operators read in
    PAW grid and wavefunctions read in
 
   number of l-projection  operators is LMAX  =           4
   number of lm-projection operators is LMMAX =           8
 
 Optimization of the real space projectors (new method)

 maximal supplied QI-value         = 16.25
 optimisation between [QCUT,QGAM] = [ 11.38, 22.75] = [ 36.24,144.96] Ry 
 Optimized for a Real-space Cutoff    1.47 Angstroem

   l    n(q)    QCUT    max X(q) W(low)/X(q) W(high)/X(q)  e(spline) 
   2      9    11.376    60.317    0.17E-03    0.16E-04    0.16E-06
   2      9    11.376    55.921    0.17E-03    0.16E-04    0.17E-06
   0     10    11.376    51.690    0.45E-04    0.60E-04    0.21E-06
   0     10    11.376    30.015    0.37E-04    0.55E-04    0.19E-06
   1     10    11.376    18.849    0.83E-04    0.11E-03    0.92E-07
   1     10    11.376    14.624    0.69E-04    0.92E-04    0.82E-07
 Optimization of the real space projectors (new method)

 maximal supplied QI-value         = 24.76
 optimisation between [QCUT,QGAM] = [ 11.39, 22.77] = [ 36.31,145.25] Ry 
 Optimized for a Real-space Cutoff    1.10 Angstroem

   l    n(q)    QCUT    max X(q) W(low)/X(q) W(high)/X(q)  e(spline) 
   0      7    11.387    20.381    0.22E-03    0.48E-03    0.18E-06
   0      7    11.387    15.268    0.22E-03    0.52E-03    0.19E-06
   1      7    11.387     5.964    0.22E-03    0.73E-03    0.24E-06
   1      7    11.387     5.382    0.19E-03    0.60E-03    0.21E-06

 ----------------------------------------------------------------------------- 
|                                                                             |
|  ADVICE TO THIS USER RUNNING 'VASP/VAMP'   (HEAR YOUR MASTER'S VOICE ...):  |
|                                                                             |
|      You enforced a specific xc-type in the INCAR file,                     |
|      a different type was found on the POTCAR file                          |
|          I HOPE YOU KNOW, WHAT YOU ARE  DOING                               |
|                                                                             |
 ----------------------------------------------------------------------------- 

  PAW_PBE Ni 02Aug2007                  :
 energy of atom  1       EATOM=-1077.6739
 kinetic energy error for atom=    0.0030 (will be added to EATOM!!)
  PAW_PBE O 08Apr2002                   :
 energy of atom  2       EATOM= -432.3788
 kinetic energy error for atom=    0.0224 (will be added to EATOM!!)
 
 
 POSCAR: Ni2O3_Cmcm_scale_0_975_disp_0_20_round_1
  positions in direct lattice
  No initial velocities read in
 exchange correlation table for  LEXCH =       14
   RHO(1)=    0.500       N(1)  =     2000
   RHO(2)=  100.500       N(2)  =     4000
 


--------------------------------------------------------------------------------------------------------


 ion  position               nearest neighbor table
   1  0.041  0.367  0.041-  55 1.69  56 1.72  62 1.86 104 1.99  52 2.13   8 2.24  17 2.25 110 2.26
                             2 2.42  40 2.77  33 2.79  10 2.90  15 3.01  34 3.03
   2  0.108  0.140  0.973-  50 1.44  51 1.74  56 1.89  55 2.08  34 2.20  79 2.20   1 2.42 104 2.52
                            16 2.56   9 2.76   7 2.79  23 2.82   8 2.95  17 3.01  32 3.02
   3  0.987  0.379  0.471-  58 1.78 109 1.82  61 1.83  57 2.19  53 2.22 105 2.28   6 2.75  35 2.75
                            36 2.75   5 2.90  12 2.91  19 2.94   4 3.03  46 3.07
   4  0.146  0.121  0.554-  54 1.60  57 1.82  58 2.02  73 2.05  49 2.15  13 2.22  82 2.39  36 2.47
                            11 2.68   6 2.68  29 2.74  19 2.98   3 3.03
   5  0.187  0.428  0.633-  90 1.53  82 1.94  61 1.96  58 1.98  66 2.06  28 2.38  59 2.45  19 2.46
                            12 2.90   3 2.90  37 2.92  21 2.94
   6  0.974  0.112  0.396- 105 1.32 113 1.52  60 1.81  49 2.20  57 2.27  65 2.34  43 2.34  36 2.47
                            38 2.65   4 2.68   3 2.75  11 2.93
   7  0.999  0.082  0.154-  64 1.52 112 1.74 104 1.99  60 2.16  50 2.16  56 2.23  41 2.59  39 2.77
                             9 2.79   2 2.79  23 2.86  34 2.98
   8  0.164  0.432  0.909-  62 1.42  63 1.85  55 1.86  79 2.03  87 2.06   1 2.24  59 2.26  17 2.41
                            40 2.41  10 2.70  26 2.76   2 2.95
   9  0.186  0.887  0.058-  67 1.77  64 1.85  74 2.03  50 2.06  68 2.22  23 2.45  92 2.52  25 2.52
                             2 2.76   7 2.79  32 2.80  41 2.85  26 2.89  15 2.95  16 3.04
  10  0.985  0.649  0.970- 110 1.59  63 1.61  67 1.81 115 2.05  68 2.10  62 2.31  40 2.40  42 2.60
                            47 2.66   8 2.70  41 2.84   1 2.90  16 2.93  15 3.06
  11  0.166  0.875  0.462-  65 1.61  69 1.63  73 2.13  93 2.14  49 2.16  70 2.34  43 2.42   4 2.68
                            13 2.85  12 2.93   6 2.93  29 2.99  14 2.99
  12  0.991  0.655  0.562-  70 1.61  69 1.71 109 1.75  66 1.83 118 2.06  61 2.13  37 2.80  28 2.82
                            43 2.89   5 2.90   3 2.91  11 2.93  44 2.93  13 3.04
  13  0.007  0.959  0.630-  49 1.60 102 1.61  54 1.84 118 1.85  70 2.18   4 2.22  71 2.29  36 2.42
                            43 2.78  11 2.85  29 2.95  45 2.96  12 3.04
  14  0.201  0.604  0.357-  77 1.26  72 1.72  93 2.17  53 2.23  69 2.32  61 2.40  30 2.44  15 2.90
                            11 2.99
  15  0.167  0.611  0.154-  72 1.74  68 1.97  52 2.04  76 2.12  92 2.18  62 2.48  47 2.72  26 2.87
                            14 2.90  17 2.91   9 2.95  31 2.97   1 3.01  10 3.06
  16  0.975  0.934  0.888-  99 1.53  71 1.75  50 1.92  51 1.99 115 2.08  67 2.17  34 2.34  48 2.36
                             2 2.56  41 2.73  10 2.93   9 3.04
  17  0.306  0.377  0.051-  79 1.46  62 1.66  76 1.79  56 1.88  86 2.04  80 2.24   1 2.25   8 2.41
                            26 2.70  23 2.86  15 2.91   2 3.01  24 3.04  31 3.05
  18  0.556  0.116  0.978-  75 1.75  80 1.79 103 1.92  98 1.96  74 2.02  32 2.28  48 2.43  34 2.50
                            39 2.64  25 2.65  23 2.76
  19  0.332  0.370  0.488-  57 1.87  82 1.98  61 2.01  85 2.08  81 2.26  77 2.38   5 2.46  28 2.72
                            21 2.84  35 2.87   3 2.94  22 2.94  20 2.98   4 2.98
  20  0.522  0.130  0.563-  78 1.57 106 1.78  97 1.79  73 2.00  81 2.04  82 2.21  29 2.54  45 2.61
                            21 2.79  36 2.85  27 2.88  22 2.96  19 2.98  38 3.04
  21  0.531  0.395  0.648- 106 1.83  82 2.01 114 2.07  83 2.11  85 2.27  90 2.47  37 2.78  20 2.79
                            19 2.84   5 2.94  35 3.01  28 3.03  44 3.06
  22  0.378  0.114  0.373-  81 1.32  89 1.56  84 1.76  65 2.12  73 2.13  57 2.28  38 2.45  27 2.92
                            19 2.94  20 2.96
  23  0.331  0.093  0.117-  80 1.81  64 1.93  84 2.02  74 2.02  56 2.03  88 2.14   9 2.45  25 2.62
                            18 2.76   2 2.82  17 2.86   7 2.86  39 3.00
  24  0.535  0.424  0.889- 111 1.29  86 1.54  83 1.60 103 1.89  87 2.13  33 2.75  26 2.95  40 2.98
                            42 3.01  17 3.04
  25  0.482  0.870  0.055-  91 1.60  88 1.69  74 1.77  92 1.98 116 2.03  98 2.38  32 2.39   9 2.52
                            23 2.62  26 2.64  18 2.65  42 2.71  31 2.94  48 3.07
  26  0.348  0.642  0.985-  92 1.50  87 1.55  86 1.88  62 1.94  91 2.06  67 2.32  25 2.64  17 2.70
                             8 2.76  31 2.76  42 2.85  15 2.87   9 2.89  24 2.95
  27  0.535  0.871  0.457- 117 1.97  89 1.97  93 2.01  94 2.13  97 2.17  73 2.26  44 2.59  38 2.68
                            30 2.83  20 2.88  45 2.91  22 2.92  43 2.96  29 3.02
  28  0.321  0.629  0.572-  90 1.26  93 2.11  70 2.12  61 2.15  94 2.28   5 2.38  85 2.53  19 2.72
                            44 2.80  12 2.82  21 3.03  29 3.06
  29  0.354  0.936  0.635-  78 1.66  94 1.69  73 1.98  54 2.10  95 2.13  20 2.54  45 2.62   4 2.74
                            13 2.95  11 2.99  27 3.02  28 3.06
  30  0.488  0.608  0.368-  77 1.80  96 1.85  93 1.92 101 2.07 117 2.21  85 2.25  14 2.44  46 2.78
                            27 2.83  35 2.89
  31  0.516  0.594  0.148-  92 1.72 116 1.86  96 1.95  76 1.96 100 2.18  42 2.69  26 2.76  47 2.84
                            33 2.88  25 2.94  15 2.97  17 3.05
  32  0.384  0.962  0.909-  74 1.24  75 1.38  91 1.85  51 1.91  18 2.28  25 2.39  95 2.44  48 2.68
                             9 2.80   2 3.02
  33  0.715  0.398  0.049- 100 1.50 103 1.73 110 1.92 104 2.23  86 2.33  42 2.68  47 2.74  24 2.75
                             1 2.79  40 2.84  31 2.88  39 2.93
  34  0.850  0.120  0.966-  50 1.78  98 1.82 104 1.84  99 2.20   2 2.20  55 2.28 103 2.28  16 2.34
                            48 2.44  18 2.50  41 2.60  39 2.98   7 2.98   1 3.03
  35  0.665  0.380  0.452-  85 1.59 101 1.68 106 2.30 109 2.39 105 2.45  81 2.46   3 2.75  46 2.86
                            19 2.87  30 2.89  38 2.97  21 3.01
  36  0.857  0.144  0.554-  97 1.87  49 1.89 105 1.90  58 2.09 106 2.09 102 2.31  13 2.42   4 2.47
                             6 2.47   3 2.75  43 2.76  20 2.85  45 3.00
  37  0.850  0.447  0.674- 114 1.29  66 1.75 107 1.81 109 2.21  58 2.41  21 2.78  12 2.80   5 2.92
                            40 2.95
  38  0.665  0.092  0.369-  89 1.64 113 1.74 105 1.95 108 2.00  81 2.05  97 2.08  22 2.45   6 2.65
                            27 2.68  43 2.89  35 2.97  20 3.04
  39  0.677  0.129  0.149- 108 1.46  80 2.05 112 2.11  88 2.19 104 2.21  98 2.44  18 2.64   7 2.77
                            33 2.93  34 2.98  41 2.99  23 3.00
  40  0.884  0.454  0.881-  63 1.20 107 1.56  55 1.70 110 1.79 111 2.33  10 2.40   8 2.41   1 2.77
                            33 2.84  37 2.95  24 2.98
  41  0.850  0.886  0.062- 115 1.53  98 1.59 112 1.90  68 2.00  50 2.07 116 2.37   7 2.59  34 2.60
                            47 2.70  42 2.70  16 2.73  10 2.84   9 2.85  48 2.85  39 2.99
  42  0.682  0.667  0.994- 116 1.39 115 1.85 110 2.01  91 2.15  86 2.42 111 2.48  47 2.51  10 2.60
                            33 2.68  31 2.69  41 2.70  25 2.71  26 2.85  48 2.99  24 3.01
  43  0.882  0.895  0.454-  49 1.39 113 1.94  69 2.08 118 2.14  97 2.31   6 2.34  11 2.42 117 2.46
                            36 2.76  13 2.78  38 2.89  12 2.89  27 2.96  46 3.01
  44  0.647  0.677  0.567- 117 1.72  94 1.94  85 2.25 114 2.29 118 2.31 109 2.48  45 2.55  27 2.59
                            28 2.80  12 2.93  21 3.06
  45  0.662  0.919  0.645-  78 1.62 102 1.86  94 1.90 118 1.98 119 2.18  97 2.24  44 2.55  20 2.61
                            29 2.62  27 2.91  13 2.96  36 3.00
  46  0.815  0.615  0.363- 120 1.53  53 1.64 101 1.67 117 1.91  30 2.78  35 2.86  43 3.01   3 3.07

  47  0.848  0.625  0.137-  68 1.74  52 1.84 120 1.90 100 1.93 116 2.09 110 2.21  42 2.51  10 2.66
                            41 2.70  15 2.72  33 2.74  31 2.84
  48  0.697  0.938  0.887- 119 1.73  99 1.78  98 1.81 115 1.99  75 2.00  91 2.29  16 2.36  18 2.43
                            34 2.44  32 2.68  41 2.85  42 2.99  25 3.07
  49  0.960  0.975  0.521-  43 1.39  13 1.60  36 1.89   4 2.15  11 2.16   6 2.20
  50  0.016  0.023  0.008-   2 1.44  34 1.78  16 1.92   9 2.06  41 2.07   7 2.16
  51  0.180  0.035  0.882-   2 1.74  32 1.91  16 1.99
  52  0.980  0.477  0.166-  47 1.84  15 2.04   1 2.13
  53  0.963  0.508  0.341-  46 1.64   3 2.22  14 2.23
  54  0.169  0.078  0.662-   4 1.60  13 1.84  29 2.10
  55  0.988  0.320  0.931-   1 1.69  40 1.70   8 1.86   2 2.08  34 2.28
  56  0.161  0.236  0.086-   1 1.72  17 1.88   2 1.89  23 2.03   7 2.23
  57  0.185  0.233  0.452-   4 1.82  19 1.87   3 2.19   6 2.27  22 2.28
  58  0.024  0.300  0.583-   3 1.78   5 1.98   4 2.02  36 2.09  37 2.41
  59  0.154  0.293  0.779-   8 2.26   5 2.45
  60  0.957  0.198  0.282-   6 1.81   7 2.16
  61  0.146  0.498  0.506-   3 1.83   5 1.96  19 2.01  12 2.13  28 2.15  14 2.40
  62  0.191  0.495  0.998-   8 1.42  17 1.66   1 1.86  26 1.94  10 2.31  15 2.48
  63  0.988  0.540  0.883-  40 1.20  10 1.61   8 1.85 110 1.93
  64  0.148  0.995  0.164-   7 1.52   9 1.85  23 1.93
  65  0.191  0.966  0.368-  11 1.61  22 2.12   6 2.34
  66  0.010  0.564  0.674-  37 1.75  12 1.83   5 2.06
  67  0.132  0.787  0.958-   9 1.77  10 1.81  16 2.17  26 2.32
  68  0.001  0.737  0.105-  47 1.74  15 1.97  41 2.00  10 2.10   9 2.22
  69  0.052  0.737  0.461-  11 1.63  12 1.71  43 2.08  14 2.32
  70  0.124  0.757  0.604-  12 1.61  28 2.12  13 2.18  11 2.34
  71  0.994  0.859  0.776-  16 1.75  13 2.29
  72  0.169  0.706  0.259-  14 1.72  15 1.74
  73  0.344  0.019  0.508-  29 1.98  20 2.00   4 2.05  22 2.13  11 2.13  27 2.26
  74  0.364  0.992  0.993-  32 1.24  25 1.77  23 2.02  18 2.02   9 2.03
  75  0.498  0.047  0.869-  32 1.38  18 1.75  48 2.00
  76  0.346  0.456  0.163-  17 1.79  31 1.96  15 2.12
  77  0.308  0.511  0.350-  14 1.26  30 1.80  19 2.38
  78  0.517  0.030  0.651-  20 1.57  45 1.62  29 1.66
  79  0.310  0.287  0.967-  17 1.46   8 2.03   2 2.20
  80  0.487  0.210  0.079-  18 1.79  23 1.81  39 2.05  17 2.24
  81  0.473  0.189  0.428-  22 1.32  20 2.04  38 2.05  19 2.26  35 2.46
  82  0.341  0.279  0.614-   5 1.94  19 1.98  21 2.01  20 2.21   4 2.39
  83  0.509  0.341  0.792-  24 1.60  21 2.11
  84  0.382  0.146  0.251-  22 1.76  23 2.02
  85  0.540  0.484  0.500-  35 1.59  19 2.08  30 2.25  44 2.25  21 2.27  28 2.53
  86  0.482  0.484  0.984-  24 1.54  26 1.88  17 2.04  33 2.33  42 2.42
  87  0.346  0.572  0.887-  26 1.55   8 2.06  24 2.13
  88  0.513  0.951  0.160-  25 1.69  23 2.14  39 2.19
  89  0.505  0.001  0.350-  22 1.56  38 1.64  27 1.97
  90  0.300  0.554  0.644-  28 1.26   5 1.53  21 2.47
  91  0.497  0.807  0.951-  25 1.60  32 1.85  26 2.06  42 2.15  48 2.29
  92  0.379  0.688  0.084-  26 1.50  31 1.72  25 1.98  15 2.18   9 2.52
  93  0.358  0.731  0.442-  30 1.92  27 2.01  28 2.11  11 2.14  14 2.17
  94  0.487  0.814  0.600-  29 1.69  45 1.90  44 1.94  27 2.13  28 2.28
  95  0.319  0.832  0.767-  29 2.13  32 2.44
  96  0.497  0.714  0.259-  30 1.85  31 1.95
  97  0.685  0.039  0.510-  20 1.79  36 1.87  38 2.08  27 2.17  45 2.24  43 2.31
  98  0.722  0.981  0.010-  41 1.59  48 1.81  34 1.82 115 1.93  18 1.96  25 2.38  39 2.44
  99  0.859  0.017  0.828-  16 1.53  48 1.78  34 2.20
 100  0.721  0.456  0.147-  33 1.50  47 1.93  31 2.18
 101  0.687  0.481  0.356-  46 1.67  35 1.68  30 2.07
 102  0.849  0.001  0.686-  13 1.61  45 1.86  36 2.31
 103  0.662  0.292  0.954-  33 1.73  24 1.89  18 1.92  34 2.28
 104  0.883  0.221  0.075-  34 1.84   1 1.99   7 1.99  39 2.21  33 2.23   2 2.52
 105  0.849  0.186  0.423-   6 1.32 113 1.90  36 1.90  38 1.95   3 2.28  35 2.45
 106  0.660  0.263  0.595-  20 1.78  21 1.83  36 2.09  35 2.30
 107  0.847  0.367  0.790-  40 1.56  37 1.81
 108  0.639  0.182  0.242-  39 1.46  38 2.00
 109  0.868  0.516  0.526-  12 1.75   3 1.82  37 2.21  35 2.39  44 2.48
 110  0.862  0.529  0.996-  10 1.59  40 1.79  33 1.92  63 1.93  42 2.01  47 2.21   1 2.26
 111  0.625  0.520  0.853-  24 1.29  40 2.33  42 2.48
 112  0.843  0.972  0.184-   7 1.74  41 1.90  39 2.11
 113  0.851  0.020  0.347-   6 1.52  38 1.74 105 1.90  43 1.94
 114  0.723  0.520  0.682-  37 1.29  21 2.07  44 2.29
 115  0.823  0.810  0.969-  41 1.53  42 1.85  98 1.93  48 1.99  10 2.05  16 2.08
 116  0.645  0.720  0.083-  42 1.39  31 1.86  25 2.03  47 2.09  41 2.37
 117  0.679  0.709  0.450-  44 1.72  46 1.91  27 1.97  30 2.21  43 2.46
 118  0.856  0.828  0.597-  13 1.85  45 1.98  12 2.06  43 2.14  44 2.31
 119  0.657  0.836  0.789-  48 1.73  45 2.18
 120  0.822  0.682  0.265-  46 1.53  47 1.90
 
  LATTYP: Found a simple orthorhombic cell.
 ALAT       =     8.4905632500
 B/A-ratio  =     1.1146370060
 C/A-ratio  =     1.6738812646
  
  Lattice vectors:
  
 A1 = (   8.4905632500,   0.0000000000,   0.0000000000)
 A2 = (   0.0000000000,   9.4638960000,   0.0000000000)
 A3 = (   0.0000000000,   0.0000000000,  14.2121947500)


Analysis of symmetry for initial positions (statically):
=====================================================================
 Subroutine PRICEL returns:
 Original cell was already a primitive cell.
 

 Routine SETGRP: Setting up the symmetry group for a 
 simple orthorhombic supercell.


 Subroutine GETGRP returns: Found  1 space group operations
 (whereof  1 operations were pure point group operations)
 out of a pool of  8 trial point group operations.


The static configuration has the point symmetry C_1 .


Analysis of symmetry for dynamics (positions and initial velocities):
=====================================================================
 Subroutine PRICEL returns:
 Original cell was already a primitive cell.
 

 Routine SETGRP: Setting up the symmetry group for a 
 simple orthorhombic supercell.


 Subroutine GETGRP returns: Found  1 space group operations
 (whereof  1 operations were pure point group operations)
 out of a pool of  8 trial point group operations.


The dynamic configuration has the point symmetry C_1 .


Analysis of structural, dynamic, and magnetic symmetry:
=====================================================================
 Subroutine PRICEL returns:
 Original cell was already a primitive cell.
 

 Routine SETGRP: Setting up the symmetry group for a 
 simple orthorhombic supercell.


 Subroutine GETGRP returns: Found  1 space group operations
 (whereof  1 operations were pure point group operations)
 out of a pool of  8 trial point group operations.


The magnetic configuration has the point symmetry C_1 .


 Subroutine INISYM returns: Found  1 space group operations
 (whereof  1 operations are pure point group operations),
 and found     1 'primitive' translations

 
 
 KPOINTS: Automatic mesh                          

Automatic generation of k-mesh.
Space group operators:
 irot       det(A)        alpha          n_x          n_y          n_z        tau_x        tau_y        tau_z
    1     1.000000     0.000001     1.000000     0.000000     0.000000     0.000000     0.000000     0.000000
 
 Subroutine IBZKPT returns following result:
 ===========================================
 
 Found     10 irreducible k-points:
 
 Following reciprocal coordinates:
            Coordinates               Weight
  0.000000  0.000000  0.000000      1.000000
  0.333333  0.000000  0.000000      2.000000
  0.000000  0.333333  0.000000      2.000000
  0.333333  0.333333  0.000000      2.000000
 -0.333333  0.333333  0.000000      2.000000
  0.000000  0.000000  0.500000      1.000000
  0.333333  0.000000  0.500000      2.000000
  0.000000  0.333333  0.500000      2.000000
  0.333333  0.333333  0.500000      2.000000
 -0.333333  0.333333  0.500000      2.000000
 
 Following cartesian coordinates:
            Coordinates               Weight
  0.000000  0.000000  0.000000      1.000000
  0.039259  0.000000  0.000000      2.000000
  0.000000  0.035222  0.000000      2.000000
  0.039259  0.035222  0.000000      2.000000
 -0.039259  0.035222  0.000000      2.000000
  0.000000  0.000000  0.035181      1.000000
  0.039259  0.000000  0.035181      2.000000
  0.000000  0.035222  0.035181      2.000000
  0.039259  0.035222  0.035181      2.000000
 -0.039259  0.035222  0.035181      2.000000
 


--------------------------------------------------------------------------------------------------------




 Dimension of arrays:
   k-points           NKPTS =     10   k-points in BZ     NKDIM =     10   number of bands    NBANDS=    608
   number of dos      NEDOS =    301   number of ions     NIONS =    120
   non local maximal  LDIM  =      6   non local SUM 2l+1 LMDIM =     18
   total plane-waves  NPLWV = 483840
   max r-space proj   IRMAX =   5738   max aug-charges    IRDMAX=  13931
   dimension x,y,z NGX =    64 NGY =   70 NGZ =  108
   dimension x,y,z NGXF=   128 NGYF=  140 NGZF=  216
   support grid    NGXF=   128 NGYF=  140 NGZF=  216
   ions per type =              48  72
   NGX,Y,Z   is equivalent  to a cutoff of  12.53, 12.30, 12.63 a.u.
   NGXF,Y,Z  is equivalent  to a cutoff of  25.06, 24.59, 25.27 a.u.

 SYSTEM =  unknown system                          
 POSCAR =  Ni2O3_Cmcm_scale_0_975_disp_0_20_round_1

 Startparameter for this run:
   NWRITE =      1    write-flag & timer
   PREC   = accura    normal or accurate (medium, high low for compatibility)
   ISTART =      0    job   : 0-new  1-cont  2-samecut
   ICHARG =      2    charge: 1-file 2-atom 10-const
   ISPIN  =      2    spin polarized calculation?
   LNONCOLLINEAR =      F non collinear calculations
   LSORBIT =      F    spin-orbit coupling
   INIWAV =      1    electr: 0-lowe 1-rand  2-diag
   LASPH  =      F    aspherical Exc in radial PAW
   METAGGA=      F    non-selfconsistent MetaGGA calc.

 Electronic Relaxation 1
   ENCUT  =  500.0 eV  36.75 Ry    6.06 a.u.  15.48 17.25 25.91*2*pi/ulx,y,z
   ENINI  =  500.0     initial cutoff
   ENAUG  =  605.4 eV  augmentation charge cutoff
   NELM   =     80;   NELMIN=  2; NELMDL= -5     # of ELM steps 
   EDIFF  = 0.1E-04   stopping-criterion for ELM
   LREAL  =      T    real-space projection
   NLSPLINE    = F    spline interpolate recip. space projectors
   LCOMPAT=      F    compatible to vasp.4.4
   GGA_COMPAT  = T    GGA compatible to vasp.4.4-vasp.4.6
   LMAXPAW     = -100 max onsite density
   LMAXMIX     =    2 max onsite mixed and CHGCAR
   VOSKOWN=      1    Vosko Wilk Nusair interpolation
   ROPT   =   -0.00025  -0.00025
 Ionic relaxation
   EDIFFG = 0.1E-03   stopping-criterion for IOM
   NSW    =      0    number of steps for IOM
   NBLOCK =      1;   KBLOCK =      1    inner block; outer block 
   IBRION =     -1    ionic relax: 0-MD 1-quasi-New 2-CG
   NFREE  =      0    steps in history (QN), initial steepest desc. (CG)
   ISIF   =      2    stress and relaxation
   IWAVPR =     10    prediction:  0-non 1-charg 2-wave 3-comb
   ISYM   =      2    0-nonsym 1-usesym 2-fastsym
   LCORR  =      T    Harris-Foulkes like correction to forces

   POTIM  = 0.5000    time-step for ionic-motion
   TEIN   =    0.0    initial temperature
   TEBEG  =    0.0;   TEEND  =   0.0 temperature during run
   SMASS  =  -3.00    Nose mass-parameter (am)
   estimated Nose-frequenzy (Omega)   =  0.10E-29 period in steps =****** mass=  -0.165E-26a.u.
   SCALEE = 1.0000    scale energy and forces
   NPACO  =    256;   APACO  = 16.0  distance and # of slots for P.C.
   PSTRESS=    0.0 pullay stress

  Mass of Ions in am
   POMASS =  58.69 16.00
  Ionic Valenz
   ZVAL   =  10.00  6.00
  Atomic Wigner-Seitz radii
   RWIGS  =   1.15  0.73
  virtual crystal weights 
   VCA    =   1.00  1.00
   NELECT =     912.0000    total number of electrons
   NUPDOWN=      -1.0000    fix difference up-down

 DOS related values:
   EMIN   =  10.00;   EMAX   =-10.00  energy-range for DOS
   EFERMI =   0.00
   ISMEAR =     0;   SIGMA  =   0.05  broadening in eV -4-tet -1-fermi 0-gaus

 Electronic relaxation 2 (details)
   IALGO  =     38    algorithm
   LDIAG  =      T    sub-space diagonalisation (order eigenvalues)
   LSUBROT=      F    optimize rotation matrix (better conditioning)
   TURBO    =      0    0=normal 1=particle mesh
   IRESTART =      0    0=no restart 2=restart with 2 vectors
   NREBOOT  =      0    no. of reboots
   NMIN     =      0    reboot dimension
   EREF     =   0.00    reference energy to select bands
   IMIX   =      4    mixing-type and parameters
     AMIX     =   0.40;   BMIX     =  1.00
     AMIX_MAG =   1.60;   BMIX_MAG =  1.00
     AMIN     =   0.10
     WC   =   100.;   INIMIX=   1;  MIXPRE=   1;  MAXMIX= -45

 Intra band minimization:
   WEIMIN = 0.0000     energy-eigenvalue tresh-hold
   EBREAK =  0.41E-08  absolut break condition
   DEPER  =   0.30     relativ break condition  

   TIME   =   0.40     timestep for ELM

  volume/ion in A,a.u.               =       9.52        64.22
  Fermi-wavevector in a.u.,A,eV,Ry     =   1.518858  2.870226 31.387693  2.306930
  Thomas-Fermi vector in A             =   2.627922
 
 Write flags
   LWAVE        =      F    write WAVECAR
   LDOWNSAMPLE  =      F    k-point downsampling of WAVECAR
   LCHARG       =      T    write CHGCAR
   LVTOT        =      F    write LOCPOT, total local potential
   LVHAR        =      F    write LOCPOT, Hartree potential only
   LELF         =      F    write electronic localiz. function (ELF)
   LORBIT       =      0    0 simple, 1 ext, 2 COOP (PROOUT), +10 PAW based schemes


 Dipole corrections
   LMONO  =      F    monopole corrections only (constant potential shift)
   LDIPOL =      F    correct potential (dipole corrections)
   IDIPOL =      0    1-x, 2-y, 3-z, 4-all directions 
   EPSILON=  1.0000000 bulk dielectric constant

 Exchange correlation treatment:
   GGA     =    PS    GGA type
   LEXCH   =    14    internal setting for exchange type
   VOSKOWN=      1    Vosko Wilk Nusair interpolation
   LHFCALC =     F    Hartree Fock is set to
   LHFONE  =     F    Hartree Fock one center treatment
   AEXX    =    0.0000 exact exchange contribution

 Linear response parameters
   LEPSILON=     F    determine dielectric tensor
   LRPA    =     F    only Hartree local field effects (RPA)
   LNABLA  =     F    use nabla operator in PAW spheres
   LVEL    =     F    velocity operator in full k-point grid
   LINTERFAST=   F  fast interpolation
   KINTER  =     0    interpolate to denser k-point grid
   CSHIFT  =0.1000    complex shift for real part using Kramers Kronig
   OMEGAMAX=  -1.0    maximum frequency
   DEG_THRESHOLD= 0.2000000E-02 threshold for treating states as degnerate
   RTIME   =   -0.100 relaxation time in fs
  (WPLASMAI=    0.000 imaginary part of plasma frequency in eV, 0.658/RTIME)
   DFIELD  = 0.0000000 0.0000000 0.0000000 field for delta impulse in time
 
 Orbital magnetization related:
   ORBITALMAG=     F  switch on orbital magnetization
   LCHIMAG   =     F  perturbation theory with respect to B field
   DQ        =  0.001000  dq finite difference perturbation B field
   LLRAUG    =     F  two centre corrections for induced B field



--------------------------------------------------------------------------------------------------------


 Static calculation
 charge density and potential will be updated during run
 spin polarized calculation
 Variant of blocked Davidson
 Davidson routine will perform the subspace rotation
 perform sub-space diagonalisation
    after iterative eigenvector-optimisation
 modified Broyden-mixing scheme, WC =      100.0
 initial mixing is a Kerker type mixing with AMIX =  0.4000 and BMIX =      1.0000
 Hartree-type preconditioning will be used
 using additional bands          152
 real space projection scheme for non local part
 use partial core corrections
 calculate Harris-corrections to forces 
   (improved forces if not selfconsistent)
 use gradient corrections 
 use of overlap-Matrix (Vanderbilt PP)
 Gauss-broadening in eV      SIGMA  =   0.05


--------------------------------------------------------------------------------------------------------


  energy-cutoff  :      500.00
  volume of cell :     1142.00
      direct lattice vectors                 reciprocal lattice vectors
     8.490563250  0.000000000  0.000000000     0.117777816  0.000000000  0.000000000
     0.000000000  9.463896000  0.000000000     0.000000000  0.105664728  0.000000000
     0.000000000  0.000000000 14.212194750     0.000000000  0.000000000  0.070362109

  length of vectors
     8.490563250  9.463896000 14.212194750     0.117777816  0.105664728  0.070362109


 
 k-points in units of 2pi/SCALE and weight: Automatic mesh                          
   0.00000000  0.00000000  0.00000000       0.056
   0.03925927  0.00000000  0.00000000       0.111
   0.00000000  0.03522158  0.00000000       0.111
   0.03925927  0.03522158  0.00000000       0.111
  -0.03925927  0.03522158  0.00000000       0.111
   0.00000000  0.00000000  0.03518105       0.056
   0.03925927  0.00000000  0.03518105       0.111
   0.00000000  0.03522158  0.03518105       0.111
   0.03925927  0.03522158  0.03518105       0.111
  -0.03925927  0.03522158  0.03518105       0.111
 
 k-points in reciprocal lattice and weights: Automatic mesh                          
   0.00000000  0.00000000  0.00000000       0.056
   0.33333333  0.00000000  0.00000000       0.111
   0.00000000  0.33333333  0.00000000       0.111
   0.33333333  0.33333333  0.00000000       0.111
  -0.33333333  0.33333333  0.00000000       0.111
   0.00000000  0.00000000  0.50000000       0.056
   0.33333333  0.00000000  0.50000000       0.111
   0.00000000  0.33333333  0.50000000       0.111
   0.33333333  0.33333333  0.50000000       0.111
  -0.33333333  0.33333333  0.50000000       0.111
 
 position of ions in fractional coordinates (direct lattice) 
   0.04120939  0.36663136  0.04112971
   0.10844318  0.13996851  0.97319432
   0.98735939  0.37934231  0.47079700
   0.14584271  0.12141473  0.55407451
   0.18718945  0.42829041  0.63328931
   0.97363013  0.11196129  0.39613840
   0.99926801  0.08194650  0.15425919
   0.16365134  0.43176805  0.90859919
   0.18578547  0.88705056  0.05825355
   0.98486377  0.64920047  0.96961538
   0.16612941  0.87521636  0.46225749
   0.99103625  0.65484446  0.56166525
   0.00698062  0.95889597  0.62989344
   0.20146262  0.60419646  0.35663739
   0.16688215  0.61115107  0.15386416
   0.97499260  0.93384449  0.88845801
   0.30578644  0.37730226  0.05056145
   0.55599260  0.11628673  0.97793149
   0.33187926  0.36986815  0.48822082
   0.52173961  0.13032594  0.56293415
   0.53086786  0.39542404  0.64794160
   0.37820453  0.11448276  0.37334901
   0.33062940  0.09313389  0.11701358
   0.53503426  0.42364035  0.88874584
   0.48225899  0.87038817  0.05518869
   0.34794758  0.64246672  0.98479919
   0.53493408  0.87123227  0.45740133
   0.32138684  0.62854997  0.57198033
   0.35389092  0.93640931  0.63516697
   0.48818216  0.60778022  0.36816463
   0.51564913  0.59443893  0.14804474
   0.38426469  0.96193562  0.90945483
   0.71473339  0.39751341  0.04880498
   0.85014875  0.12013797  0.96636949
   0.66489159  0.38002803  0.45243648
   0.85655028  0.14421357  0.55378601
   0.85031081  0.44697569  0.67434602
   0.66532874  0.09227699  0.36874269
   0.67726827  0.12883173  0.14850110
   0.88437546  0.45398147  0.88060372
   0.85028766  0.88635135  0.06238754
   0.68162060  0.66661147  0.99413324
   0.88209798  0.89493708  0.45377266
   0.64715635  0.67666751  0.56719470
   0.66168133  0.91857753  0.64534583
   0.81524307  0.61452617  0.36290394
   0.84776252  0.62484231  0.13749520
   0.69655603  0.93817753  0.88724566
   0.96032982  0.97494150  0.52126540
   0.01638448  0.02298653  0.00751216
   0.18025303  0.03516066  0.88202012
   0.98014110  0.47725778  0.16605876
   0.96284123  0.50796051  0.34102708
   0.16925349  0.07814099  0.66178422
   0.98753034  0.32045981  0.93107598
   0.16076623  0.23627048  0.08577258
   0.18492820  0.23319399  0.45238914
   0.02393109  0.30003640  0.58257594
   0.15413528  0.29330299  0.77890292
   0.95705798  0.19776801  0.28239308
   0.14593572  0.49835534  0.50611902
   0.19050202  0.49457533  0.99816297
   0.98767838  0.54007439  0.88317649
   0.14823120  0.99459342  0.16445806
   0.19116998  0.96636332  0.36787354
   0.01024142  0.56386057  0.67446473
   0.13233481  0.78659751  0.95778492
   0.00086672  0.73715539  0.10457528
   0.05186597  0.73740128  0.46065707
   0.12398389  0.75697431  0.60438618
   0.99382936  0.85868665  0.77649991
   0.16883764  0.70642567  0.25853128
   0.34354983  0.01947560  0.50751760
   0.36354763  0.99200282  0.99311893
   0.49764145  0.04733901  0.86888077
   0.34626592  0.45616896  0.16263144
   0.30793997  0.51145948  0.35033334
   0.51740040  0.03034199  0.65116622
   0.30956402  0.28685796  0.96727961
   0.48655047  0.21045663  0.07869943
   0.47307567  0.18949426  0.42766626
   0.34081044  0.27918977  0.61377484
   0.50895286  0.34124638  0.79171920
   0.38200905  0.14559851  0.25110148
   0.54020398  0.48368117  0.49981766
   0.48225685  0.48403883  0.98403927
   0.34604255  0.57220075  0.88650811
   0.51310054  0.95143293  0.15983894
   0.50483041  0.00052251  0.35037753
   0.29956847  0.55411851  0.64435696
   0.49656455  0.80686513  0.95120743
   0.37889091  0.68825986  0.08414850
   0.35811567  0.73126962  0.44243506
   0.48686231  0.81416185  0.59975861
   0.31875408  0.83236322  0.76655949
   0.49736605  0.71408144  0.25887529
   0.68491434  0.03934137  0.51041869
   0.72210483  0.98068447  0.01026443
   0.85872321  0.01715281  0.82774889
   0.72133345  0.45584355  0.14708339
   0.68681761  0.48146393  0.35610795
   0.84871248  0.00087280  0.68565738
   0.66245370  0.29217519  0.95436070
   0.88254542  0.22075916  0.07506584
   0.84920164  0.18629805  0.42283432
   0.66010527  0.26315642  0.59454447
   0.84736015  0.36736455  0.79018403
   0.63942196  0.18178020  0.24232145
   0.86779882  0.51616205  0.52591514
   0.86201928  0.52890705  0.99579839
   0.62468455  0.52034032  0.85297416
   0.84315169  0.97168695  0.18361871
   0.85073642  0.02046630  0.34742429
   0.72273134  0.52001923  0.68189509
   0.82336938  0.80961890  0.96860570
   0.64527444  0.71975716  0.08281529
   0.67938447  0.70925268  0.44973383
   0.85592974  0.82761346  0.59666840
   0.65659516  0.83628122  0.78868025
   0.82205276  0.68216659  0.26486250
 
 position of ions in cartesian coordinates  (Angst):
   0.34989093  3.46976106  0.58454345
   0.92074368  1.32464742 13.83122721
   8.38323735  3.59005617  6.69105865
   1.23828675  1.14905638  7.87461484
   1.58934386  4.05329590  9.00043101
   8.26666820  1.05959000  5.62999609
   8.48434824  0.77553315  2.19236165
   1.38949205  4.08620792 12.91318864
   1.57742328  8.39495425  0.82791080
   8.36204813  6.14396573 13.78036261
   1.41053226  8.28295661  6.56969347
   8.41445596  6.19737987  7.98249592
   0.05926940  9.07489173  8.95216824
   1.71053112  5.71805246  5.06860004
   1.41692345  5.78387017  2.18674741
   8.27823634  8.83780713 12.62693827
   2.59629911  3.57074935  0.71858917
   4.72069034  1.10052552 13.89855279
   2.81784185  3.50039371  6.93868937
   4.42986316  1.23339114  8.00052977
   4.50736714  3.74225199  9.20867221
   3.21116948  1.08345293  5.30610884
   2.80722983  0.88140945  1.66301979
   4.54274223  4.00928821 12.63102896
   4.09465046  8.23726312  0.78435241
   2.95427094  6.08023822 13.99615788
   4.54189164  8.24525160  6.50067678
   2.72875529  5.94853155  8.12909584
   3.00473324  8.86208032  9.02711668
   4.14494151  5.75196879  5.23242742
   4.37815155  5.62570821  2.10404068
   3.26262366  9.10365867 12.92534916
   6.06848905  3.76202557  0.69362588
   7.21824173  1.13697325 13.73423139
   5.64530410  3.59654575  6.43011537
   7.27259433  1.36482223  7.87051462
   7.21961771  4.23013144  9.58393697
   5.64901575  0.87329984  5.24064292
   5.75038908  1.21925009  2.11052655
   7.50884578  4.29643342 12.51531157
   7.21942116  8.38833700  0.88666387
   5.78734282  6.30874162 14.12881521
   7.48950869  8.46959145  6.44910542
   5.49472192  6.40391094  8.06108154
   5.61804718  8.69332221  9.17178062
   6.92187285  5.81581176  5.15766147
   7.19798130  5.91344264  1.95410856
   5.91415303  8.87881457 12.60970811
   8.15374108  9.22674496  7.40832538
   0.13911346  0.21754213  0.10676428
   1.53044975  0.33275683 12.53544172
   8.32195000  4.51671800  2.36005944
   8.17506436  4.80728544  4.84674328
   1.43705746  0.73951820  9.40540622
   8.38468881  3.03279831 13.23263315
   1.36499584  2.23603925  1.21901661
   1.57014458  2.20692367  6.42944256
   0.20318843  2.83951329  8.27968272
   1.30869534  2.77578899 11.06991999
   8.12596131  1.87165588  4.01342545
   1.23907646  4.71638311  7.19306208
   1.61746945  4.68060949 14.18608652
   8.38594576  5.11120786 12.55187627
   1.25856638  9.41272869  2.33730998
   1.62314081  9.14556196  5.22829039
   0.08695542  5.33631779  9.58562409
   1.12359707  7.44427703 13.61222581
   0.00735894  6.97636195  1.48624425
   0.44037130  6.97868902  6.54694799
   1.05269306  7.16392614  8.58965409
   8.43817104  8.12652115 11.03576794
   1.43352666  6.68553907  3.67429690
   2.91693156  0.18431505  7.21293897
   3.08672415  9.38821152 14.11439964
   4.22525621  0.44801147 12.34870272
   2.93999270  4.31713560  2.31134970
   2.61458379  4.84039933  4.97900566
   4.39302082  0.28715344  9.25450113
   2.62837289  2.71479390 13.74716620
   4.13108754  1.99173966  1.11849163
   4.01667890  1.79335397  6.07807618
   2.89367260  2.64222295  8.72308756
   4.32129645  3.22952025 11.25206746
   3.24347200  1.37792916  3.56870314
   4.58663606  4.57750829  7.10350592
   4.09463229  4.58089315 13.98535775
   2.93809616  5.41524839 12.59922591
   4.35651259  9.00426230  2.27166214
   4.28629453  0.00494498  4.97963369
   2.54350504  5.24411995  9.15772660
   4.21611272  7.63608768 13.51874524
   3.21699724  6.51361974  1.19593487
   3.04060375  6.92065963  6.28797324
   4.13373524  7.70514308  8.52388617
   2.70640168  7.87739895 10.89449276
   4.22291791  6.75799248  3.67918604
   5.81530852  0.37232263  7.25416983
   6.13107673  9.28109583  0.14588008
   7.29104373  0.16233241 11.76412843
   6.12452728  4.31405595  2.09037778
   5.83146836  4.55652456  5.06107554
   7.20604699  0.00826009  9.74469622
   5.62460504  2.76511561 13.56356013
   7.49330771  2.08924173  1.06685034
   7.21020024  1.76310537  6.00940370
   5.60466555  2.49048499  8.44978180
   7.19456495  3.47669990 11.23024932
   5.42905259  1.72034891  3.44391964
   7.36810077  4.88490396  7.47440839
   7.31902922  5.00552131 14.15248065
   5.30392368  4.92444667 12.12263488
   7.15883275  9.19594424  2.60962487
   7.22323138  0.19369093  4.93766167
   6.13639616  4.92140791  9.69122582
   6.99086980  7.66214907 13.76601284
   5.47874345  6.81170691  1.17698703
   5.76835681  6.71229360  6.39170478
   7.26732560  7.83244771  8.47996750
   5.57486274  7.91447849 11.20887731
   6.97969095  6.45595366  3.76427743
 


--------------------------------------------------------------------------------------------------------


 k-point  1 :   0.0000 0.0000 0.0000  plane waves:   28987
 k-point  2 :   0.3333 0.0000 0.0000  plane waves:   28977
 k-point  3 :   0.0000 0.3333 0.0000  plane waves:   29012
 k-point  4 :   0.3333 0.3333 0.0000  plane waves:   28999
 k-point  5 :  -0.3333 0.3333 0.0000  plane waves:   28999
 k-point  6 :   0.0000 0.0000 0.5000  plane waves:   29068
 k-point  7 :   0.3333 0.0000 0.5000  plane waves:   29008
 k-point  8 :   0.0000 0.3333 0.5000  plane waves:   28982
 k-point  9 :   0.3333 0.3333 0.5000  plane waves:   28978
 k-point 10 :  -0.3333 0.3333 0.5000  plane waves:   28978

 maximum and minimum number of plane-waves per node :     29068    28977

 maximum number of plane-waves:     29068
 maximum index in each direction: 
   IXMAX=   15   IYMAX=   17   IZMAX=   25
   IXMIN=  -15   IYMIN=  -17   IZMIN=  -26

 The following grids will avoid any aliasing or wrap around errors in the Hartre
 e energy
  - symmetry arguments have not been applied
  - exchange correlation energies might require even more grid points
  - we recommend to set PREC=Normal or Accurate and rely on VASP defaults
 NGX is ok and might be reduce to    64
 NGY is ok and might be reduce to    70
 NGZ is ok and might be reduce to   108

 serial   3D FFT for wavefunctions
 parallel 3D FFT for charge:
    minimum data exchange during FFTs selected (reduces bandwidth)


 total amount of memory used by VASP MPI-rank0   538475. kBytes
=======================================================================

   base      :      30000. kBytes
   nonlr-proj:      65214. kBytes
   fftplans  :      10153. kBytes
   grid      :      58351. kBytes
   one-center:       3732. kBytes
   wavefun   :     371025. kBytes
 
     INWAV:  cpu time    0.0000: real time    0.0000
 Broyden mixing: mesh for mixing (old mesh)
   NGX = 31   NGY = 35   NGZ = 51
  (NGX  =128   NGY  =140   NGZ  =216)
  gives a total of  55335 points

 initial charge density was supplied:
 charge density of overlapping atoms calculated
 number of electron     912.0000000 magnetization     120.0000000
 keeping initial charge density in first step


--------------------------------------------------------------------------------------------------------


 Maximum index for non-local projection operator         5555
 Maximum index for augmentation-charges          964 (set IRDMAX)


--------------------------------------------------------------------------------------------------------


 First call to EWALD:  gamma=   0.170
 Maximum number of real-space cells 3x 3x 2
 Maximum number of reciprocal cells 2x 3x 4

    FEWALD:  cpu time    0.0059: real time    0.0059


--------------------------------------- Iteration      1(   1)  ---------------------------------------


    POTLOK:  cpu time    0.3549: real time    0.5317
    SETDIJ:  cpu time    0.0469: real time    0.0527
     EDDAV:  cpu time  170.6331: real time  171.0391
    --------------------------------------------
      LOOP:  cpu time  171.0379: real time  171.6278

 eigenvalue-minimisations  : 24320
 total energy-change (2. order) : 0.1241697E+05  (-0.3808092E+05)
 number of electron     912.0000000 magnetization     120.0000000
 augmentation part      912.0000000 magnetization     120.0000000

 Free energy of the ion-electron system (eV)
  ---------------------------------------------------
  alpha Z        PSCENC =      3286.56245407
  Ewald energy   TEWEN  =    -53967.08308864
  -Hartree energ DENC   =    -32569.80696269
  -exchange      EXHF   =         0.00000000
  -V(xc)+E(xc)   XCENC  =      3633.25151713
  PAW double counting   =     71080.72462945   -74396.17323249
  entropy T*S    EENTRO =        -0.02061037
  eigenvalues    EBANDS =     12643.69657592
  atomic energy  EATOM  =     82705.81968683
  Solvation  Ediel_sol  =         0.00000000
  ---------------------------------------------------
  free energy    TOTEN  =     12416.97096920 eV

  energy without entropy =    12416.99157958  energy(sigma->0) =    12416.98127439


--------------------------------------------------------------------------------------------------------




--------------------------------------- Iteration      1(   2)  ---------------------------------------


     EDDAV:  cpu time  171.7051: real time  172.1138
    --------------------------------------------
      LOOP:  cpu time  171.7046: real time  172.1120

 eigenvalue-minimisations  : 24320
 total energy-change (2. order) :-0.1020188E+05  (-0.9263935E+04)
 number of electron     912.0000000 magnetization     120.0000000
 augmentation part      912.0000000 magnetization     120.0000000

 Free energy of the ion-electron system (eV)
  ---------------------------------------------------
  alpha Z        PSCENC =      3286.56245407
  Ewald energy   TEWEN  =    -53967.08308864
  -Hartree energ DENC   =    -32569.80696269
  -exchange      EXHF   =         0.00000000
  -V(xc)+E(xc)   XCENC  =      3633.25151713
  PAW double counting   =     71080.72462945   -74396.17323249
  entropy T*S    EENTRO =        -0.04268510
  eigenvalues    EBANDS =      2441.83610083
  atomic energy  EATOM  =     82705.81968683
  Solvation  Ediel_sol  =         0.00000000
  ---------------------------------------------------
  free energy    TOTEN  =      2215.08841939 eV

  energy without entropy =     2215.13110449  energy(sigma->0) =     2215.10976194


--------------------------------------------------------------------------------------------------------




--------------------------------------- Iteration      1(   3)  ---------------------------------------


     EDDAV:  cpu time  172.3603: real time  172.7690
    --------------------------------------------
      LOOP:  cpu time  172.3604: real time  172.7691

 eigenvalue-minimisations  : 24704
 total energy-change (2. order) :-0.2675001E+04  (-0.2343038E+04)
 number of electron     912.0000000 magnetization     120.0000000
 augmentation part      912.0000000 magnetization     120.0000000

 Free energy of the ion-electron system (eV)
  ---------------------------------------------------
  alpha Z        PSCENC =      3286.56245407
  Ewald energy   TEWEN  =    -53967.08308864
  -Hartree energ DENC   =    -32569.80696269
  -exchange      EXHF   =         0.00000000
  -V(xc)+E(xc)   XCENC  =      3633.25151713
  PAW double counting   =     71080.72462945   -74396.17323249
  entropy T*S    EENTRO =        -0.14274575
  eigenvalues    EBANDS =      -233.06435934
  atomic energy  EATOM  =     82705.81968683
  Solvation  Ediel_sol  =         0.00000000
  ---------------------------------------------------
  free energy    TOTEN  =      -459.91210143 eV

  energy without entropy =     -459.76935567  energy(sigma->0) =     -459.84072855


--------------------------------------------------------------------------------------------------------




--------------------------------------- Iteration      1(   4)  ---------------------------------------


     EDDAV:  cpu time  184.3741: real time  184.8112
    --------------------------------------------
      LOOP:  cpu time  184.3740: real time  184.8112

 eigenvalue-minimisations  : 27088
 total energy-change (2. order) :-0.3655263E+03  (-0.3476579E+03)
 number of electron     912.0000000 magnetization     120.0000000
 augmentation part      912.0000000 magnetization     120.0000000

 Free energy of the ion-electron system (eV)
  ---------------------------------------------------
  alpha Z        PSCENC =      3286.56245407
  Ewald energy   TEWEN  =    -53967.08308864
  -Hartree energ DENC   =    -32569.80696269
  -exchange      EXHF   =         0.00000000
  -V(xc)+E(xc)   XCENC  =      3633.25151713
  PAW double counting   =     71080.72462945   -74396.17323249
  entropy T*S    EENTRO =        -0.16539747
  eigenvalues    EBANDS =      -598.56804083
  atomic energy  EATOM  =     82705.81968683
  Solvation  Ediel_sol  =         0.00000000
  ---------------------------------------------------
  free energy    TOTEN  =      -825.43843464 eV

  energy without entropy =     -825.27303717  energy(sigma->0) =     -825.35573590


--------------------------------------------------------------------------------------------------------




--------------------------------------- Iteration      1(   5)  ---------------------------------------


     EDDAV:  cpu time  183.0195: real time  183.4532
    CHARGE:  cpu time    7.5513: real time    7.5783
    MIXING:  cpu time    0.0080: real time    0.0158
    --------------------------------------------
      LOOP:  cpu time  190.5764: real time  191.0448

 eigenvalue-minimisations  : 26832
 total energy-change (2. order) :-0.1209067E+02  (-0.1196347E+02)
 number of electron     912.0000022 magnetization     116.2512117
 augmentation part      305.1544743 magnetization      89.5380488

 Broyden mixing:
  rms(total) = 0.26093E+02    rms(broyden)= 0.26092E+02
  rms(prec ) = 0.27259E+02
  weight for this iteration     100.00

 Free energy of the ion-electron system (eV)
  ---------------------------------------------------
  alpha Z        PSCENC =      3286.56245407
  Ewald energy   TEWEN  =    -53967.08308864
  -Hartree energ DENC   =    -32569.80696269
  -exchange      EXHF   =         0.00000000
  -V(xc)+E(xc)   XCENC  =      3633.25151713
  PAW double counting   =     71080.72462945   -74396.17323249
  entropy T*S    EENTRO =        -0.16653244
  eigenvalues    EBANDS =      -610.65757459
  atomic energy  EATOM  =     82705.81968683
  Solvation  Ediel_sol  =         0.00000000
  ---------------------------------------------------
  free energy    TOTEN  =      -837.52910337 eV

  energy without entropy =     -837.36257093  energy(sigma->0) =     -837.44583715


--------------------------------------------------------------------------------------------------------




--------------------------------------- Iteration      1(   6)  ---------------------------------------


    POTLOK:  cpu time    0.3364: real time    0.3372
    SETDIJ:  cpu time    0.0463: real time    0.0464
     EDDAV:  cpu time  239.3274: real time  239.8945
    CHARGE:  cpu time    6.0372: real time    6.0515
    MIXING:  cpu time    0.0087: real time    0.0383
    --------------------------------------------
      LOOP:  cpu time  245.7560: real time  246.3679

 eigenvalue-minimisations  : 37792
 total energy-change (2. order) :-0.1421141E+03  (-0.1520815E+03)
 number of electron     912.0000061 magnetization     106.5395824
 augmentation part      382.6494550 magnetization      97.8694470

 Broyden mixing:
  rms(total) = 0.30815E+02    rms(broyden)= 0.30813E+02
  rms(prec ) = 0.33199E+02
  weight for this iteration     100.00

 eigenvalues of (default mixing * dielectric matrix)
  average eigenvalue GAMMA=   0.3390
  0.3390

 Free energy of the ion-electron system (eV)
  ---------------------------------------------------
  alpha Z        PSCENC =      3286.56245407
  Ewald energy   TEWEN  =    -53967.08308864
  -Hartree energ DENC   =    -31402.38836892
  -exchange      EXHF   =         0.00000000
  -V(xc)+E(xc)   XCENC  =      3637.89232831
  PAW double counting   =     83299.65527602   -86257.78909204
  entropy T*S    EENTRO =        -0.07862446
  eigenvalues    EBANDS =     -2282.23381226
  atomic energy  EATOM  =     82705.81968683
  Solvation  Ediel_sol  =         0.00000000
  ---------------------------------------------------
  free energy    TOTEN  =      -979.64324109 eV

  energy without entropy =     -979.56461663  energy(sigma->0) =     -979.60392886


--------------------------------------------------------------------------------------------------------




--------------------------------------- Iteration      1(   7)  ---------------------------------------


    POTLOK:  cpu time    0.3361: real time    0.3369
    SETDIJ:  cpu time    0.0466: real time    0.0468
     EDDAV:  cpu time  201.4581: real time  201.9354
    CHARGE:  cpu time    7.3627: real time    7.3802
    MIXING:  cpu time    0.0082: real time    0.0206
    --------------------------------------------
      LOOP:  cpu time  209.2117: real time  209.7198

 eigenvalue-minimisations  : 31344
 total energy-change (2. order) : 0.3113932E+03  (-0.6810025E+02)
 number of electron     912.0000028 magnetization      95.8776124
 augmentation part      345.9464794 magnetization      80.9434944

 Broyden mixing:
  rms(total) = 0.18949E+02    rms(broyden)= 0.18947E+02
  rms(prec ) = 0.22431E+02
  weight for this iteration     100.00

 eigenvalues of (default mixing * dielectric matrix)
  average eigenvalue GAMMA=   0.5115
  0.6030  0.4200

 Free energy of the ion-electron system (eV)
  ---------------------------------------------------
  alpha Z        PSCENC =      3286.56245407
  Ewald energy   TEWEN  =    -53967.08308864
  -Hartree energ DENC   =    -32085.19591670
  -exchange      EXHF   =         0.00000000
  -V(xc)+E(xc)   XCENC  =      3623.96430479
  PAW double counting   =     88242.87320508   -91558.81635712
  entropy T*S    EENTRO =        -0.08911002
  eigenvalues    EBANDS =      -916.28525658
  atomic energy  EATOM  =     82705.81968683
  Solvation  Ediel_sol  =         0.00000000
  ---------------------------------------------------
  free energy    TOTEN  =      -668.25007829 eV

  energy without entropy =     -668.16096827  energy(sigma->0) =     -668.20552328


--------------------------------------------------------------------------------------------------------




--------------------------------------- Iteration      1(   8)  ---------------------------------------


    POTLOK:  cpu time    0.3322: real time    0.3330
    SETDIJ:  cpu time    0.0465: real time    0.0466
     EDDAV:  cpu time  198.1350: real time  198.6260
    CHARGE:  cpu time    6.8870: real time    6.9034
    MIXING:  cpu time    0.0065: real time    0.0065
    --------------------------------------------
      LOOP:  cpu time  205.4073: real time  205.9156

 eigenvalue-minimisations  : 28608
 total energy-change (2. order) :-0.3496156E+03  (-0.7092087E+02)
 number of electron     912.0000060 magnetization      82.7819401
 augmentation part      317.6645175 magnetization      74.8404812

 Broyden mixing:
  rms(total) = 0.26544E+02    rms(broyden)= 0.26543E+02
  rms(prec ) = 0.37346E+02
  weight for this iteration     100.00

 eigenvalues of (default mixing * dielectric matrix)
  average eigenvalue GAMMA=   0.5697
  1.1075  0.4302  0.1715

 Free energy of the ion-electron system (eV)
  ---------------------------------------------------
  alpha Z        PSCENC =      3286.56245407
  Ewald energy   TEWEN  =    -53967.08308864
  -Hartree energ DENC   =    -32240.24433388
  -exchange      EXHF   =         0.00000000
  -V(xc)+E(xc)   XCENC  =      3626.82366967
  PAW double counting   =     93245.49869359   -96768.88222495
  entropy T*S    EENTRO =        -0.08076945
  eigenvalues    EBANDS =      -906.27974870
  atomic energy  EATOM  =     82705.81968683
  Solvation  Ediel_sol  =         0.00000000
  ---------------------------------------------------
  free energy    TOTEN  =     -1017.86566147 eV

  energy without entropy =    -1017.78489202  energy(sigma->0) =    -1017.82527674


--------------------------------------------------------------------------------------------------------




--------------------------------------- Iteration      1(   9)  ---------------------------------------


    POTLOK:  cpu time    0.2787: real time    0.2794
    SETDIJ:  cpu time    0.0436: real time    0.0437
     EDDAV:  cpu time  199.5750: real time  200.0479
    CHARGE:  cpu time    5.8555: real time    5.8694
    MIXING:  cpu time    0.0080: real time    0.0095
    --------------------------------------------
      LOOP:  cpu time  205.7609: real time  206.2499

 eigenvalue-minimisations  : 31424
 total energy-change (2. order) :-0.1123967E+03  (-0.7358160E+02)
 number of electron     912.0000038 magnetization      69.4120961
 augmentation part      324.8892180 magnetization      61.3623286

 Broyden mixing:
  rms(total) = 0.27928E+02    rms(broyden)= 0.27927E+02
  rms(prec ) = 0.36643E+02
  weight for this iteration     100.00

 eigenvalues of (default mixing * dielectric matrix)
  average eigenvalue GAMMA=   0.5688
  1.5197  0.4076  0.2221  0.1259

 Free energy of the ion-electron system (eV)
  ---------------------------------------------------
  alpha Z        PSCENC =      3286.56245407
  Ewald energy   TEWEN  =    -53967.08308864
  -Hartree energ DENC   =    -31912.00523153
  -exchange      EXHF   =         0.00000000
  -V(xc)+E(xc)   XCENC  =      3636.06962929
  PAW double counting   =     98361.11012592  -101970.57251175
  entropy T*S    EENTRO =        -0.02694342
  eigenvalues    EBANDS =     -1270.13647906
  atomic energy  EATOM  =     82705.81968683
  Solvation  Ediel_sol  =         0.00000000
  ---------------------------------------------------
  free energy    TOTEN  =     -1130.26235828 eV

  energy without entropy =    -1130.23541487  energy(sigma->0) =    -1130.24888658


--------------------------------------------------------------------------------------------------------




--------------------------------------- Iteration      1(  10)  ---------------------------------------


    POTLOK:  cpu time    0.3263: real time    0.3271
    SETDIJ:  cpu time    0.0455: real time    0.0456
     EDDAV:  cpu time  206.4964: real time  206.9857
    CHARGE:  cpu time    5.6991: real time    5.7126
    MIXING:  cpu time    0.0066: real time    0.0066
    --------------------------------------------
      LOOP:  cpu time  212.5739: real time  213.0776

 eigenvalue-minimisations  : 32528
 total energy-change (2. order) : 0.3502506E+03  (-0.4797422E+02)
 number of electron     912.0000017 magnetization      61.4641440
 augmentation part      331.1109634 magnetization      46.9392515

 Broyden mixing:
  rms(total) = 0.20772E+02    rms(broyden)= 0.20771E+02
  rms(prec ) = 0.26412E+02
  weight for this iteration     100.00

 eigenvalues of (default mixing * dielectric matrix)
  average eigenvalue GAMMA=   0.5630
  1.8031  0.4103  0.2387  0.2387  0.1243

 Free energy of the ion-electron system (eV)
  ---------------------------------------------------
  alpha Z        PSCENC =      3286.56245407
  Ewald energy   TEWEN  =    -53967.08308864
  -Hartree energ DENC   =    -31878.10644403
  -exchange      EXHF   =         0.00000000
  -V(xc)+E(xc)   XCENC  =      3648.50217432
  PAW double counting   =    103623.23024841  -107321.16643966
  entropy T*S    EENTRO =        -0.08228725
  eigenvalues    EBANDS =      -877.68808156
  atomic energy  EATOM  =     82705.81968683
  Solvation  Ediel_sol  =         0.00000000
  ---------------------------------------------------
  free energy    TOTEN  =      -780.01177752 eV

  energy without entropy =     -779.92949027  energy(sigma->0) =     -779.97063389


--------------------------------------------------------------------------------------------------------




--------------------------------------- Iteration      1(  11)  ---------------------------------------


    POTLOK:  cpu time    0.3021: real time    0.3029
    SETDIJ:  cpu time    0.0463: real time    0.0464
     EDDAV:  cpu time  203.1201: real time  203.6013
    CHARGE:  cpu time    7.1279: real time    7.1449
    MIXING:  cpu time    0.0081: real time    0.0081
    --------------------------------------------
      LOOP:  cpu time  210.6045: real time  211.1035

 eigenvalue-minimisations  : 31840
 total energy-change (2. order) : 0.9894420E+02  (-0.2444034E+02)
 number of electron     912.0000057 magnetization      55.3534330
 augmentation part      335.2776238 magnetization      42.7677152

 Broyden mixing:
  rms(total) = 0.16886E+02    rms(broyden)= 0.16885E+02
  rms(prec ) = 0.21255E+02
  weight for this iteration     100.00

 eigenvalues of (default mixing * dielectric matrix)
  average eigenvalue GAMMA=   0.5403
  1.9258  0.4621  0.2959  0.2959  0.1549  0.1073

 Free energy of the ion-electron system (eV)
  ---------------------------------------------------
  alpha Z        PSCENC =      3286.56245407
  Ewald energy   TEWEN  =    -53967.08308864
  -Hartree energ DENC   =    -31855.91929663
  -exchange      EXHF   =         0.00000000
  -V(xc)+E(xc)   XCENC  =      3647.68534431
  PAW double counting   =    106417.19963422  -110150.41128804
  entropy T*S    EENTRO =        -0.08917784
  eigenvalues    EBANDS =      -764.83184414
  atomic energy  EATOM  =     82705.81968683
  Solvation  Ediel_sol  =         0.00000000
  ---------------------------------------------------
  free energy    TOTEN  =      -681.06757586 eV

  energy without entropy =     -680.97839801  energy(sigma->0) =     -681.02298693


--------------------------------------------------------------------------------------------------------




--------------------------------------- Iteration      1(  12)  ---------------------------------------


    POTLOK:  cpu time    0.3023: real time    0.3030
    SETDIJ:  cpu time    0.0437: real time    0.0438
     EDDAV:  cpu time  188.1975: real time  188.6433
    CHARGE:  cpu time    6.9930: real time    7.0096
    MIXING:  cpu time    0.0080: real time    0.0080
    --------------------------------------------
      LOOP:  cpu time  195.5444: real time  196.0076

 eigenvalue-minimisations  : 29120
 total energy-change (2. order) :-0.5667694E+01  (-0.2669199E+02)
 number of electron     912.0000013 magnetization      52.0101498
 augmentation part      335.3592898 magnetization      41.0364920

 Broyden mixing:
  rms(total) = 0.16945E+02    rms(broyden)= 0.16943E+02
  rms(prec ) = 0.21504E+02
  weight for this iteration     100.00

 eigenvalues of (default mixing * dielectric matrix)
  average eigenvalue GAMMA=   0.5072
  1.9715  0.4259  0.3680  0.3680  0.1480  0.1480  0.1210

 Free energy of the ion-electron system (eV)
  ---------------------------------------------------
  alpha Z        PSCENC =      3286.56245407
  Ewald energy   TEWEN  =    -53967.08308864
  -Hartree energ DENC   =    -31828.75916730
  -exchange      EXHF   =         0.00000000
  -V(xc)+E(xc)   XCENC  =      3640.30648779
  PAW double counting   =    107814.81260873  -111546.99555645
  entropy T*S    EENTRO =        -0.07863847
  eigenvalues    EBANDS =      -791.32005612
  atomic energy  EATOM  =     82705.81968683
  Solvation  Ediel_sol  =         0.00000000
  ---------------------------------------------------
  free energy    TOTEN  =      -686.73526956 eV

  energy without entropy =     -686.65663109  energy(sigma->0) =     -686.69595032


--------------------------------------------------------------------------------------------------------




--------------------------------------- Iteration      1(  13)  ---------------------------------------


    POTLOK:  cpu time    0.3027: real time    0.3034
    SETDIJ:  cpu time    0.0442: real time    0.0443
     EDDAV:  cpu time  195.6608: real time  196.1244
    CHARGE:  cpu time    5.9842: real time    5.9984
    MIXING:  cpu time    0.0094: real time    0.0095
    --------------------------------------------
      LOOP:  cpu time  202.0013: real time  202.4799

 eigenvalue-minimisations  : 30464
 total energy-change (2. order) : 0.3829599E+02  (-0.1949848E+02)
 number of electron     912.0000067 magnetization      50.8640620
 augmentation part      335.7143164 magnetization      39.9151747

 Broyden mixing:
  rms(total) = 0.14011E+02    rms(broyden)= 0.14009E+02
  rms(prec ) = 0.18892E+02
  weight for this iteration     100.00

 eigenvalues of (default mixing * dielectric matrix)
  average eigenvalue GAMMA=   0.4687
  1.9097  0.4522  0.4522  0.3538  0.1798  0.1798  0.1072  0.1148

 Free energy of the ion-electron system (eV)
  ---------------------------------------------------
  alpha Z        PSCENC =      3286.56245407
  Ewald energy   TEWEN  =    -53967.08308864
  -Hartree energ DENC   =    -31847.15938339
  -exchange      EXHF   =         0.00000000
  -V(xc)+E(xc)   XCENC  =      3632.99231659
  PAW double counting   =    108161.29441480  -111887.34796263
  entropy T*S    EENTRO =        -0.10889192
  eigenvalues    EBANDS =      -733.40882883
  atomic energy  EATOM  =     82705.81968683
  Solvation  Ediel_sol  =         0.00000000
  ---------------------------------------------------
  free energy    TOTEN  =      -648.43928313 eV

  energy without entropy =     -648.33039120  energy(sigma->0) =     -648.38483716


--------------------------------------------------------------------------------------------------------




--------------------------------------- Iteration      1(  14)  ---------------------------------------


    POTLOK:  cpu time    0.3243: real time    0.3251
    SETDIJ:  cpu time    0.0452: real time    0.0453
     EDDAV:  cpu time  200.6729: real time  201.1484
    CHARGE:  cpu time    7.1827: real time    7.1997
    MIXING:  cpu time    0.0102: real time    0.0103
    --------------------------------------------
      LOOP:  cpu time  208.2354: real time  208.7288

 eigenvalue-minimisations  : 30992
 total energy-change (2. order) : 0.7102076E+02  (-0.9955903E+01)
 number of electron     912.0000042 magnetization      50.8693192
 augmentation part      338.8125749 magnetization      38.3889199

 Broyden mixing:
  rms(total) = 0.90850E+01    rms(broyden)= 0.90837E+01
  rms(prec ) = 0.11380E+02
  weight for this iteration     100.00

 eigenvalues of (default mixing * dielectric matrix)
  average eigenvalue GAMMA=   0.4302
  1.7704  0.4944  0.4944  0.3380  0.2062  0.2062  0.1401  0.1109  0.1109

 Free energy of the ion-electron system (eV)
  ---------------------------------------------------
  alpha Z        PSCENC =      3286.56245407
  Ewald energy   TEWEN  =    -53967.08308864
  -Hartree energ DENC   =    -31863.24131898
  -exchange      EXHF   =         0.00000000
  -V(xc)+E(xc)   XCENC  =      3626.28628748
  PAW double counting   =    107775.30308823  -111487.10800368
  entropy T*S    EENTRO =        -0.10045648
  eigenvalues    EBANDS =      -653.85717219
  atomic energy  EATOM  =     82705.81968683
  Solvation  Ediel_sol  =         0.00000000
  ---------------------------------------------------
  free energy    TOTEN  =      -577.41852336 eV

  energy without entropy =     -577.31806688  energy(sigma->0) =     -577.36829512


--------------------------------------------------------------------------------------------------------




--------------------------------------- Iteration      1(  15)  ---------------------------------------


    POTLOK:  cpu time    0.3478: real time    0.3745
    SETDIJ:  cpu time    0.0474: real time    0.0475
     EDDAV:  cpu time  214.0753: real time  214.5872
    CHARGE:  cpu time    7.2182: real time    7.2353
    MIXING:  cpu time    0.0098: real time    0.0098
    --------------------------------------------
      LOOP:  cpu time  221.6984: real time  222.2542

 eigenvalue-minimisations  : 32736
 total energy-change (2. order) : 0.1931407E+02  (-0.5319518E+01)
 number of electron     912.0000042 magnetization      50.2230742
 augmentation part      338.1175991 magnetization      38.1019688

 Broyden mixing:
  rms(total) = 0.67556E+01    rms(broyden)= 0.67545E+01
  rms(prec ) = 0.80333E+01
  weight for this iteration     100.00

 eigenvalues of (default mixing * dielectric matrix)
  average eigenvalue GAMMA=   0.4098
  1.6270  0.5744  0.5744  0.3114  0.3114  0.1834  0.1834  0.1184  0.1184  0.0963

 Free energy of the ion-electron system (eV)
  ---------------------------------------------------
  alpha Z        PSCENC =      3286.56245407
  Ewald energy   TEWEN  =    -53967.08308864
  -Hartree energ DENC   =    -31883.22915445
  -exchange      EXHF   =         0.00000000
  -V(xc)+E(xc)   XCENC  =      3621.90251600
  PAW double counting   =    107230.30582343  -110928.87933947
  entropy T*S    EENTRO =        -0.12096740
  eigenvalues    EBANDS =      -623.38238278
  atomic energy  EATOM  =     82705.81968683
  Solvation  Ediel_sol  =         0.00000000
  ---------------------------------------------------
  free energy    TOTEN  =      -558.10445242 eV

  energy without entropy =     -557.98348501  energy(sigma->0) =     -558.04396872


--------------------------------------------------------------------------------------------------------




--------------------------------------- Iteration      1(  16)  ---------------------------------------


    POTLOK:  cpu time    0.3282: real time    0.3290
    SETDIJ:  cpu time    0.0468: real time    0.0469
     EDDAV:  cpu time  199.7758: real time  200.2492
    CHARGE:  cpu time    5.7994: real time    5.8131
    MIXING:  cpu time    0.0165: real time    0.1242
    --------------------------------------------
      LOOP:  cpu time  205.9667: real time  206.5624

 eigenvalue-minimisations  : 32336
 total energy-change (2. order) :-0.9705118E+01  (-0.4087961E+01)
 number of electron     912.0000038 magnetization      48.7581978
 augmentation part      335.8610914 magnetization      38.1280221

 Broyden mixing:
  rms(total) = 0.59671E+01    rms(broyden)= 0.59661E+01
  rms(prec ) = 0.70239E+01
  weight for this iteration     100.00

 eigenvalues of (default mixing * dielectric matrix)
  average eigenvalue GAMMA=   0.3994
  1.5573  0.6386  0.6386  0.3557  0.3557  0.1849  0.1849  0.1330  0.1330  0.1057
  0.1057

 Free energy of the ion-electron system (eV)
  ---------------------------------------------------
  alpha Z        PSCENC =      3286.56245407
  Ewald energy   TEWEN  =    -53967.08308864
  -Hartree energ DENC   =    -31909.46886703
  -exchange      EXHF   =         0.00000000
  -V(xc)+E(xc)   XCENC  =      3616.57517915
  PAW double counting   =    106645.39511775  -110327.25105687
  entropy T*S    EENTRO =        -0.12264508
  eigenvalues    EBANDS =      -618.23635067
  atomic energy  EATOM  =     82705.81968683
  Solvation  Ediel_sol  =         0.00000000
  ---------------------------------------------------
  free energy    TOTEN  =      -567.80957048 eV

  energy without entropy =     -567.68692540  energy(sigma->0) =     -567.74824794


--------------------------------------------------------------------------------------------------------




--------------------------------------- Iteration      1(  17)  ---------------------------------------


    POTLOK:  cpu time    0.3267: real time    0.3275
    SETDIJ:  cpu time    0.0456: real time    0.0457
     EDDAV:  cpu time  188.3272: real time  188.7733
    CHARGE:  cpu time    7.2837: real time    7.3241
    MIXING:  cpu time    0.0120: real time    0.0244
    --------------------------------------------
      LOOP:  cpu time  195.9953: real time  196.4950

 eigenvalue-minimisations  : 29664
 total energy-change (2. order) : 0.2285713E+01  (-0.2361713E+01)
 number of electron     912.0000037 magnetization      46.7927421
 augmentation part      336.3751485 magnetization      35.7918305

 Broyden mixing:
  rms(total) = 0.46435E+01    rms(broyden)= 0.46425E+01
  rms(prec ) = 0.54246E+01
  weight for this iteration     100.00

 eigenvalues of (default mixing * dielectric matrix)
  average eigenvalue GAMMA=   0.3938
  1.5114  0.6500  0.6500  0.4359  0.4359  0.2099  0.2099  0.1777  0.1242  0.1146
  0.1146  0.0920

 Free energy of the ion-electron system (eV)
  ---------------------------------------------------
  alpha Z        PSCENC =      3286.56245407
  Ewald energy   TEWEN  =    -53967.08308864
  -Hartree energ DENC   =    -31910.60087965
  -exchange      EXHF   =         0.00000000
  -V(xc)+E(xc)   XCENC  =      3614.25130855
  PAW double counting   =    106562.02938038  -110232.80117686
  entropy T*S    EENTRO =        -0.11477591
  eigenvalues    EBANDS =      -623.58676606
  atomic energy  EATOM  =     82705.81968683
  Solvation  Ediel_sol  =         0.00000000
  ---------------------------------------------------
  free energy    TOTEN  =      -565.52385729 eV

  energy without entropy =     -565.40908138  energy(sigma->0) =     -565.46646933


--------------------------------------------------------------------------------------------------------




--------------------------------------- Iteration      1(  18)  ---------------------------------------


    POTLOK:  cpu time    0.3264: real time    0.3271
    SETDIJ:  cpu time    0.0459: real time    0.0460
     EDDAV:  cpu time  190.3365: real time  190.7874
    CHARGE:  cpu time    7.0478: real time    7.0645
    MIXING:  cpu time    0.0104: real time    0.0104
    --------------------------------------------
      LOOP:  cpu time  197.7669: real time  198.2354

 eigenvalue-minimisations  : 28944
 total energy-change (2. order) :-0.1696253E+01  (-0.1364417E+01)
 number of electron     912.0000042 magnetization      44.4892684
 augmentation part      337.2623750 magnetization      32.4729587

 Broyden mixing:
  rms(total) = 0.51507E+01    rms(broyden)= 0.51501E+01
  rms(prec ) = 0.61672E+01
  weight for this iteration     100.00

 eigenvalues of (default mixing * dielectric matrix)
  average eigenvalue GAMMA=   0.3946
  1.4821  0.7523  0.7523  0.4693  0.4693  0.2602  0.1949  0.1949  0.1356  0.1113
  0.1113  0.1049  0.0909

 Free energy of the ion-electron system (eV)
  ---------------------------------------------------
  alpha Z        PSCENC =      3286.56245407
  Ewald energy   TEWEN  =    -53967.08308864
  -Hartree energ DENC   =    -31890.76848450
  -exchange      EXHF   =         0.00000000
  -V(xc)+E(xc)   XCENC  =      3612.43022578
  PAW double counting   =    106628.84170064  -110284.46517764
  entropy T*S    EENTRO =        -0.12502540
  eigenvalues    EBANDS =      -658.43240125
  atomic energy  EATOM  =     82705.81968683
  Solvation  Ediel_sol  =         0.00000000
  ---------------------------------------------------
  free energy    TOTEN  =      -567.22011011 eV

  energy without entropy =     -567.09508471  energy(sigma->0) =     -567.15759741


--------------------------------------------------------------------------------------------------------




--------------------------------------- Iteration      1(  19)  ---------------------------------------


    POTLOK:  cpu time    0.3042: real time    0.3050
    SETDIJ:  cpu time    0.0451: real time    0.0452
     EDDAV:  cpu time  200.0901: real time  200.5640
    CHARGE:  cpu time    7.2828: real time    7.3001
    MIXING:  cpu time    0.0116: real time    0.0116
    --------------------------------------------
      LOOP:  cpu time  207.7338: real time  208.2259

 eigenvalue-minimisations  : 30992
 total energy-change (2. order) :-0.1936991E+01  (-0.2167985E+01)
 number of electron     912.0000039 magnetization      42.1703735
 augmentation part      338.4030107 magnetization      30.4443768

 Broyden mixing:
  rms(total) = 0.34974E+01    rms(broyden)= 0.34969E+01
  rms(prec ) = 0.40151E+01
  weight for this iteration     100.00

 eigenvalues of (default mixing * dielectric matrix)
  average eigenvalue GAMMA=   0.4041
  1.3899  0.9284  0.9284  0.4809  0.4809  0.3492  0.2009  0.2009  0.1621  0.1168
  0.1168  0.1058  0.1058  0.0899

 Free energy of the ion-electron system (eV)
  ---------------------------------------------------
  alpha Z        PSCENC =      3286.56245407
  Ewald energy   TEWEN  =    -53967.08308864
  -Hartree energ DENC   =    -31886.64690180
  -exchange      EXHF   =         0.00000000
  -V(xc)+E(xc)   XCENC  =      3610.06917338
  PAW double counting   =    106744.04359674  -110386.21376165
  entropy T*S    EENTRO =        -0.12174623
  eigenvalues    EBANDS =      -675.58651376
  atomic energy  EATOM  =     82705.81968683
  Solvation  Ediel_sol  =         0.00000000
  ---------------------------------------------------
  free energy    TOTEN  =      -569.15710106 eV

  energy without entropy =     -569.03535483  energy(sigma->0) =     -569.09622794


--------------------------------------------------------------------------------------------------------




--------------------------------------- Iteration      1(  20)  ---------------------------------------


    POTLOK:  cpu time    0.3285: real time    0.3293
    SETDIJ:  cpu time    0.0465: real time    0.0466
     EDDAV:  cpu time  193.0754: real time  193.5327
    CHARGE:  cpu time    7.2713: real time    7.2886
    MIXING:  cpu time    0.0115: real time    0.0116
    --------------------------------------------
      LOOP:  cpu time  200.7333: real time  201.2088

 eigenvalue-minimisations  : 29376
 total energy-change (2. order) :-0.4292852E+01  (-0.9127452E+00)
 number of electron     912.0000040 magnetization      39.8795821
 augmentation part      337.6076563 magnetization      28.6536175

 Broyden mixing:
  rms(total) = 0.33102E+01    rms(broyden)= 0.33097E+01
  rms(prec ) = 0.38779E+01
  weight for this iteration     100.00

 eigenvalues of (default mixing * dielectric matrix)
  average eigenvalue GAMMA=   0.4121
  1.2592  1.1385  1.1385  0.4869  0.4869  0.3721  0.2069  0.2069  0.2144  0.1265
  0.1265  0.1141  0.1141  0.1003  0.0893

 Free energy of the ion-electron system (eV)
  ---------------------------------------------------
  alpha Z        PSCENC =      3286.56245407
  Ewald energy   TEWEN  =    -53967.08308864
  -Hartree energ DENC   =    -31897.54520333
  -exchange      EXHF   =         0.00000000
  -V(xc)+E(xc)   XCENC  =      3607.05854098
  PAW double counting   =    106754.85669844  -110384.39429750
  entropy T*S    EENTRO =        -0.12816798
  eigenvalues    EBANDS =      -678.59657558
  atomic energy  EATOM  =     82705.81968683
  Solvation  Ediel_sol  =         0.00000000
  ---------------------------------------------------
  free energy    TOTEN  =      -573.44995271 eV

  energy without entropy =     -573.32178473  energy(sigma->0) =     -573.38586872


--------------------------------------------------------------------------------------------------------




--------------------------------------- Iteration      1(  21)  ---------------------------------------


    POTLOK:  cpu time    0.3167: real time    0.3174
    SETDIJ:  cpu time    0.0455: real time    0.0456
     EDDAV:  cpu time  201.0077: real time  201.4838
    CHARGE:  cpu time    7.2664: real time    7.2837
    MIXING:  cpu time    0.0127: real time    0.0169
    --------------------------------------------
      LOOP:  cpu time  208.6490: real time  209.1474

 eigenvalue-minimisations  : 31120
[...]
      7.27259      1.36482      7.87051        -1.383294      2.446186      2.441920
      7.21962      4.23013      9.58394        30.268069    -20.904101     -3.052505
      5.64902      0.87330      5.24064         2.313130      3.902797      0.016277
      5.75039      1.21925      2.11053         2.125281     -4.866178     -9.732995
      7.50885      4.29643     12.51531       -51.228333    -40.607067     -2.579429
      7.21942      8.38834      0.88666         4.779540     -0.213011     13.344087
      5.78734      6.30874     14.12882         3.326707     -9.441948    -21.325643
      7.48951      8.46959      6.44911       -11.861449    -13.957849    -14.968195
      5.49472      6.40391      8.06108         0.322141     -1.729437      2.188919
      5.61805      8.69332      9.17178         5.141695     -4.150609      1.724038
      6.92187      5.81581      5.15766         0.440719      0.135199      5.593168
      7.19798      5.91344      1.95411        -2.224599     -2.380075      3.962982
      5.91415      8.87881     12.60971        -2.762155     -1.777582     -3.543581
      8.15374      9.22674      7.40833        10.249989     13.523347      7.412757
      0.13911      0.21754      0.10676        -6.940736    -12.800064      6.573264
      1.53045      0.33276     12.53544        -0.203907     -0.252716     -1.699498
      8.32195      4.51672      2.36006         2.395757      0.728319     -1.087969
      8.17506      4.80729      4.84674         3.832423     -2.869900      1.438898
      1.43706      0.73952      9.40541         1.646794     -2.742529      4.706944
      8.38469      3.03280     13.23263         0.061370     -6.202820     -1.452352
      1.36500      2.23604      1.21902         1.361131     -3.128334      3.671889
      1.57014      2.20692      6.42944        -1.093434      0.204344     -1.925201
      0.20319      2.83951      8.27968        -1.337150     -1.474625      1.827144
      1.30870      2.77579     11.06992         0.177909      2.178268      0.379970
      8.12596      1.87166      4.01343         1.687475     -0.088240     -1.728920
      1.23908      4.71638      7.19306         1.182303      0.580868     -1.077911
      1.61747      4.68061     14.18609        -1.197916     11.863919     16.915401
      8.38595      5.11121     12.55188        49.399449     44.239436     -5.633708
      1.25857      9.41273      2.33731         8.578595     -4.978522      0.836710
      1.62314      9.14556      5.22829        -0.534547      3.387985     -3.365034
      0.08696      5.33632      9.58562         1.227635     -0.403800      0.308532
      1.12360      7.44428     13.61223         0.895633     -0.612192     -1.849749
      0.00736      6.97636      1.48624         1.035119      1.399418     -1.184315
      0.44037      6.97869      6.54695        -3.386508     -2.946498     -5.017831
      1.05269      7.16393      8.58965         5.867417      4.397747      2.386326
      8.43817      8.12652     11.03577         1.385610     -1.594748     -0.484186
      1.43353      6.68554      3.67430         0.218380      0.107828      0.291981
      2.91693      0.18432      7.21294        -0.523037     -1.395841      1.298541
      3.08672      9.38821     14.11440       -10.256109     12.725510     53.211562
      4.22526      0.44801     12.34870        16.690863     13.045485    -12.683280
      2.93999      4.31714      2.31135        -0.466037      1.916098      0.538539
      2.61458      4.84040      4.97901        30.952326    -30.728439     -3.213934
      4.39302      0.28715      9.25450        -0.707867      2.330854      7.637350
      2.62837      2.71479     13.74717        -0.164441     -8.766258    -15.016549
      4.13109      1.99174      1.11849         1.072030      0.089409      1.652348
      4.01668      1.79335      6.07808        20.689290     20.456856     19.502174
      2.89367      2.64222      8.72309         1.663553      1.155726     -0.924127
      4.32130      3.22952     11.25207        -1.565630     -2.860691     -5.283279
      3.24347      1.37793      3.56870        -1.300111      1.029405     -1.143854
      4.58664      4.57751      7.10351        -5.068030      2.977532      2.575440
      4.09463      4.58089     13.98536        -0.221354      2.336786     10.958774
      2.93810      5.41525     12.59923        -2.812170     -2.157633     -8.907522
      4.35651      9.00426      2.27166        -0.833469      1.777799      0.446186
      4.28629      0.00494      4.97963         2.927762    -10.106239     -1.518428
      2.54351      5.24412      9.15773        -0.287906    -18.906270     37.812540
      4.21611      7.63609     13.51875         1.887676     -4.812552     -6.143345
      3.21700      6.51362      1.19593        -2.116129      4.832851     10.619535
      3.04060      6.92066      6.28797         0.093182      0.479979      1.000470
      4.13374      7.70514      8.52389         2.389083     -3.395124     -1.529229
      2.70640      7.87740     10.89449         0.689302      1.534230     -1.154057
      4.22292      6.75799      3.67919         0.313126     -1.883876      0.094653
      5.81531      0.37232      7.25417        -0.437535     -2.081073     -1.286911
      6.13108      9.28110      0.14588        -6.034126      5.713651      0.525280
      7.29104      0.16233     11.76413        -5.935762      7.193702     -2.223147
      6.12453      4.31406      2.09038        -0.967128      5.099061      8.639754
      5.83147      4.55652      5.06108        -3.280825     -1.733219     -1.633035
      7.20605      0.00826      9.74470        -5.065136      4.024640      1.809327
      5.62461      2.76512     13.56356         0.660005     -1.550717     -1.830629
      7.49331      2.08924      1.06685        -1.734341      0.613535      1.385284
      7.21020      1.76311      6.00940       -26.769698     22.220471     11.785477
      5.60467      2.49048      8.44978         1.615760      0.950532     -1.301857
      7.19456      3.47670     11.23025        -0.458452     -3.446142     -6.073526
      5.42905      1.72035      3.44392        -2.325476      3.637254     11.646107
      7.36810      4.88490      7.47441        -2.569134     -0.648628     -0.410548
      7.31903      5.00552     14.15248        -5.832981     -4.550778      4.973931
      5.30392      4.92445     12.12263        23.334368     27.860035    -13.226276
      7.15883      9.19594      2.60962        -1.382233     -0.100768     -1.841940
      7.22323      0.19369      4.93766        -5.317089    -10.550238     -5.448338
      6.13640      4.92141      9.69123       -33.505863     20.301857      2.129195
      6.99087      7.66215     13.76601         1.117049     -7.096042     -9.289852
      5.47874      6.81171      1.17699        -4.023972      7.918286     21.512457
      5.76836      6.71229      6.39170         0.014085      1.945650     -2.701187
      7.26733      7.83245      8.47997        -3.079446     -4.373336      0.033411
      5.57486      7.91448     11.20888        -0.086977      0.126734     -1.072099
      6.97969      6.45595      3.76428        -0.236449      3.939221     -6.543330
 -----------------------------------------------------------------------------------
    total drift:                                0.015747      0.007297     -0.035424


--------------------------------------------------------------------------------------------------------



  FREE ENERGIE OF THE ION-ELECTRON SYSTEM (eV)
  ---------------------------------------------------
  free  energy   TOTEN  =      -590.1457483950 eV

  energy  without entropy=     -590.0275346379  energy(sigma->0) =     -590.08664152
 


--------------------------------------------------------------------------------------------------------


    POTLOK:  cpu time    0.3806: real time    0.3815


--------------------------------------------------------------------------------------------------------


     LOOP+:  cpu time16900.5080: real time16941.2517
    4ORBIT:  cpu time    0.0000: real time    0.0000

volume of typ            1:    26.8 %

volume of typ            2:    10.3 %
 
total charge     
 
# of ion       s       p       d       tot
------------------------------------------
    1        0.299   0.417   8.053   8.770
    2        0.378   0.505   8.123   9.006
    3        0.255   0.302   7.939   8.496
    4        0.302   0.406   8.015   8.723
    5        0.289   0.390   7.990   8.668
    6        0.457   0.656   8.234   9.348
    7        0.334   0.419   7.954   8.708
    8        0.356   0.502   8.119   8.978
    9        0.246   0.282   8.021   8.549
   10        0.341   0.473   8.092   8.906
   11        0.326   0.407   7.995   8.728
   12        0.338   0.504   7.946   8.789
   13        0.350   0.499   8.020   8.868
   14        0.439   0.595   8.145   9.179
   15        0.244   0.259   7.892   8.394
   16        0.340   0.455   8.013   8.808
   17        0.371   0.595   8.080   9.047
   18        0.270   0.356   8.060   8.686
   19        0.218   0.237   7.983   8.439
   20        0.319   0.441   7.986   8.747
   21        0.212   0.213   7.925   8.350
   22        0.466   0.675   8.124   9.265
   23        0.240   0.287   7.939   8.467
   24        0.532   0.822   8.136   9.490
   25        0.341   0.500   8.037   8.877
   26        0.358   0.602   8.075   9.034
   27        0.210   0.222   7.940   8.372
   28        0.401   0.539   8.218   9.158
   29        0.284   0.352   7.953   8.588
   30        0.251   0.285   7.901   8.437
   31        0.257   0.312   7.920   8.490
   32        0.572   0.889   8.346   9.807
   33        0.311   0.455   8.050   8.816
   34        0.264   0.339   8.064   8.668
   35        0.305   0.314   8.041   8.660
   36        0.233   0.282   8.012   8.527
   37        0.438   0.583   8.117   9.137
   38        0.306   0.393   7.965   8.664
   39        0.311   0.368   7.979   8.658
   40        0.554   0.875   8.319   9.749
   41        0.364   0.499   8.102   8.966
   42        0.354   0.446   8.187   8.987
   43        0.339   0.439   8.173   8.950
   44        0.220   0.229   8.008   8.457
   45        0.292   0.372   7.944   8.608
   46        0.387   0.518   7.959   8.863
   47        0.269   0.345   7.944   8.558
   48        0.298   0.399   7.970   8.667
   49        1.309   2.935   0.046   4.290
   50        1.301   2.898   0.033   4.233
   51        1.292   2.732   0.009   4.034
   52        1.297   2.667   0.006   3.970
   53        1.296   2.702   0.009   4.006
   54        1.290   2.756   0.015   4.061
   55        1.282   2.855   0.019   4.156
   56        1.280   2.805   0.014   4.098
   57        1.269   2.768   0.007   4.045
   58        1.270   2.768   0.008   4.047
   59        1.311   2.554   0.001   3.866
   60        1.304   2.639   0.005   3.948
   61        1.296   2.748   0.010   4.054
   62        1.287   2.961   0.038   4.286
   63        1.318   3.056   0.065   4.439
   64        1.279   2.816   0.019   4.114
   65        1.286   2.736   0.010   4.032
   66        1.286   2.744   0.009   4.040
   67        1.267   2.787   0.008   4.062
   68        1.268   2.791   0.010   4.069
   69        1.273   2.837   0.016   4.125
   70        1.296   2.751   0.011   4.058
   71        1.309   2.628   0.006   3.943
   72        1.288   2.723   0.010   4.020
   73        1.294   2.738   0.007   4.039
   74        1.307   3.023   0.056   4.387
   75        1.295   2.885   0.032   4.212
   76        1.274   2.731   0.007   4.011
   77        1.317   2.907   0.042   4.266
   78        1.279   2.892   0.027   4.198
   79        1.294   2.843   0.020   4.158
   80        1.283   2.756   0.010   4.048
   81        1.303   2.914   0.034   4.251
   82        1.285   2.708   0.006   4.000
   83        1.288   2.733   0.009   4.029
   84        1.298   2.666   0.006   3.970
   85        1.287   2.768   0.013   4.068
   86        1.305   2.827   0.017   4.149
   87        1.301   2.768   0.014   4.084
   88        1.295   2.693   0.008   3.996
   89        1.287   2.842   0.022   4.151
   90        1.320   2.969   0.055   4.343
   91        1.285   2.835   0.015   4.135
   92        1.280   2.887   0.023   4.190
   93        1.277   2.736   0.006   4.020
   94        1.270   2.802   0.012   4.084
   95        1.307   2.562   0.001   3.871
   96        1.293   2.651   0.005   3.949
   97        1.290   2.772   0.010   4.071
   98        1.271   2.890   0.022   4.183
   99        1.310   2.749   0.021   4.080
  100        1.292   2.784   0.018   4.093
  101        1.281   2.785   0.014   4.080
  102        1.310   2.719   0.014   4.043
  103        1.277   2.785   0.010   4.071
  104        1.282   2.759   0.008   4.049
  105        1.298   2.933   0.039   4.269
  106        1.273   2.764   0.009   4.046
  107        1.288   2.785   0.014   4.086
  108        1.306   2.744   0.019   4.069
  109        1.281   2.769   0.009   4.059
  110        1.281   2.894   0.020   4.195
  111        1.319   2.864   0.034   4.217
  112        1.287   2.717   0.009   4.013
  113        1.294   2.830   0.023   4.147
  114        1.309   2.874   0.036   4.219
  115        1.292   2.863   0.022   4.177
  116        1.292   2.894   0.031   4.217
  117        1.265   2.794   0.010   4.069
  118        1.311   2.718   0.008   4.037
  119        1.292   2.665   0.005   3.963
  120        1.291   2.754   0.014   4.059
--------------------------------------------------
tot         108.81  222.15  387.26  718.22
 
magnetization (x)
 
# of ion       s       p       d       tot
------------------------------------------
    1        0.002   0.008   0.453   0.464
    2       -0.000   0.003   0.157   0.160
    3       -0.000  -0.001  -0.069  -0.070
    4        0.001   0.003   0.063   0.067
    5       -0.003  -0.004   0.530   0.523
    6       -0.002  -0.004  -0.067  -0.073
    7        0.001   0.005   0.247   0.253
    8        0.001  -0.010   0.042   0.032
    9       -0.001   0.001  -0.040  -0.040
   10        0.001  -0.000  -0.024  -0.023
   11        0.009   0.004   0.242   0.255
   12       -0.000   0.000  -0.009  -0.010
   13        0.000  -0.001   0.103   0.102
   14       -0.008  -0.003   0.016   0.005
   15        0.000   0.016   1.061   1.077
   16       -0.001   0.000   0.221   0.220
   17       -0.000  -0.001  -0.083  -0.085
   18        0.001   0.000   0.035   0.036
   19       -0.000   0.001   0.030   0.031
   20        0.001   0.000  -0.069  -0.067
   21       -0.001  -0.002  -0.183  -0.186
   22        0.001   0.001  -0.020  -0.017
   23        0.000   0.001   0.063   0.064
   24        0.001   0.001   0.211   0.214
   25       -0.000   0.000   0.059   0.058
   26       -0.000   0.001  -0.100  -0.100
   27        0.001   0.004   1.015   1.019
   28        0.003   0.005   0.071   0.079
   29       -0.003  -0.004  -0.011  -0.018
   30        0.000   0.005   0.541   0.547
   31       -0.002   0.006   0.340   0.344
   32       -0.000  -0.006   0.018   0.012
   33       -0.007  -0.002  -0.202  -0.211
   34        0.000   0.004   0.351   0.355
   35        0.000   0.000  -0.011  -0.011
   36       -0.000  -0.003  -0.703  -0.707
   37        0.000   0.005   0.264   0.270
   38       -0.003  -0.000  -0.037  -0.040
   39        0.008   0.018   0.726   0.752
   40       -0.000   0.007   0.029   0.036
   41        0.000   0.002  -0.003  -0.001
   42       -0.001   0.001  -0.102  -0.102
   43       -0.001  -0.003  -0.052  -0.055
   44        0.004   0.008   0.710   0.722
   45        0.002   0.002   0.364   0.368
   46        0.000   0.003   0.120   0.123
   47       -0.000   0.003   0.189   0.191
   48        0.001   0.002   0.334   0.337
   49       -0.003  -0.046   0.000  -0.049
   50        0.002   0.024   0.000   0.026
   51        0.002   0.089   0.000   0.091
   52        0.006   0.211   0.000   0.216
   53        0.002   0.093  -0.000   0.095
   54        0.001   0.068  -0.000   0.069
   55        0.006   0.092   0.000   0.098
   56        0.003   0.034   0.000   0.037
   57       -0.001  -0.009   0.000  -0.009
   58       -0.002  -0.011  -0.000  -0.012
   59        0.015   0.793   0.000   0.808
   60        0.004   0.163   0.000   0.166
   61        0.003   0.040   0.000   0.043
   62        0.001  -0.019   0.000  -0.018
   63       -0.000   0.017   0.000   0.016
   64        0.001   0.014   0.000   0.015
   65        0.002   0.056   0.000   0.058
   66        0.003   0.101   0.000   0.105
   67       -0.000   0.011  -0.000   0.010
   68        0.004   0.023   0.000   0.028
   69        0.001   0.035   0.000   0.036
   70       -0.000   0.014  -0.000   0.014
   71        0.010   0.489  -0.000   0.499
   72        0.008   0.298   0.000   0.306
   73       -0.000  -0.002   0.000  -0.002
   74        0.001   0.009   0.000   0.011
   75        0.002   0.025  -0.000   0.027
   76        0.002   0.048   0.000   0.050
   77        0.000  -0.033  -0.000  -0.033
   78        0.001   0.016  -0.000   0.016
   79       -0.000  -0.005   0.000  -0.005
   80        0.001   0.017   0.000   0.018
   81       -0.000  -0.001  -0.000  -0.001
   82        0.002   0.052   0.000   0.054
   83        0.002   0.114  -0.000   0.116
   84        0.005   0.056   0.000   0.061
   85        0.001   0.006   0.000   0.007
   86       -0.002  -0.009   0.000  -0.011
   87       -0.001  -0.044  -0.000  -0.045
   88        0.005   0.171  -0.000   0.176
   89        0.002   0.049  -0.000   0.051
   90        0.001   0.065  -0.000   0.067
   91       -0.001  -0.012   0.000  -0.012
   92        0.004   0.013  -0.000   0.017
   93        0.005   0.046   0.000   0.051
   94        0.005   0.069  -0.000   0.074
   95        0.012   0.638  -0.000   0.650
   96        0.009   0.403  -0.000   0.412
   97       -0.001  -0.023  -0.000  -0.024
   98        0.003   0.048   0.000   0.051
   99        0.005   0.087  -0.000   0.092
  100       -0.000  -0.060  -0.000  -0.061
  101        0.003   0.049   0.000   0.053
  102        0.006   0.106   0.000   0.112
  103        0.001   0.001   0.000   0.002
  104        0.004   0.058   0.000   0.062
  105       -0.006  -0.064   0.000  -0.070
  106       -0.002  -0.034  -0.000  -0.036
  107        0.003   0.066   0.000   0.069
  108        0.007   0.327   0.000   0.334
  109       -0.000   0.028  -0.000   0.028
  110       -0.001   0.006   0.000   0.005
  111        0.002   0.109   0.000   0.112
  112        0.003   0.070   0.000   0.072
  113        0.001   0.004  -0.000   0.005
  114        0.003   0.102   0.001   0.105
  115       -0.000  -0.018   0.000  -0.018
  116        0.000  -0.016  -0.000  -0.016
  117        0.007   0.127   0.000   0.135
  118        0.000  -0.005  -0.000  -0.005
  119        0.009   0.419  -0.000   0.428
  120        0.003   0.100   0.000   0.103
--------------------------------------------------
tot           0.17    5.84    6.82   12.84
 

 total amount of memory used by VASP MPI-rank0   538475. kBytes
=======================================================================

   base      :      30000. kBytes
   nonlr-proj:      65214. kBytes
   fftplans  :      10153. kBytes
   grid      :      58351. kBytes
   one-center:       3732. kBytes
   wavefun   :     371025. kBytes
 
  
  
 General timing and accounting informations for this job:
 ========================================================
  
                  Total CPU time used (sec):    17090.551
                            User time (sec):    17073.765
                          System time (sec):       16.785
                         Elapsed time (sec):    17136.353
  
                   Maximum memory used (kb):      658888.
                   Average memory used (kb):           0.
  
                          Minor page faults:        49696
                          Major page faults:           52
                 Voluntary context switches:         1231
