 vasp.5.4.4.18Apr17-6-g9f103f2a35 (build May 12 2020 04:58:55) complex          
  
 MD_VERSION_INFO: Compiled 2020-05-12T11:58:55-UTC in devlin.sd.materialsdesign.
 com:/home/medea2/data/build/wwolf/vasp-gpu5.4.4/13047/x86_64/src/src/build/std 
 from svn 13047
 
 This VASP executable licensed from Materials Design, Inc.
 
 executed on                        Lin64 date 2023.03.25  07:03:50
 running on   16 total cores
 distrk:  each k-point on   16 cores,    1 groups
 distr:  one band on NCORES_PER_BAND=   1 cores,   16 groups


--------------------------------------------------------------------------------------------------------


 INCAR:
 POTCAR:    PAW_PBE Ni 02Aug2007                  
 POTCAR:    PAW_PBE O 08Apr2002                   

 ----------------------------------------------------------------------------- 
|                                                                             |
|           W    W    AA    RRRRR   N    N  II  N    N   GGGG   !!!           |
|           W    W   A  A   R    R  NN   N  II  NN   N  G    G  !!!           |
|           W    W  A    A  R    R  N N  N  II  N N  N  G       !!!           |
|           W WW W  AAAAAA  RRRRR   N  N N  II  N  N N  G  GGG   !            |
|           WW  WW  A    A  R   R   N   NN  II  N   NN  G    G                |
|           W    W  A    A  R    R  N    N  II  N    N   GGGG   !!!           |
|                                                                             |
|      For optimal performance we recommend to set                            |
|        NCORE= 4 - approx SQRT( number of cores)                             |
|      NCORE specifies how many cores store one orbital (NPAR=cpu/NCORE).     |
|      This setting can  greatly improve the performance of VASP for DFT.     |
|      The default,   NCORE=1            might be grossly inefficient         |
|      on modern multi-core architectures or massively parallel machines.     |
|      Do your own testing !!!!                                               |
|      Unfortunately you need to use the default for GW and RPA calculations. |
|      (for HF NCORE is supported but not extensively tested yet)             |
|                                                                             |
 ----------------------------------------------------------------------------- 

 POTCAR:    PAW_PBE Ni 02Aug2007                  
  local pseudopotential read in
  partial core-charges read in
  partial kinetic energy density read in
  atomic valenz-charges read in
  non local Contribution for L=           2  read in
    real space projection operators read in
  non local Contribution for L=           2  read in
    real space projection operators read in
  non local Contribution for L=           0  read in
    real space projection operators read in
  non local Contribution for L=           0  read in
    real space projection operators read in
  non local Contribution for L=           1  read in
    real space projection operators read in
  non local Contribution for L=           1  read in
    real space projection operators read in
    PAW grid and wavefunctions read in
 
   number of l-projection  operators is LMAX  =           6
   number of lm-projection operators is LMMAX =          18
 
 POTCAR:    PAW_PBE O 08Apr2002                   
  local pseudopotential read in
  partial core-charges read in
  partial kinetic energy density read in
  kinetic energy density of atom read in
  atomic valenz-charges read in
  non local Contribution for L=           0  read in
    real space projection operators read in
  non local Contribution for L=           0  read in
    real space projection operators read in
  non local Contribution for L=           1  read in
    real space projection operators read in
  non local Contribution for L=           1  read in
    real space projection operators read in
    PAW grid and wavefunctions read in
 
   number of l-projection  operators is LMAX  =           4
   number of lm-projection operators is LMMAX =           8
 
 Optimization of the real space projectors (new method)

 maximal supplied QI-value         = 16.25
 optimisation between [QCUT,QGAM] = [ 11.38, 22.75] = [ 36.24,144.96] Ry 
 Optimized for a Real-space Cutoff    1.47 Angstroem

   l    n(q)    QCUT    max X(q) W(low)/X(q) W(high)/X(q)  e(spline) 
   2      9    11.376    60.317    0.17E-03    0.16E-04    0.16E-06
   2      9    11.376    55.921    0.17E-03    0.16E-04    0.17E-06
   0     10    11.376    51.690    0.45E-04    0.60E-04    0.21E-06
   0     10    11.376    30.015    0.37E-04    0.55E-04    0.19E-06
   1     10    11.376    18.849    0.83E-04    0.11E-03    0.92E-07
   1     10    11.376    14.624    0.69E-04    0.92E-04    0.82E-07
 Optimization of the real space projectors (new method)

 maximal supplied QI-value         = 24.76
 optimisation between [QCUT,QGAM] = [ 11.39, 22.77] = [ 36.31,145.25] Ry 
 Optimized for a Real-space Cutoff    1.10 Angstroem

   l    n(q)    QCUT    max X(q) W(low)/X(q) W(high)/X(q)  e(spline) 
   0      7    11.387    20.381    0.22E-03    0.48E-03    0.18E-06
   0      7    11.387    15.268    0.22E-03    0.52E-03    0.19E-06
   1      7    11.387     5.964    0.22E-03    0.73E-03    0.24E-06
   1      7    11.387     5.382    0.19E-03    0.60E-03    0.21E-06

 ----------------------------------------------------------------------------- 
|                                                                             |
|  ADVICE TO THIS USER RUNNING 'VASP/VAMP'   (HEAR YOUR MASTER'S VOICE ...):  |
|                                                                             |
|      You enforced a specific xc-type in the INCAR file,                     |
|      a different type was found on the POTCAR file                          |
|          I HOPE YOU KNOW, WHAT YOU ARE  DOING                               |
|                                                                             |
 ----------------------------------------------------------------------------- 

  PAW_PBE Ni 02Aug2007                  :
 energy of atom  1       EATOM=-1077.6739
 kinetic energy error for atom=    0.0030 (will be added to EATOM!!)
  PAW_PBE O 08Apr2002                   :
 energy of atom  2       EATOM= -432.3788
 kinetic energy error for atom=    0.0224 (will be added to EATOM!!)
 
 
 POSCAR: Ni2O3_Cmcm_scale_0_975_disp_0_10_round_2
  positions in direct lattice
  No initial velocities read in
 exchange correlation table for  LEXCH =       14
   RHO(1)=    0.500       N(1)  =     2000
   RHO(2)=  100.500       N(2)  =     4000
 


--------------------------------------------------------------------------------------------------------


 ion  position               nearest neighbor table
   1  0.992  0.381  0.048-  55 1.66 110 1.81  52 1.84 104 1.85  62 2.17  56 2.36  33 2.64  40 2.67
                            47 2.72  34 2.77   2 2.82   8 2.94   7 2.95  10 2.95  17 2.99  15 2.99
   2  0.176  0.154  0.981-  56 1.45  51 1.92  79 1.99  55 2.00  50 2.15  74 2.20   7 2.63   9 2.64
                            34 2.68  17 2.76  18 2.79  23 2.81   1 2.82   8 2.96  16 3.01  32 3.02
   3  0.016  0.382  0.475- 105 1.86 109 1.90  61 1.91  58 1.97  57 2.03  53 2.14  35 2.76  19 2.81
                            14 2.83  46 2.85   4 2.87  12 2.89  37 2.90   5 2.95   6 2.96  36 2.99
   4  0.159  0.132  0.552-  49 1.88  57 2.00  58 2.01  54 2.03  73 2.14  82 2.21  11 2.51   6 2.68
                            36 2.72  13 2.79  20 2.85   3 2.87  29 2.87  19 2.95  22 2.99   5 3.07
   5  0.178  0.414  0.658-  59 1.85  90 1.87  66 1.93  82 2.04  58 2.13  61 2.48  28 2.83  37 2.85
                            21 2.88   3 2.95  19 3.06  12 3.07   4 3.07
   6  0.004  0.098  0.389- 113 1.57  65 1.89  57 1.95  60 1.95  49 2.00 105 2.02  11 2.55   4 2.68
                            38 2.70  43 2.71  22 2.76  36 2.92   3 2.96
   7  0.007  0.096  0.132- 112 1.67  64 1.70 104 1.86  60 1.98  56 2.12  50 2.15   2 2.63  34 2.64
                            41 2.67  39 2.72   9 2.76  23 2.95   1 2.95
   8  0.185  0.426  0.879-  87 1.66  59 1.75  62 1.89  63 2.14  79 2.18  55 2.32  40 2.60  17 2.82
                            24 2.88  26 2.91   1 2.94   2 2.96  10 3.05
   9  0.169  0.888  0.036-  67 1.57  50 1.88  74 1.88  92 1.99  64 2.04  68 2.20  41 2.57  16 2.59
                             2 2.64  26 2.69  32 2.70  25 2.71  10 2.74   7 2.76  23 2.89
  10  0.997  0.668  0.966-  63 1.67  68 1.73 115 1.77  67 1.88 110 2.03  62 2.16  41 2.56  47 2.58
                            16 2.63  42 2.68   9 2.74  26 2.85  40 2.86   1 2.95   8 3.05  15 3.07
  11  0.177  0.905  0.461-  73 1.75  65 1.82  49 1.97  93 2.14  70 2.25  69 2.34  22 2.50   4 2.51
                             6 2.55  43 2.70  27 2.90  13 3.02  14 3.05  29 3.05
  12  0.995  0.655  0.564- 109 1.84  66 1.86 118 1.87  70 1.91  69 2.02  61 2.27  44 2.55  43 2.69
                            13 2.71   3 2.89  28 2.89  37 2.90  46 2.97  14 3.03   5 3.07
  13  0.005  0.913  0.646- 102 1.70  70 1.74  71 1.82  54 1.84 118 1.97  49 2.06  45 2.68  12 2.71
                             4 2.79  29 2.81  43 2.82  36 2.84  11 3.02
  14  0.172  0.606  0.382-  61 1.85  72 1.89  77 1.95  53 2.05  93 2.10  69 2.20  46 2.70   3 2.83
                            30 2.93  19 3.01  12 3.03  11 3.05
  15  0.167  0.605  0.152-  72 1.78  52 1.78  76 1.94  68 2.06  92 2.32  62 2.35  47 2.70  26 2.81
                            31 2.83  17 2.96   1 2.99  10 3.07
  16  0.999  0.919  0.887-  50 1.72  99 1.73 115 1.77  71 1.88  67 1.98  51 2.07  41 2.48   9 2.59
                            10 2.63  34 2.67  48 2.74   2 3.01  32 3.02
  17  0.344  0.382  0.051-  79 1.72  86 1.85  76 1.87  62 2.03  80 2.04  56 2.05   2 2.76  26 2.77
                            31 2.78   8 2.82  24 2.84  33 2.88  15 2.96  18 2.96   1 2.99  23 3.06
  18  0.504  0.129  0.974-  80 1.77  75 1.78  74 1.90  79 2.00  98 2.01 103 2.14  48 2.52  25 2.61
                            32 2.67  23 2.74   2 2.79  39 2.79  33 2.80  24 2.94  17 2.96  34 3.04
  19  0.347  0.364  0.471-  82 1.97  61 2.05  77 2.06  57 2.08  81 2.12  85 2.28  20 2.75   3 2.81
                            35 2.93   4 2.95  21 2.97  22 2.99  14 3.01   5 3.06
  20  0.495  0.137  0.554-  78 1.97  82 2.00  73 2.01  81 2.09 106 2.11  97 2.21  27 2.74  19 2.75
                            29 2.82   4 2.85  38 2.91  36 2.94  45 2.95  21 2.99  22 3.02  35 3.07
  21  0.517  0.418  0.651-  90 1.83  83 1.90 114 1.94 106 1.95  82 2.10  85 2.28  44 2.75  37 2.77
                            28 2.87   5 2.88  19 2.97  20 2.99
  22  0.327  0.087  0.369-  65 1.66  89 1.80  84 1.81  57 2.10  73 2.20  81 2.29  11 2.50   6 2.76
                            27 2.88   4 2.99  19 2.99  20 3.02  38 3.05
  23  0.354  0.090  0.142-  88 1.69  64 1.70  84 1.83  56 2.04  80 2.08  74 2.21  25 2.60  18 2.74
                             2 2.81  39 2.84   9 2.89   7 2.95  17 3.06
  24  0.524  0.408  0.883-  83 1.66 111 1.84  86 1.89 103 1.93  87 2.00  79 2.09  33 2.68  17 2.84
                             8 2.88  18 2.94  42 2.97  40 3.03
  25  0.487  0.881  0.053-  74 1.68  92 1.78  91 1.83  88 1.88 116 2.22  98 2.27  23 2.60  18 2.61
                            32 2.69  26 2.69   9 2.71  48 2.93  39 2.97  31 2.97  42 2.97
  26  0.331  0.657  0.983-  92 1.51  62 1.86  67 2.02  86 2.08  91 2.08  87 2.21   9 2.69  25 2.69
                            31 2.76  17 2.77  15 2.81  10 2.85  32 2.89   8 2.91  42 2.99
  27  0.517  0.881  0.466-  94 1.82 117 1.91  73 1.91  93 2.01  97 2.01  89 2.15  38 2.65  20 2.74
                            30 2.86  22 2.88  11 2.90  43 2.93
  28  0.334  0.649  0.578-  90 1.66  85 1.91  94 2.09  61 2.15  70 2.16  93 2.24  29 2.80   5 2.83
                            21 2.87  12 2.89  44 3.08
  29  0.336  0.922  0.653-  78 1.75  54 1.88  95 1.97  73 2.14  70 2.15  94 2.16  28 2.80  13 2.81
                            20 2.82   4 2.87  45 3.03  11 3.05
  30  0.516  0.617  0.369-  96 1.58 101 1.81  77 2.00 117 2.00  93 2.09  85 2.20  27 2.86  46 2.88
                            14 2.93  35 3.07
  31  0.500  0.599  0.144-  76 1.82 100 1.82  96 1.88  86 2.25  92 2.26 116 2.27  26 2.76  17 2.78
                            42 2.80  15 2.83  25 2.97  47 3.01
  32  0.355  0.921  0.883-  75 1.75  95 1.78  74 1.81  51 1.92  91 2.16  67 2.20  18 2.67  25 2.69
                             9 2.70  48 2.78  26 2.89   2 3.02  16 3.02
  33  0.682  0.357  0.043- 103 1.58  80 1.96 104 2.08 110 2.12  86 2.14 100 2.21   1 2.64  24 2.68
                            39 2.72  34 2.76  18 2.80  42 2.85  17 2.88  40 2.99  47 3.05
  34  0.861  0.139  0.970- 104 1.76  55 1.81  50 1.81  99 1.83  98 1.93 103 2.13  48 2.59  41 2.60
                             7 2.64  16 2.67   2 2.68  33 2.76   1 2.77  39 2.81  40 3.00  18 3.04
  35  0.691  0.370  0.461- 105 1.86 101 1.89  81 2.01 106 2.04 109 2.17  85 2.47   3 2.76  46 2.84
                            44 2.88  36 2.89  38 2.90  19 2.93  37 3.00  20 3.07  30 3.07
  36  0.840  0.145  0.567-  58 1.94 102 1.96  97 1.99  49 2.00 106 2.03 105 2.06  45 2.70   4 2.72
                            37 2.79  13 2.84  35 2.89  38 2.92   6 2.92  20 2.94  43 2.95   3 2.99
  37  0.842  0.413  0.650-  66 1.77 114 2.00  58 2.02 107 2.06 106 2.08 109 2.18  44 2.63  21 2.77
                            36 2.79   5 2.85  12 2.90   3 2.90  35 3.00
  38  0.686  0.085  0.388- 113 1.70  89 1.80  97 1.90  81 1.97 108 2.08 105 2.31  27 2.65   6 2.70
                            43 2.77  35 2.90  20 2.91  36 2.92  22 3.05
  39  0.687  0.106  0.137- 112 1.67  88 1.89 108 1.91 104 2.09  80 2.09  98 2.18   7 2.72  33 2.72
                            18 2.79  34 2.81  23 2.84  41 2.92  25 2.97
  40  0.879  0.421  0.874-  63 1.51 107 1.63 110 1.90  55 1.97 111 1.99 103 2.34   8 2.60   1 2.67
                            10 2.86  33 2.99  34 3.00  24 3.03
  41  0.866  0.885  0.040-  50 1.65 115 1.71 112 1.93  98 1.97  68 1.99 116 2.11  16 2.48  10 2.56
                             9 2.57  34 2.60   7 2.67  48 2.76  47 2.82  42 2.89  39 2.92
  42  0.683  0.643  0.983- 116 1.73 111 1.93  91 1.94 110 1.97  86 2.11 115 2.21  47 2.47  10 2.68
                            31 2.80  33 2.85  41 2.89  24 2.97  25 2.97  26 2.99
  43  0.862  0.871  0.470-  69 1.67  49 1.85 118 1.93  97 1.98 113 2.04 117 2.07  12 2.69  11 2.70
                             6 2.71  38 2.77  13 2.82  46 2.88  27 2.93  36 2.95  44 3.06
  44  0.696  0.627  0.570- 114 1.61 109 1.93  85 1.97 118 2.00  94 2.25 117 2.31  12 2.55  37 2.63
                            21 2.75  35 2.88  43 3.06  46 3.07  28 3.08
  45  0.692  0.938  0.662- 102 1.68 119 1.76  78 1.81 118 2.13  97 2.24  94 2.30  13 2.68  36 2.70
                            20 2.95  29 3.03
  46  0.854  0.600  0.377-  53 1.76 101 1.78  69 1.87 120 2.01 109 2.11 117 2.21  14 2.70  35 2.84
                             3 2.85  30 2.88  43 2.88  12 2.97  44 3.07
  47  0.853  0.614  0.122-  68 1.74  52 1.86 116 1.92 120 1.94 100 2.01 110 2.09  42 2.47  10 2.58
                            15 2.70   1 2.72  41 2.82  31 3.01  33 3.05
  48  0.679  0.957  0.889-  75 1.45  98 1.62  99 1.72 119 1.86 115 2.22  91 2.27  18 2.52  34 2.59
                            16 2.74  41 2.76  32 2.78  25 2.93
  49  0.997  0.008  0.516-  43 1.85   4 1.88  11 1.97   6 2.00  36 2.00  13 2.06
  50  0.996  0.996  0.996-  41 1.65  16 1.72  34 1.81   9 1.88   7 2.15   2 2.15
  51  0.187  0.054  0.865-   2 1.92  32 1.92  16 2.07
  52  0.007  0.484  0.157-  15 1.78   1 1.84  47 1.86
  53  0.994  0.475  0.339-  46 1.76  14 2.05   3 2.14
  54  0.162  0.037  0.680-  13 1.84  29 1.88   4 2.03
  55  0.998  0.283  0.951-   1 1.66  34 1.81  40 1.97   2 2.00   8 2.32
  56  0.195  0.216  0.074-   2 1.45  23 2.04  17 2.05   7 2.12   1 2.36
  57  0.166  0.231  0.427-   6 1.95   4 2.00   3 2.03  19 2.08  22 2.10
  58  0.005  0.280  0.596-  36 1.94   3 1.97   4 2.01  37 2.02   5 2.13
  59  0.167  0.329  0.775-   8 1.75   5 1.85
  60  0.986  0.171  0.262-   6 1.95   7 1.98
  61  0.180  0.515  0.497-  14 1.85   3 1.91  19 2.05  28 2.15  12 2.27   5 2.48
  62  0.179  0.517  0.998-  26 1.86   8 1.89  17 2.03  10 2.16   1 2.17  15 2.35
  63  0.977  0.554  0.877-  40 1.51  10 1.67   8 2.14
  64  0.177  0.007  0.156-  23 1.70   7 1.70   9 2.04
  65  0.173  0.986  0.344-  22 1.66  11 1.82   6 1.89
  66  0.996  0.536  0.668-  37 1.77  12 1.86   5 1.93
  67  0.162  0.796  0.944-   9 1.57  10 1.88  16 1.98  26 2.02  32 2.20
  68  0.001  0.725  0.082-  10 1.73  47 1.74  41 1.99  15 2.06   9 2.20
  69  0.979  0.739  0.434-  43 1.67  46 1.87  12 2.02  14 2.20  11 2.34
  70  0.144  0.797  0.600-  13 1.74  12 1.91  29 2.15  28 2.16  11 2.25
  71  0.005  0.841  0.765-  13 1.82  16 1.88
  72  0.174  0.694  0.262-  15 1.78  14 1.89
  73  0.342  0.990  0.509-  11 1.75  27 1.91  20 2.01  29 2.14   4 2.14  22 2.20
  74  0.353  0.987  0.003-  25 1.68  32 1.81   9 1.88  18 1.90   2 2.20  23 2.21
  75  0.527  0.021  0.873-  48 1.45  32 1.75  18 1.78
  76  0.342  0.475  0.167-  31 1.82  17 1.87  15 1.94
  77  0.343  0.478  0.348-  14 1.95  30 2.00  19 2.06
  78  0.503  0.027  0.672-  29 1.75  45 1.81  20 1.97
  79  0.351  0.285  0.948-  17 1.72   2 1.99  18 2.00  24 2.09   8 2.18
  80  0.508  0.230  0.079-  18 1.77  33 1.96  17 2.04  23 2.08  39 2.09
  81  0.528  0.228  0.422-  38 1.97  35 2.01  20 2.09  19 2.12  22 2.29
  82  0.340  0.283  0.599-  19 1.97  20 2.00   5 2.04  21 2.10   4 2.21
  83  0.513  0.343  0.774-  24 1.66  21 1.90
  84  0.334  0.176  0.257-  22 1.81  23 1.83
  85  0.500  0.549  0.517-  28 1.91  44 1.97  30 2.20  21 2.28  19 2.28  35 2.47
  86  0.498  0.498  0.001-  17 1.85  24 1.89  26 2.08  42 2.11  33 2.14  31 2.25
  87  0.337  0.529  0.853-   8 1.66  24 2.00  26 2.21
  88  0.513  0.988  0.163-  23 1.69  25 1.88  39 1.89
  89  0.511  0.005  0.339-  22 1.80  38 1.80  27 2.15
  90  0.349  0.537  0.667-  28 1.66  21 1.83   5 1.87
  91  0.524  0.780  0.946-  25 1.83  42 1.94  26 2.08  32 2.16  48 2.27
  92  0.338  0.751  0.069-  26 1.51  25 1.78   9 1.99  31 2.26  15 2.32
  93  0.346  0.743  0.433-  27 2.01  30 2.09  14 2.10  11 2.14  28 2.24
  94  0.514  0.799  0.582-  27 1.82  28 2.09  29 2.16  44 2.25  45 2.30
  95  0.336  0.826  0.776-  32 1.78  29 1.97
  96  0.524  0.677  0.265-  30 1.58  31 1.88
  97  0.696  0.004  0.510-  38 1.90  43 1.98  36 1.99  27 2.01  20 2.21  45 2.24
  98  0.694  0.008  0.998-  48 1.62  34 1.93  41 1.97  18 2.01  39 2.18  25 2.27
  99  0.852  0.040  0.859-  48 1.72  16 1.73  34 1.83
 100  0.674  0.493  0.169-  31 1.82  47 2.01  33 2.21
 101  0.681  0.497  0.358-  46 1.78  30 1.81  35 1.89
 102  0.860  0.027  0.679-  45 1.68  13 1.70  36 1.96
 103  0.677  0.287  0.942-  33 1.58  24 1.93  34 2.13  18 2.14  40 2.34
 104  0.869  0.227  0.080-  34 1.76   1 1.85   7 1.86  33 2.08  39 2.09
 105  0.863  0.252  0.441-   3 1.86  35 1.86   6 2.02  36 2.06  38 2.31
 106  0.666  0.288  0.593-  21 1.95  36 2.03  35 2.04  37 2.08  20 2.11
 107  0.848  0.324  0.781-  40 1.63  37 2.06
 108  0.693  0.189  0.259-  39 1.91  38 2.08
 109  0.865  0.518  0.514-  12 1.84   3 1.90  44 1.93  46 2.11  35 2.17  37 2.18
 110  0.853  0.503  0.995-   1 1.81  40 1.90  42 1.97  10 2.03  47 2.09  33 2.12
 111  0.683  0.536  0.867-  24 1.84  42 1.93  40 1.99
 112  0.844  0.001  0.151-   7 1.67  39 1.67  41 1.93
 113  0.859  0.007  0.358-   6 1.57  38 1.70  43 2.04
 114  0.678  0.559  0.674-  44 1.61  21 1.94  37 2.00
 115  0.859  0.800  0.934-  41 1.71  16 1.77  10 1.77  42 2.21  48 2.22
 116  0.690  0.743  0.085-  42 1.73  47 1.92  41 2.11  25 2.22  31 2.27
 117  0.672  0.747  0.429-  27 1.91  30 2.00  43 2.07  46 2.21  44 2.31
 118  0.841  0.789  0.594-  12 1.87  43 1.93  13 1.97  44 2.00  45 2.13
 119  0.679  0.863  0.775-  45 1.76  48 1.86
 120  0.868  0.690  0.249-  47 1.94  46 2.01
 
  LATTYP: Found a simple orthorhombic cell.
 ALAT       =     8.4905632500
 B/A-ratio  =     1.1146370060
 C/A-ratio  =     1.6738812646
  
  Lattice vectors:
  
 A1 = (   8.4905632500,   0.0000000000,   0.0000000000)
 A2 = (   0.0000000000,   9.4638960000,   0.0000000000)
 A3 = (   0.0000000000,   0.0000000000,  14.2121947500)


Analysis of symmetry for initial positions (statically):
=====================================================================
 Subroutine PRICEL returns:
 Original cell was already a primitive cell.
 

 Routine SETGRP: Setting up the symmetry group for a 
 simple orthorhombic supercell.


 Subroutine GETGRP returns: Found  1 space group operations
 (whereof  1 operations were pure point group operations)
 out of a pool of  8 trial point group operations.


The static configuration has the point symmetry C_1 .


Analysis of symmetry for dynamics (positions and initial velocities):
=====================================================================
 Subroutine PRICEL returns:
 Original cell was already a primitive cell.
 

 Routine SETGRP: Setting up the symmetry group for a 
 simple orthorhombic supercell.


 Subroutine GETGRP returns: Found  1 space group operations
 (whereof  1 operations were pure point group operations)
 out of a pool of  8 trial point group operations.


The dynamic configuration has the point symmetry C_1 .


Analysis of structural, dynamic, and magnetic symmetry:
=====================================================================
 Subroutine PRICEL returns:
 Original cell was already a primitive cell.
 

 Routine SETGRP: Setting up the symmetry group for a 
 simple orthorhombic supercell.


 Subroutine GETGRP returns: Found  1 space group operations
 (whereof  1 operations were pure point group operations)
 out of a pool of  8 trial point group operations.


The magnetic configuration has the point symmetry C_1 .


 Subroutine INISYM returns: Found  1 space group operations
 (whereof  1 operations are pure point group operations),
 and found     1 'primitive' translations

 
 
 KPOINTS: Automatic mesh                          

Automatic generation of k-mesh.
Space group operators:
 irot       det(A)        alpha          n_x          n_y          n_z        tau_x        tau_y        tau_z
    1     1.000000     0.000001     1.000000     0.000000     0.000000     0.000000     0.000000     0.000000
 
 Subroutine IBZKPT returns following result:
 ===========================================
 
 Found     10 irreducible k-points:
 
 Following reciprocal coordinates:
            Coordinates               Weight
  0.000000  0.000000  0.000000      1.000000
  0.333333  0.000000  0.000000      2.000000
  0.000000  0.333333  0.000000      2.000000
  0.333333  0.333333  0.000000      2.000000
 -0.333333  0.333333  0.000000      2.000000
  0.000000  0.000000  0.500000      1.000000
  0.333333  0.000000  0.500000      2.000000
  0.000000  0.333333  0.500000      2.000000
  0.333333  0.333333  0.500000      2.000000
 -0.333333  0.333333  0.500000      2.000000
 
 Following cartesian coordinates:
            Coordinates               Weight
  0.000000  0.000000  0.000000      1.000000
  0.039259  0.000000  0.000000      2.000000
  0.000000  0.035222  0.000000      2.000000
  0.039259  0.035222  0.000000      2.000000
 -0.039259  0.035222  0.000000      2.000000
  0.000000  0.000000  0.035181      1.000000
  0.039259  0.000000  0.035181      2.000000
  0.000000  0.035222  0.035181      2.000000
  0.039259  0.035222  0.035181      2.000000
 -0.039259  0.035222  0.035181      2.000000
 


--------------------------------------------------------------------------------------------------------




 Dimension of arrays:
   k-points           NKPTS =     10   k-points in BZ     NKDIM =     10   number of bands    NBANDS=    608
   number of dos      NEDOS =    301   number of ions     NIONS =    120
   non local maximal  LDIM  =      6   non local SUM 2l+1 LMDIM =     18
   total plane-waves  NPLWV = 483840
   max r-space proj   IRMAX =   5738   max aug-charges    IRDMAX=  13931
   dimension x,y,z NGX =    64 NGY =   70 NGZ =  108
   dimension x,y,z NGXF=   128 NGYF=  140 NGZF=  216
   support grid    NGXF=   128 NGYF=  140 NGZF=  216
   ions per type =              48  72
   NGX,Y,Z   is equivalent  to a cutoff of  12.53, 12.30, 12.63 a.u.
   NGXF,Y,Z  is equivalent  to a cutoff of  25.06, 24.59, 25.27 a.u.

 SYSTEM =  unknown system                          
 POSCAR =  Ni2O3_Cmcm_scale_0_975_disp_0_10_round_2

 Startparameter for this run:
   NWRITE =      1    write-flag & timer
   PREC   = accura    normal or accurate (medium, high low for compatibility)
   ISTART =      0    job   : 0-new  1-cont  2-samecut
   ICHARG =      2    charge: 1-file 2-atom 10-const
   ISPIN  =      2    spin polarized calculation?
   LNONCOLLINEAR =      F non collinear calculations
   LSORBIT =      F    spin-orbit coupling
   INIWAV =      1    electr: 0-lowe 1-rand  2-diag
   LASPH  =      F    aspherical Exc in radial PAW
   METAGGA=      F    non-selfconsistent MetaGGA calc.

 Electronic Relaxation 1
   ENCUT  =  500.0 eV  36.75 Ry    6.06 a.u.  15.48 17.25 25.91*2*pi/ulx,y,z
   ENINI  =  500.0     initial cutoff
   ENAUG  =  605.4 eV  augmentation charge cutoff
   NELM   =     80;   NELMIN=  2; NELMDL= -5     # of ELM steps 
   EDIFF  = 0.1E-04   stopping-criterion for ELM
   LREAL  =      T    real-space projection
   NLSPLINE    = F    spline interpolate recip. space projectors
   LCOMPAT=      F    compatible to vasp.4.4
   GGA_COMPAT  = T    GGA compatible to vasp.4.4-vasp.4.6
   LMAXPAW     = -100 max onsite density
   LMAXMIX     =    2 max onsite mixed and CHGCAR
   VOSKOWN=      1    Vosko Wilk Nusair interpolation
   ROPT   =   -0.00025  -0.00025
 Ionic relaxation
   EDIFFG = 0.1E-03   stopping-criterion for IOM
   NSW    =      0    number of steps for IOM
   NBLOCK =      1;   KBLOCK =      1    inner block; outer block 
   IBRION =     -1    ionic relax: 0-MD 1-quasi-New 2-CG
   NFREE  =      0    steps in history (QN), initial steepest desc. (CG)
   ISIF   =      2    stress and relaxation
   IWAVPR =     10    prediction:  0-non 1-charg 2-wave 3-comb
   ISYM   =      2    0-nonsym 1-usesym 2-fastsym
   LCORR  =      T    Harris-Foulkes like correction to forces

   POTIM  = 0.5000    time-step for ionic-motion
   TEIN   =    0.0    initial temperature
   TEBEG  =    0.0;   TEEND  =   0.0 temperature during run
   SMASS  =  -3.00    Nose mass-parameter (am)
   estimated Nose-frequenzy (Omega)   =  0.10E-29 period in steps =****** mass=  -0.165E-26a.u.
   SCALEE = 1.0000    scale energy and forces
   NPACO  =    256;   APACO  = 16.0  distance and # of slots for P.C.
   PSTRESS=    0.0 pullay stress

  Mass of Ions in am
   POMASS =  58.69 16.00
  Ionic Valenz
   ZVAL   =  10.00  6.00
  Atomic Wigner-Seitz radii
   RWIGS  =   1.15  0.73
  virtual crystal weights 
   VCA    =   1.00  1.00
   NELECT =     912.0000    total number of electrons
   NUPDOWN=      -1.0000    fix difference up-down

 DOS related values:
   EMIN   =  10.00;   EMAX   =-10.00  energy-range for DOS
   EFERMI =   0.00
   ISMEAR =     0;   SIGMA  =   0.05  broadening in eV -4-tet -1-fermi 0-gaus

 Electronic relaxation 2 (details)
   IALGO  =     38    algorithm
   LDIAG  =      T    sub-space diagonalisation (order eigenvalues)
   LSUBROT=      F    optimize rotation matrix (better conditioning)
   TURBO    =      0    0=normal 1=particle mesh
   IRESTART =      0    0=no restart 2=restart with 2 vectors
   NREBOOT  =      0    no. of reboots
   NMIN     =      0    reboot dimension
   EREF     =   0.00    reference energy to select bands
   IMIX   =      4    mixing-type and parameters
     AMIX     =   0.40;   BMIX     =  1.00
     AMIX_MAG =   1.60;   BMIX_MAG =  1.00
     AMIN     =   0.10
     WC   =   100.;   INIMIX=   1;  MIXPRE=   1;  MAXMIX= -45

 Intra band minimization:
   WEIMIN = 0.0000     energy-eigenvalue tresh-hold
   EBREAK =  0.41E-08  absolut break condition
   DEPER  =   0.30     relativ break condition  

   TIME   =   0.40     timestep for ELM

  volume/ion in A,a.u.               =       9.52        64.22
  Fermi-wavevector in a.u.,A,eV,Ry     =   1.518858  2.870226 31.387693  2.306930
  Thomas-Fermi vector in A             =   2.627922
 
 Write flags
   LWAVE        =      F    write WAVECAR
   LDOWNSAMPLE  =      F    k-point downsampling of WAVECAR
   LCHARG       =      T    write CHGCAR
   LVTOT        =      F    write LOCPOT, total local potential
   LVHAR        =      F    write LOCPOT, Hartree potential only
   LELF         =      F    write electronic localiz. function (ELF)
   LORBIT       =      0    0 simple, 1 ext, 2 COOP (PROOUT), +10 PAW based schemes


 Dipole corrections
   LMONO  =      F    monopole corrections only (constant potential shift)
   LDIPOL =      F    correct potential (dipole corrections)
   IDIPOL =      0    1-x, 2-y, 3-z, 4-all directions 
   EPSILON=  1.0000000 bulk dielectric constant

 Exchange correlation treatment:
   GGA     =    PS    GGA type
   LEXCH   =    14    internal setting for exchange type
   VOSKOWN=      1    Vosko Wilk Nusair interpolation
   LHFCALC =     F    Hartree Fock is set to
   LHFONE  =     F    Hartree Fock one center treatment
   AEXX    =    0.0000 exact exchange contribution

 Linear response parameters
   LEPSILON=     F    determine dielectric tensor
   LRPA    =     F    only Hartree local field effects (RPA)
   LNABLA  =     F    use nabla operator in PAW spheres
   LVEL    =     F    velocity operator in full k-point grid
   LINTERFAST=   F  fast interpolation
   KINTER  =     0    interpolate to denser k-point grid
   CSHIFT  =0.1000    complex shift for real part using Kramers Kronig
   OMEGAMAX=  -1.0    maximum frequency
   DEG_THRESHOLD= 0.2000000E-02 threshold for treating states as degnerate
   RTIME   =   -0.100 relaxation time in fs
  (WPLASMAI=    0.000 imaginary part of plasma frequency in eV, 0.658/RTIME)
   DFIELD  = 0.0000000 0.0000000 0.0000000 field for delta impulse in time
 
 Orbital magnetization related:
   ORBITALMAG=     F  switch on orbital magnetization
   LCHIMAG   =     F  perturbation theory with respect to B field
   DQ        =  0.001000  dq finite difference perturbation B field
   LLRAUG    =     F  two centre corrections for induced B field



--------------------------------------------------------------------------------------------------------


 Static calculation
 charge density and potential will be updated during run
 spin polarized calculation
 Variant of blocked Davidson
 Davidson routine will perform the subspace rotation
 perform sub-space diagonalisation
    after iterative eigenvector-optimisation
 modified Broyden-mixing scheme, WC =      100.0
 initial mixing is a Kerker type mixing with AMIX =  0.4000 and BMIX =      1.0000
 Hartree-type preconditioning will be used
 using additional bands          152
 real space projection scheme for non local part
 use partial core corrections
 calculate Harris-corrections to forces 
   (improved forces if not selfconsistent)
 use gradient corrections 
 use of overlap-Matrix (Vanderbilt PP)
 Gauss-broadening in eV      SIGMA  =   0.05


--------------------------------------------------------------------------------------------------------


  energy-cutoff  :      500.00
  volume of cell :     1142.00
      direct lattice vectors                 reciprocal lattice vectors
     8.490563250  0.000000000  0.000000000     0.117777816  0.000000000  0.000000000
     0.000000000  9.463896000  0.000000000     0.000000000  0.105664728  0.000000000
     0.000000000  0.000000000 14.212194750     0.000000000  0.000000000  0.070362109

  length of vectors
     8.490563250  9.463896000 14.212194750     0.117777816  0.105664728  0.070362109


 
 k-points in units of 2pi/SCALE and weight: Automatic mesh                          
   0.00000000  0.00000000  0.00000000       0.056
   0.03925927  0.00000000  0.00000000       0.111
   0.00000000  0.03522158  0.00000000       0.111
   0.03925927  0.03522158  0.00000000       0.111
  -0.03925927  0.03522158  0.00000000       0.111
   0.00000000  0.00000000  0.03518105       0.056
   0.03925927  0.00000000  0.03518105       0.111
   0.00000000  0.03522158  0.03518105       0.111
   0.03925927  0.03522158  0.03518105       0.111
  -0.03925927  0.03522158  0.03518105       0.111
 
 k-points in reciprocal lattice and weights: Automatic mesh                          
   0.00000000  0.00000000  0.00000000       0.056
   0.33333333  0.00000000  0.00000000       0.111
   0.00000000  0.33333333  0.00000000       0.111
   0.33333333  0.33333333  0.00000000       0.111
  -0.33333333  0.33333333  0.00000000       0.111
   0.00000000  0.00000000  0.50000000       0.056
   0.33333333  0.00000000  0.50000000       0.111
   0.00000000  0.33333333  0.50000000       0.111
   0.33333333  0.33333333  0.50000000       0.111
  -0.33333333  0.33333333  0.50000000       0.111
 
 position of ions in fractional coordinates (direct lattice) 
   0.99160962  0.38064158  0.04763558
   0.17626494  0.15435657  0.98143795
   0.01590222  0.38177689  0.47527614
   0.15863137  0.13180676  0.55189231
   0.17757268  0.41385967  0.65809081
   0.00373769  0.09773489  0.38911004
   0.00714074  0.09610686  0.13191626
   0.18496746  0.42649883  0.87915036
   0.16923332  0.88801075  0.03641571
   0.99672419  0.66774912  0.96632807
   0.17672497  0.90549705  0.46050245
   0.99465580  0.65526180  0.56438816
   0.00467862  0.91326585  0.64628563
   0.17213632  0.60585787  0.38198904
   0.16714969  0.60529943  0.15185529
   0.99903833  0.91889324  0.88678319
   0.34357005  0.38224139  0.05076794
   0.50381529  0.12939747  0.97398430
   0.34669002  0.36350734  0.47114665
   0.49469375  0.13735143  0.55420895
   0.51650553  0.41787616  0.65059414
   0.32730972  0.08706493  0.36933114
   0.35357166  0.08958708  0.14236735
   0.52365590  0.40750763  0.88316620
   0.48682851  0.88123778  0.05296783
   0.33072765  0.65667675  0.98324086
   0.51706089  0.88086719  0.46647841
   0.33392250  0.64853400  0.57756288
   0.33588977  0.92200018  0.65275147
   0.51609281  0.61718483  0.36863278
   0.50039899  0.59887943  0.14409969
   0.35454607  0.92124742  0.88320572
   0.68166405  0.35658193  0.04279780
   0.86147144  0.13905293  0.97010015
   0.69148870  0.37030286  0.46125744
   0.83988978  0.14545098  0.56667397
   0.84226412  0.41317232  0.64966252
   0.68553117  0.08482728  0.38793177
   0.68691595  0.10567197  0.13650212
   0.87933854  0.42108855  0.87405021
   0.86643057  0.88496961  0.04044080
   0.68306614  0.64341090  0.98263703
   0.86186530  0.87077279  0.46950631
   0.69608560  0.62659280  0.56994697
   0.69154808  0.93794191  0.66170029
   0.85412389  0.60004896  0.37659104
   0.85279799  0.61396006  0.12246828
   0.67886677  0.95664047  0.88943695
   0.99726254  0.00751250  0.51600903
   0.99608182  0.99593764  0.99626850
   0.18684720  0.05385788  0.86460032
   0.00665037  0.48405540  0.15703360
   0.99383829  0.47517001  0.33864582
   0.16202247  0.03735580  0.67994622
   0.99755788  0.28348426  0.95077928
   0.19513154  0.21555487  0.07391343
   0.16579498  0.23115367  0.42744648
   0.00548442  0.27983799  0.59614081
   0.16723526  0.32908827  0.77496525
   0.98603840  0.17106807  0.26154082
   0.17996432  0.51501623  0.49743151
   0.17944674  0.51650558  0.99761741
   0.97708761  0.55416436  0.87731316
   0.17684588  0.00713368  0.15600947
   0.17312184  0.98619755  0.34430049
   0.99591774  0.53575492  0.66820645
   0.16186329  0.79590289  0.94422368
   0.00149310  0.72500467  0.08159578
   0.97858303  0.73877309  0.43402540
   0.14362093  0.79667248  0.59985300
   0.00530626  0.84122829  0.76538494
   0.17438301  0.69363966  0.26216099
   0.34157487  0.98986633  0.50931668
   0.35292991  0.98707602  0.00259351
   0.52670693  0.02119361  0.87270468
   0.34193126  0.47460141  0.16674598
   0.34273660  0.47771982  0.34811880
   0.50290749  0.02671659  0.67175713
   0.35085431  0.28478819  0.94832897
   0.50823124  0.23038516  0.07885494
   0.52776720  0.22808232  0.42174635
   0.34044302  0.28279118  0.59890593
   0.51305573  0.34274770  0.77446251
   0.33407319  0.17596506  0.25670189
   0.50025406  0.54875820  0.51651684
   0.49778172  0.49787789  0.00089170
   0.33734425  0.52899647  0.85289725
   0.51303230  0.98815885  0.16345374
   0.51143969  0.00470888  0.33930586
   0.34896639  0.53678843  0.66687083
   0.52416289  0.77990606  0.94565706
   0.33761516  0.75081182  0.06908064
   0.34600166  0.74318758  0.43332679
   0.51408868  0.79863067  0.58188728
   0.33559354  0.82603309  0.77584466
   0.52401655  0.67709840  0.26488709
   0.69553628  0.00358332  0.51036333
   0.69370269  0.00783927  0.99752328
   0.85245382  0.03966765  0.85937836
   0.67381550  0.49264325  0.16872095
   0.68148151  0.49681027  0.35822102
   0.85952356  0.02718576  0.67888757
   0.67747661  0.28670459  0.94192021
   0.86897911  0.22684989  0.07950407
   0.86269832  0.25167153  0.44086225
   0.66569585  0.28761676  0.59300822
   0.84812915  0.32351796  0.78131318
   0.69292543  0.18918930  0.25917231
   0.86485461  0.51834937  0.51423880
   0.85275368  0.50264858  0.99506503
   0.68340290  0.53607067  0.86749039
   0.84419997  0.00143468  0.15084314
   0.85858766  0.00659682  0.35828651
   0.67762836  0.55933664  0.67374254
   0.85899694  0.79979926  0.93404434
   0.69048325  0.74278078  0.08470384
   0.67229445  0.74668941  0.42892073
   0.84091455  0.78943666  0.59363278
   0.67900167  0.86274275  0.77486081
   0.86821019  0.69029586  0.24884811
 
 position of ions in cartesian coordinates  (Angst):
   8.41932420  3.60235233  0.67700614
   1.49658862  1.46081453 13.94838728
   0.13501880  3.61309678  6.75471706
   1.34686968  1.24740547  7.84360099
   1.50769207  3.91672488  9.35291475
   0.03173509  0.92495283  5.53010767
   0.06062890  0.90954533  1.87481958
   1.57047792  4.03634057 12.49465613
   1.43688621  8.40404138  0.51754716
   8.46274978  6.31950823 13.73364272
   1.50049454  8.56952991  6.54475050
   8.44518798  6.20132953  8.02119444
   0.03972412  8.64305302  9.18513724
   1.46153431  5.73377587  5.42890263
   1.41919502  5.72849085  2.15819696
   8.48239813  8.69631006 12.60313540
   2.91710324  3.61749276  0.72152385
   4.27767559  1.22460420 13.84245456
   2.94359354  3.44019566  6.69602795
   4.20022857  1.29987965  7.87652553
   4.38542287  3.95473652  9.24637062
   2.77904388  0.82397344  5.24900609
   3.00202254  0.84784281  2.02335250
   4.44613354  3.85660983 12.55173003
   4.13344826  8.33994270  0.75278912
   2.80806403  6.21472047 13.97401059
   4.39013819  8.33643548  6.62968201
   2.83519011  6.13765833  8.20843613
   2.85189334  8.72571382  9.27703101
   4.38191865  5.84097304  5.23908086
   4.24866927  5.66773264  2.04797286
   3.01029583  8.71858977 12.55229170
   5.78771173  3.37465430  0.60825067
   7.31437775  1.31598247 13.78725226
   5.87112854  3.50450776  6.55548057
   7.13113730  1.37653295  8.05368082
   7.15129678  3.91021987  9.23313026
   5.82054576  0.80279656  5.51336186
   5.83230332  1.00006853  1.93999471
   7.46607949  3.98513824 12.42217181
   7.35648356  8.37526035  0.57475253
   5.79961627  6.08917384 13.96542884
   7.31772184  8.24090312  6.67271511
   5.91015881  5.93000909  8.10019733
   5.87163271  8.87658469  9.40421339
   7.25199291  5.67880095  5.35218520
   7.24073527  5.81045416  1.74054305
   5.76396125  9.05354592 12.64085115
   8.46732067  0.07109752  7.33362083
   8.45729569  9.42545025 14.15916195
   1.58643797  0.50970538 12.28786813
   0.05646539  4.58104996  2.23179211
   8.43824686  4.49695956  4.81290035
   1.37566203  0.35353141  9.66352810
   8.46982828  2.68286555 13.51266029
   1.65677668  2.03998887  1.05047206
   1.40769276  2.18761429  6.07495262
   0.04656581  2.64835763  8.47246929
   1.41992155  3.11445716 11.01395706
   8.37202140  1.61897042  3.71706907
   1.52799844  4.87406004  7.06959349
   1.52360390  4.88815509 14.17833292
   8.29602415  5.24455387 12.46854549
   1.50152113  0.06751241  2.21723697
   1.46990193  9.33327105  4.89326562
   8.45590256  5.07032884  9.49668020
   1.37431050  7.53234218 13.41949083
   0.01267726  6.86136880  1.15965512
   8.30872111  6.99167169  6.16845351
   1.21942259  7.53962550  8.52522766
   0.04505314  7.96129705 10.87779983
   1.48060998  6.56453360  3.72588305
   2.90016304  9.36799200  7.23850785
   2.99657372  9.34158480  0.03685947
   4.47203850  0.20057412 12.40304887
   2.90318899  4.49157839  2.36982634
   2.91002678  4.52109069  4.94753218
   4.26996785  0.25284303  9.54714316
   2.97895071  2.69520581 13.47783601
   4.31516949  2.18034119  1.12070176
   4.48104079  2.15854736  5.99394126
   2.89055299  2.67630632  8.51176771
   4.35613213  3.24372859 11.00681202
   2.83646955  1.66531503  3.64829725
   4.24743874  5.19339053  7.34083792
   4.22644718  4.71186457  0.01267301
   2.86424269  5.00636758 12.12154182
   4.35593319  9.35183259  2.32303639
   4.34241104  0.04456435  4.82228096
   2.96292121  5.08010988  9.47769811
   4.45043817  7.38094984 13.43986230
   2.86654287  7.10560498  0.98178751
   2.93774898  7.03344997  6.15852473
   4.36490245  7.55815760  8.26989535
   2.84937818  7.81749126 11.02645540
   4.44919566  6.40798884  3.76462691
   5.90549478  0.03391217  7.25338304
   5.88992657  0.07419004 14.17699512
   7.23781308  0.37541051 12.21365262
   5.72107312  4.66232448  2.39789500
   5.78616186  4.70176073  5.09110690
   7.29783915  0.25728321  9.64848236
   5.75215801  2.71334242 13.38675346
   7.37812210  2.14688377  1.12992733
   7.32479465  2.38179319  6.26562015
   5.65213272  2.72197510  8.42794831
   7.20109419  3.06174033 11.10417507
   5.88332719  1.79046786  3.68340734
   7.34310277  4.90560453  7.30846197
   7.24035906  4.75701389 14.14205800
   5.80247555  5.07331707 12.32894237
   7.16773324  0.01357766  2.14381208
   7.28989283  0.06243162  5.09203766
   5.75344645  5.29350379  9.57536019
   7.29336785  7.56921702 13.27482007
   5.86259171  7.02960005  1.20382747
   5.70815855  7.06659092  6.09590495
   7.13983817  7.47114645  8.43682468
   5.76510663  8.16490766 11.01247274
   7.37159353  6.53288823  3.53667780
 


--------------------------------------------------------------------------------------------------------


 k-point  1 :   0.0000 0.0000 0.0000  plane waves:   28987
 k-point  2 :   0.3333 0.0000 0.0000  plane waves:   28977
 k-point  3 :   0.0000 0.3333 0.0000  plane waves:   29012
 k-point  4 :   0.3333 0.3333 0.0000  plane waves:   28999
 k-point  5 :  -0.3333 0.3333 0.0000  plane waves:   28999
 k-point  6 :   0.0000 0.0000 0.5000  plane waves:   29068
 k-point  7 :   0.3333 0.0000 0.5000  plane waves:   29008
 k-point  8 :   0.0000 0.3333 0.5000  plane waves:   28982
 k-point  9 :   0.3333 0.3333 0.5000  plane waves:   28978
 k-point 10 :  -0.3333 0.3333 0.5000  plane waves:   28978

 maximum and minimum number of plane-waves per node :     29068    28977

 maximum number of plane-waves:     29068
 maximum index in each direction: 
   IXMAX=   15   IYMAX=   17   IZMAX=   25
   IXMIN=  -15   IYMIN=  -17   IZMIN=  -26

 The following grids will avoid any aliasing or wrap around errors in the Hartre
 e energy
  - symmetry arguments have not been applied
  - exchange correlation energies might require even more grid points
  - we recommend to set PREC=Normal or Accurate and rely on VASP defaults
 NGX is ok and might be reduce to    64
 NGY is ok and might be reduce to    70
 NGZ is ok and might be reduce to   108

 serial   3D FFT for wavefunctions
 parallel 3D FFT for charge:
    minimum data exchange during FFTs selected (reduces bandwidth)


 total amount of memory used by VASP MPI-rank0   538483. kBytes
=======================================================================

   base      :      30000. kBytes
   nonlr-proj:      65222. kBytes
   fftplans  :      10153. kBytes
   grid      :      58351. kBytes
   one-center:       3732. kBytes
   wavefun   :     371025. kBytes
 
     INWAV:  cpu time    0.0000: real time    0.0000
 Broyden mixing: mesh for mixing (old mesh)
   NGX = 31   NGY = 35   NGZ = 51
  (NGX  =128   NGY  =140   NGZ  =216)
  gives a total of  55335 points

 initial charge density was supplied:
 charge density of overlapping atoms calculated
 number of electron     912.0000000 magnetization     120.0000000
 keeping initial charge density in first step


--------------------------------------------------------------------------------------------------------


 Maximum index for non-local projection operator         5551
 Maximum index for augmentation-charges          959 (set IRDMAX)


--------------------------------------------------------------------------------------------------------


 First call to EWALD:  gamma=   0.170
 Maximum number of real-space cells 3x 3x 2
 Maximum number of reciprocal cells 2x 3x 4

    FEWALD:  cpu time    0.0057: real time    0.0057


--------------------------------------- Iteration      1(   1)  ---------------------------------------


    POTLOK:  cpu time    0.3252: real time    0.3725
    SETDIJ:  cpu time    0.0427: real time    0.0428
     EDDAV:  cpu time  147.4937: real time  147.8435
    --------------------------------------------
      LOOP:  cpu time  147.8640: real time  148.2613

 eigenvalue-minimisations  : 24320
 total energy-change (2. order) : 0.1210039E+05  (-0.3795739E+05)
 number of electron     912.0000000 magnetization     120.0000000
 augmentation part      912.0000000 magnetization     120.0000000

 Free energy of the ion-electron system (eV)
  ---------------------------------------------------
  alpha Z        PSCENC =      3286.56245407
  Ewald energy   TEWEN  =    -56918.44557799
  -Hartree energ DENC   =    -30065.72672378
  -exchange      EXHF   =         0.00000000
  -V(xc)+E(xc)   XCENC  =      3613.47188159
  PAW double counting   =     71080.72462945   -74396.17323249
  entropy T*S    EENTRO =        -0.02003928
  eigenvalues    EBANDS =     12794.17801556
  atomic energy  EATOM  =     82705.81968683
  Solvation  Ediel_sol  =         0.00000000
  ---------------------------------------------------
  free energy    TOTEN  =     12100.39109395 eV

  energy without entropy =    12100.41113323  energy(sigma->0) =    12100.40111359


--------------------------------------------------------------------------------------------------------




--------------------------------------- Iteration      1(   2)  ---------------------------------------


     EDDAV:  cpu time  144.3907: real time  144.7331
    --------------------------------------------
      LOOP:  cpu time  144.3907: real time  144.7331

 eigenvalue-minimisations  : 24320
 total energy-change (2. order) :-0.1010127E+05  (-0.9189368E+04)
 number of electron     912.0000000 magnetization     120.0000000
 augmentation part      912.0000000 magnetization     120.0000000

 Free energy of the ion-electron system (eV)
  ---------------------------------------------------
  alpha Z        PSCENC =      3286.56245407
  Ewald energy   TEWEN  =    -56918.44557799
  -Hartree energ DENC   =    -30065.72672378
  -exchange      EXHF   =         0.00000000
  -V(xc)+E(xc)   XCENC  =      3613.47188159
  PAW double counting   =     71080.72462945   -74396.17323249
  entropy T*S    EENTRO =        -0.04559264
  eigenvalues    EBANDS =      2692.93799609
  atomic energy  EATOM  =     82705.81968683
  Solvation  Ediel_sol  =         0.00000000
  ---------------------------------------------------
  free energy    TOTEN  =      1999.12552112 eV

  energy without entropy =     1999.17111376  energy(sigma->0) =     1999.14831744


--------------------------------------------------------------------------------------------------------




--------------------------------------- Iteration      1(   3)  ---------------------------------------


     EDDAV:  cpu time  146.5397: real time  146.8873
    --------------------------------------------
      LOOP:  cpu time  146.5399: real time  146.8875

 eigenvalue-minimisations  : 24768
 total energy-change (2. order) :-0.2589480E+04  (-0.2255384E+04)
 number of electron     912.0000000 magnetization     120.0000000
 augmentation part      912.0000000 magnetization     120.0000000

 Free energy of the ion-electron system (eV)
  ---------------------------------------------------
  alpha Z        PSCENC =      3286.56245407
  Ewald energy   TEWEN  =    -56918.44557799
  -Hartree energ DENC   =    -30065.72672378
  -exchange      EXHF   =         0.00000000
  -V(xc)+E(xc)   XCENC  =      3613.47188159
  PAW double counting   =     71080.72462945   -74396.17323249
  entropy T*S    EENTRO =        -0.17112474
  eigenvalues    EBANDS =       103.58314055
  atomic energy  EATOM  =     82705.81968683
  Solvation  Ediel_sol  =         0.00000000
  ---------------------------------------------------
  free energy    TOTEN  =      -590.35486653 eV

  energy without entropy =     -590.18374179  energy(sigma->0) =     -590.26930416


--------------------------------------------------------------------------------------------------------




--------------------------------------- Iteration      1(   4)  ---------------------------------------


     EDDAV:  cpu time  156.2326: real time  156.6030
    --------------------------------------------
      LOOP:  cpu time  156.2326: real time  156.6030

 eigenvalue-minimisations  : 27232
 total energy-change (2. order) :-0.3443161E+03  (-0.3287850E+03)
 number of electron     912.0000000 magnetization     120.0000000
 augmentation part      912.0000000 magnetization     120.0000000

 Free energy of the ion-electron system (eV)
  ---------------------------------------------------
  alpha Z        PSCENC =      3286.56245407
  Ewald energy   TEWEN  =    -56918.44557799
  -Hartree energ DENC   =    -30065.72672378
  -exchange      EXHF   =         0.00000000
  -V(xc)+E(xc)   XCENC  =      3613.47188159
  PAW double counting   =     71080.72462945   -74396.17323249
  entropy T*S    EENTRO =        -0.21018046
  eigenvalues    EBANDS =      -240.69391276
  atomic energy  EATOM  =     82705.81968683
  Solvation  Ediel_sol  =         0.00000000
  ---------------------------------------------------
  free energy    TOTEN  =      -934.67097556 eV

  energy without entropy =     -934.46079510  energy(sigma->0) =     -934.56588533


--------------------------------------------------------------------------------------------------------




--------------------------------------- Iteration      1(   5)  ---------------------------------------


     EDDAV:  cpu time  147.6055: real time  147.9555
    CHARGE:  cpu time    5.7078: real time    5.7213
    MIXING:  cpu time    0.0060: real time    0.0060
    --------------------------------------------
      LOOP:  cpu time  153.3168: real time  153.6804

 eigenvalue-minimisations  : 26880
 total energy-change (2. order) :-0.1124929E+02  (-0.1113340E+02)
 number of electron     912.0000013 magnetization     119.7726567
 augmentation part      305.2737072 magnetization      90.2372345

 Broyden mixing:
  rms(total) = 0.19005E+02    rms(broyden)= 0.19003E+02
  rms(prec ) = 0.20549E+02
  weight for this iteration     100.00

 Free energy of the ion-electron system (eV)
  ---------------------------------------------------
  alpha Z        PSCENC =      3286.56245407
  Ewald energy   TEWEN  =    -56918.44557799
  -Hartree energ DENC   =    -30065.72672378
  -exchange      EXHF   =         0.00000000
  -V(xc)+E(xc)   XCENC  =      3613.47188159
  PAW double counting   =     71080.72462945   -74396.17323249
  entropy T*S    EENTRO =        -0.20734857
  eigenvalues    EBANDS =      -251.94603714
  atomic energy  EATOM  =     82705.81968683
  Solvation  Ediel_sol  =         0.00000000
  ---------------------------------------------------
  free energy    TOTEN  =      -945.92026805 eV

  energy without entropy =     -945.71291947  energy(sigma->0) =     -945.81659376


--------------------------------------------------------------------------------------------------------




--------------------------------------- Iteration      1(   6)  ---------------------------------------


    POTLOK:  cpu time    0.2987: real time    0.2994
    SETDIJ:  cpu time    0.0458: real time    0.0460
     EDDAV:  cpu time  167.6359: real time  168.0358
    CHARGE:  cpu time    4.2342: real time    4.2694
    MIXING:  cpu time    0.0120: real time    0.0489
    --------------------------------------------
      LOOP:  cpu time  172.2267: real time  172.6994

 eigenvalue-minimisations  : 37168
 total energy-change (2. order) :-0.1203036E+03  (-0.1690357E+03)
 number of electron     912.0000066 magnetization     111.9384074
 augmentation part      385.0955565 magnetization     105.1070211

 Broyden mixing:
  rms(total) = 0.29207E+02    rms(broyden)= 0.29205E+02
  rms(prec ) = 0.32114E+02
  weight for this iteration     100.00

 eigenvalues of (default mixing * dielectric matrix)
  average eigenvalue GAMMA=   0.2525
  0.2525

 Free energy of the ion-electron system (eV)
  ---------------------------------------------------
  alpha Z        PSCENC =      3286.56245407
  Ewald energy   TEWEN  =    -56918.44557799
  -Hartree energ DENC   =    -28859.44100563
  -exchange      EXHF   =         0.00000000
  -V(xc)+E(xc)   XCENC  =      3626.72706981
  PAW double counting   =     79435.64080660   -82350.67823637
  entropy T*S    EENTRO =        -0.07882209
  eigenvalues    EBANDS =     -1992.33026419
  atomic energy  EATOM  =     82705.81968683
  Solvation  Ediel_sol  =         0.00000000
  ---------------------------------------------------
  free energy    TOTEN  =     -1066.22388896 eV

  energy without entropy =    -1066.14506687  energy(sigma->0) =    -1066.18447791


--------------------------------------------------------------------------------------------------------




--------------------------------------- Iteration      1(   7)  ---------------------------------------


    POTLOK:  cpu time    0.3762: real time    0.3771
    SETDIJ:  cpu time    0.0638: real time    0.0640
     EDDAV:  cpu time  179.7982: real time  180.2243
    CHARGE:  cpu time    5.5433: real time    5.5565
    MIXING:  cpu time    0.0072: real time    0.0224
    --------------------------------------------
      LOOP:  cpu time  185.7887: real time  186.2442

 eigenvalue-minimisations  : 32704
 total energy-change (2. order) : 0.2827715E+03  (-0.5612796E+02)
 number of electron     912.0000021 magnetization     105.7957762
 augmentation part      353.6204547 magnetization      90.3424349

 Broyden mixing:
  rms(total) = 0.15981E+02    rms(broyden)= 0.15979E+02
  rms(prec ) = 0.20617E+02
  weight for this iteration     100.00

 eigenvalues of (default mixing * dielectric matrix)
  average eigenvalue GAMMA=   0.4055
  0.4055  0.4055

 Free energy of the ion-electron system (eV)
  ---------------------------------------------------
  alpha Z        PSCENC =      3286.56245407
  Ewald energy   TEWEN  =    -56918.44557799
  -Hartree energ DENC   =    -29371.08215397
  -exchange      EXHF   =         0.00000000
  -V(xc)+E(xc)   XCENC  =      3605.21057121
  PAW double counting   =     82575.62396925   -85772.41160575
  entropy T*S    EENTRO =        -0.10441752
  eigenvalues    EBANDS =      -894.62526599
  atomic energy  EATOM  =     82705.81968683
  Solvation  Ediel_sol  =         0.00000000
  ---------------------------------------------------
  free energy    TOTEN  =      -783.45233987 eV

  energy without entropy =     -783.34792235  energy(sigma->0) =     -783.40013111


--------------------------------------------------------------------------------------------------------




--------------------------------------- Iteration      1(   8)  ---------------------------------------


    POTLOK:  cpu time    0.2897: real time    0.2904
    SETDIJ:  cpu time    0.0436: real time    0.0437
     EDDAV:  cpu time  166.0270: real time  166.4205
    CHARGE:  cpu time    5.5570: real time    5.5702
    MIXING:  cpu time    0.0070: real time    0.0070
    --------------------------------------------
      LOOP:  cpu time  171.9244: real time  172.3318

 eigenvalue-minimisations  : 29648
 total energy-change (2. order) :-0.1972012E+03  (-0.3234801E+02)
 number of electron     912.0000041 magnetization      96.5481315
 augmentation part      330.2358937 magnetization      85.7814816

 Broyden mixing:
  rms(total) = 0.20999E+02    rms(broyden)= 0.20997E+02
  rms(prec ) = 0.30452E+02
  weight for this iteration     100.00

 eigenvalues of (default mixing * dielectric matrix)
  average eigenvalue GAMMA=   0.4274
  0.5769  0.5769  0.1284

 Free energy of the ion-electron system (eV)
  ---------------------------------------------------
  alpha Z        PSCENC =      3286.56245407
  Ewald energy   TEWEN  =    -56918.44557799
  -Hartree energ DENC   =    -29490.46233634
  -exchange      EXHF   =         0.00000000
  -V(xc)+E(xc)   XCENC  =      3599.25531464
  PAW double counting   =     84921.16017395   -88255.60149586
  entropy T*S    EENTRO =        -0.08936332
  eigenvalues    EBANDS =      -828.85244492
  atomic energy  EATOM  =     82705.81968683
  Solvation  Ediel_sol  =         0.00000000
  ---------------------------------------------------
  free energy    TOTEN  =      -980.65358894 eV

  energy without entropy =     -980.56422562  energy(sigma->0) =     -980.60890728


--------------------------------------------------------------------------------------------------------




--------------------------------------- Iteration      1(   9)  ---------------------------------------


    POTLOK:  cpu time    0.2908: real time    0.2915
    SETDIJ:  cpu time    0.0432: real time    0.0433
     EDDAV:  cpu time  177.4668: real time  177.8872
    CHARGE:  cpu time    5.6136: real time    5.6269
    MIXING:  cpu time    0.0072: real time    0.0094
    --------------------------------------------
      LOOP:  cpu time  183.4217: real time  183.8584

 eigenvalue-minimisations  : 32272
 total energy-change (2. order) :-0.5258299E+02  (-0.4490198E+02)
 number of electron     912.0000049 magnetization      86.8652345
 augmentation part      343.3765104 magnetization      79.1100856

 Broyden mixing:
  rms(total) = 0.23336E+02    rms(broyden)= 0.23334E+02
  rms(prec ) = 0.29097E+02
  weight for this iteration     100.00

 eigenvalues of (default mixing * dielectric matrix)
  average eigenvalue GAMMA=   0.4020
  0.7475  0.5888  0.1386  0.1331

 Free energy of the ion-electron system (eV)
  ---------------------------------------------------
  alpha Z        PSCENC =      3286.56245407
  Ewald energy   TEWEN  =    -56918.44557799
  -Hartree energ DENC   =    -29172.74467265
  -exchange      EXHF   =         0.00000000
  -V(xc)+E(xc)   XCENC  =      3596.37473732
  PAW double counting   =     87909.84259116   -91304.04694619
  entropy T*S    EENTRO =        -0.06957946
  eigenvalues    EBANDS =     -1136.52927109
  atomic energy  EATOM  =     82705.81968683
  Solvation  Ediel_sol  =         0.00000000
  ---------------------------------------------------
  free energy    TOTEN  =     -1033.23657800 eV

  energy without entropy =    -1033.16699854  energy(sigma->0) =    -1033.20178827


--------------------------------------------------------------------------------------------------------




--------------------------------------- Iteration      1(  10)  ---------------------------------------


    POTLOK:  cpu time    0.2882: real time    0.2889
    SETDIJ:  cpu time    0.0436: real time    0.0437
     EDDAV:  cpu time  178.7789: real time  179.2026
    CHARGE:  cpu time    5.5351: real time    5.5483
    MIXING:  cpu time    0.0072: real time    0.0072
    --------------------------------------------
      LOOP:  cpu time  184.6530: real time  185.0906

 eigenvalue-minimisations  : 32528
 total energy-change (2. order) : 0.1906907E+03  (-0.2250400E+02)
 number of electron     912.0000034 magnetization      80.1173036
 augmentation part      348.2100855 magnetization      65.5508994

 Broyden mixing:
  rms(total) = 0.15396E+02    rms(broyden)= 0.15394E+02
  rms(prec ) = 0.18716E+02
  weight for this iteration     100.00

 eigenvalues of (default mixing * dielectric matrix)
  average eigenvalue GAMMA=   0.4362
  1.0332  0.5974  0.2182  0.2182  0.1139

 Free energy of the ion-electron system (eV)
  ---------------------------------------------------
  alpha Z        PSCENC =      3286.56245407
  Ewald energy   TEWEN  =    -56918.44557799
  -Hartree energ DENC   =    -29196.10303338
  -exchange      EXHF   =         0.00000000
  -V(xc)+E(xc)   XCENC  =      3598.13531183
  PAW double counting   =     90850.90376675   -94319.61133980
  entropy T*S    EENTRO =        -0.10429117
  eigenvalues    EBANDS =      -849.70280576
  atomic energy  EATOM  =     82705.81968683
  Solvation  Ediel_sol  =         0.00000000
  ---------------------------------------------------
  free energy    TOTEN  =      -842.54582863 eV

  energy without entropy =     -842.44153745  energy(sigma->0) =     -842.49368304


--------------------------------------------------------------------------------------------------------




--------------------------------------- Iteration      1(  11)  ---------------------------------------


    POTLOK:  cpu time    0.2902: real time    0.2909
    SETDIJ:  cpu time    0.0438: real time    0.0439
     EDDAV:  cpu time  166.6543: real time  167.0492
    CHARGE:  cpu time    5.4518: real time    5.4647
    MIXING:  cpu time    0.0069: real time    0.0069
    --------------------------------------------
      LOOP:  cpu time  172.4470: real time  172.8556

 eigenvalue-minimisations  : 29152
 total energy-change (2. order) : 0.4641604E+02  (-0.3930952E+02)
 number of electron     912.0000043 magnetization      73.0470642
 augmentation part      337.6852615 magnetization      60.4133154

 Broyden mixing:
  rms(total) = 0.15250E+02    rms(broyden)= 0.15248E+02
  rms(prec ) = 0.18914E+02
  weight for this iteration     100.00

 eigenvalues of (default mixing * dielectric matrix)
  average eigenvalue GAMMA=   0.4688
  1.4041  0.5598  0.2992  0.2992  0.1435  0.1068

 Free energy of the ion-electron system (eV)
  ---------------------------------------------------
  alpha Z        PSCENC =      3286.56245407
  Ewald energy   TEWEN  =    -56918.44557799
  -Hartree energ DENC   =    -29235.08886916
  -exchange      EXHF   =         0.00000000
  -V(xc)+E(xc)   XCENC  =      3596.68011533
  PAW double counting   =     92682.57059755   -96197.72922113
  entropy T*S    EENTRO =        -0.09560265
  eigenvalues    EBANDS =      -716.40336917
  atomic energy  EATOM  =     82705.81968683
  Solvation  Ediel_sol  =         0.00000000
  ---------------------------------------------------
  free energy    TOTEN  =      -796.12978632 eV

  energy without entropy =     -796.03418366  energy(sigma->0) =     -796.08198499


--------------------------------------------------------------------------------------------------------




--------------------------------------- Iteration      1(  12)  ---------------------------------------


    POTLOK:  cpu time    0.2928: real time    0.2935
    SETDIJ:  cpu time    0.0448: real time    0.0449
     EDDAV:  cpu time  174.9285: real time  175.3429
    CHARGE:  cpu time    5.6152: real time    5.6285
    MIXING:  cpu time    0.0079: real time    0.0079
    --------------------------------------------
      LOOP:  cpu time  180.8892: real time  181.3178

 eigenvalue-minimisations  : 31408
 total energy-change (2. order) :-0.2472493E+02  (-0.1906514E+02)
 number of electron     912.0000034 magnetization      68.2646872
 augmentation part      334.7665029 magnetization      55.2358922

 Broyden mixing:
  rms(total) = 0.16054E+02    rms(broyden)= 0.16052E+02
  rms(prec ) = 0.19520E+02
  weight for this iteration     100.00

 eigenvalues of (default mixing * dielectric matrix)
  average eigenvalue GAMMA=   0.4508
  1.5821  0.5162  0.3276  0.3276  0.1449  0.1449  0.1123

 Free energy of the ion-electron system (eV)
  ---------------------------------------------------
  alpha Z        PSCENC =      3286.56245407
  Ewald energy   TEWEN  =    -56918.44557799
  -Hartree energ DENC   =    -29245.81550143
  -exchange      EXHF   =         0.00000000
  -V(xc)+E(xc)   XCENC  =      3594.28993367
  PAW double counting   =     94141.80188239   -97685.27196831
  entropy T*S    EENTRO =        -0.08823679
  eigenvalues    EBANDS =      -699.70738573
  atomic energy  EATOM  =     82705.81968683
  Solvation  Ediel_sol  =         0.00000000
  ---------------------------------------------------
  free energy    TOTEN  =      -820.85471328 eV

  energy without entropy =     -820.76647649  energy(sigma->0) =     -820.81059489


--------------------------------------------------------------------------------------------------------




--------------------------------------- Iteration      1(  13)  ---------------------------------------


    POTLOK:  cpu time    0.2914: real time    0.2921
    SETDIJ:  cpu time    0.0439: real time    0.0440
     EDDAV:  cpu time  163.4730: real time  163.8604
    CHARGE:  cpu time    5.6132: real time    5.6265
    MIXING:  cpu time    0.0087: real time    0.0087
    --------------------------------------------
      LOOP:  cpu time  169.4302: real time  169.8317

 eigenvalue-minimisations  : 28912
 total energy-change (2. order) : 0.6973128E+02  (-0.1848965E+02)
 number of electron     912.0000046 magnetization      66.3531589
 augmentation part      338.0861382 magnetization      53.2508724

 Broyden mixing:
  rms(total) = 0.11961E+02    rms(broyden)= 0.11960E+02
  rms(prec ) = 0.16166E+02
  weight for this iteration     100.00

 eigenvalues of (default mixing * dielectric matrix)
  average eigenvalue GAMMA=   0.4244
  1.5855  0.5124  0.3650  0.3650  0.1769  0.1769  0.1067  0.1067

 Free energy of the ion-electron system (eV)
  ---------------------------------------------------
  alpha Z        PSCENC =      3286.56245407
  Ewald energy   TEWEN  =    -56918.44557799
  -Hartree energ DENC   =    -29229.59246870
  -exchange      EXHF   =         0.00000000
  -V(xc)+E(xc)   XCENC  =      3592.91281895
  PAW double counting   =     95075.69976654   -98629.23333342
  entropy T*S    EENTRO =        -0.09984372
  eigenvalues    EBANDS =      -634.74693604
  atomic energy  EATOM  =     82705.81968683
  Solvation  Ediel_sol  =         0.00000000
  ---------------------------------------------------
  free energy    TOTEN  =      -751.12343348 eV

  energy without entropy =     -751.02358976  energy(sigma->0) =     -751.07351162


--------------------------------------------------------------------------------------------------------




--------------------------------------- Iteration      1(  14)  ---------------------------------------


    POTLOK:  cpu time    0.2817: real time    0.2823
    SETDIJ:  cpu time    0.0423: real time    0.0424
     EDDAV:  cpu time  164.6682: real time  165.0585
    CHARGE:  cpu time    5.5489: real time    5.5621
    MIXING:  cpu time    0.0080: real time    0.0080
    --------------------------------------------
      LOOP:  cpu time  170.5490: real time  170.9532

 eigenvalue-minimisations  : 28608
 total energy-change (2. order) : 0.5147247E+02  (-0.6862996E+01)
 number of electron     912.0000043 magnetization      65.0923084
 augmentation part      338.7092461 magnetization      50.9937313

 Broyden mixing:
  rms(total) = 0.81297E+01    rms(broyden)= 0.81282E+01
  rms(prec ) = 0.11012E+02
  weight for this iteration     100.00

 eigenvalues of (default mixing * dielectric matrix)
  average eigenvalue GAMMA=   0.4003
  1.5159  0.5485  0.4075  0.4075  0.1963  0.1963  0.1237  0.1034  0.1034

 Free energy of the ion-electron system (eV)
  ---------------------------------------------------
  alpha Z        PSCENC =      3286.56245407
  Ewald energy   TEWEN  =    -56918.44557799
  -Hartree energ DENC   =    -29247.50903816
  -exchange      EXHF   =         0.00000000
  -V(xc)+E(xc)   XCENC  =      3591.17456106
  PAW double counting   =     95247.88449611   -98801.98026769
  entropy T*S    EENTRO =        -0.10972962
  eigenvalues    EBANDS =      -563.04755025
  atomic energy  EATOM  =     82705.81968683
  Solvation  Ediel_sol  =         0.00000000
  ---------------------------------------------------
  free energy    TOTEN  =      -699.65096565 eV

  energy without entropy =     -699.54123603  energy(sigma->0) =     -699.59610084


--------------------------------------------------------------------------------------------------------




--------------------------------------- Iteration      1(  15)  ---------------------------------------


    POTLOK:  cpu time    0.2970: real time    0.2977
    SETDIJ:  cpu time    0.0454: real time    0.0455
     EDDAV:  cpu time  179.5174: real time  179.9532
    CHARGE:  cpu time    5.6473: real time    5.6607
    MIXING:  cpu time    0.0096: real time    0.0097
    --------------------------------------------
      LOOP:  cpu time  185.5168: real time  185.9668

 eigenvalue-minimisations  : 31856
 total energy-change (2. order) : 0.8894414E+01  (-0.5700850E+01)
 number of electron     912.0000036 magnetization      63.1972141
 augmentation part      337.6346752 magnetization      49.7068382

 Broyden mixing:
  rms(total) = 0.75450E+01    rms(broyden)= 0.75442E+01
  rms(prec ) = 0.94997E+01
  weight for this iteration     100.00

 eigenvalues of (default mixing * dielectric matrix)
  average eigenvalue GAMMA=   0.3794
  1.4189  0.5859  0.4675  0.4675  0.2007  0.2007  0.1355  0.1153  0.1153  0.0873

 Free energy of the ion-electron system (eV)
  ---------------------------------------------------
  alpha Z        PSCENC =      3286.56245407
  Ewald energy   TEWEN  =    -56918.44557799
  -Hartree energ DENC   =    -29266.74495478
  -exchange      EXHF   =         0.00000000
  -V(xc)+E(xc)   XCENC  =      3589.39692947
  PAW double counting   =     95220.53067303   -98771.63712917
  entropy T*S    EENTRO =        -0.11260351
  eigenvalues    EBANDS =      -536.12602951
  atomic energy  EATOM  =     82705.81968683
  Solvation  Ediel_sol  =         0.00000000
  ---------------------------------------------------
  free energy    TOTEN  =      -690.75655156 eV

  energy without entropy =     -690.64394805  energy(sigma->0) =     -690.70024981


--------------------------------------------------------------------------------------------------------




--------------------------------------- Iteration      1(  16)  ---------------------------------------


    POTLOK:  cpu time    0.2947: real time    0.2954
    SETDIJ:  cpu time    0.0444: real time    0.0445
     EDDAV:  cpu time  177.5395: real time  177.9601
    CHARGE:  cpu time    5.5469: real time    5.5601
    MIXING:  cpu time    0.0156: real time    0.0633
    --------------------------------------------
      LOOP:  cpu time  183.4410: real time  183.9234

 eigenvalue-minimisations  : 31456
 total energy-change (2. order) : 0.7217514E+01  (-0.2544072E+01)
 number of electron     912.0000035 magnetization      61.6120973
 augmentation part      336.6624662 magnetization      48.3275339

 Broyden mixing:
  rms(total) = 0.45863E+01    rms(broyden)= 0.45855E+01
  rms(prec ) = 0.54539E+01
  weight for this iteration     100.00

 eigenvalues of (default mixing * dielectric matrix)
  average eigenvalue GAMMA=   0.3627
  1.3613  0.5658  0.4947  0.4947  0.2385  0.2025  0.2025  0.1200  0.1200  0.0946
  0.0946

 Free energy of the ion-electron system (eV)
  ---------------------------------------------------
  alpha Z        PSCENC =      3286.56245407
  Ewald energy   TEWEN  =    -56918.44557799
  -Hartree energ DENC   =    -29297.05146609
  -exchange      EXHF   =         0.00000000
  -V(xc)+E(xc)   XCENC  =      3587.39829252
  PAW double counting   =     95180.78842663   -98725.57590056
  entropy T*S    EENTRO =        -0.11630897
  eigenvalues    EBANDS =      -502.91864431
  atomic energy  EATOM  =     82705.81968683
  Solvation  Ediel_sol  =         0.00000000
  ---------------------------------------------------
  free energy    TOTEN  =      -683.53903788 eV

  energy without entropy =     -683.42272892  energy(sigma->0) =     -683.48088340


--------------------------------------------------------------------------------------------------------




--------------------------------------- Iteration      1(  17)  ---------------------------------------


    POTLOK:  cpu time    0.2972: real time    0.2979
    SETDIJ:  cpu time    0.0449: real time    0.0450
     EDDAV:  cpu time  172.8587: real time  173.2683
    CHARGE:  cpu time    5.6820: real time    5.6954
    MIXING:  cpu time    0.0092: real time    0.0092
    --------------------------------------------
      LOOP:  cpu time  178.8918: real time  179.3157

 eigenvalue-minimisations  : 30240
 total energy-change (2. order) : 0.3654167E+01  (-0.1995395E+01)
 number of electron     912.0000029 magnetization      59.4577639
 augmentation part      337.0938804 magnetization      46.7489851

 Broyden mixing:
  rms(total) = 0.34565E+01    rms(broyden)= 0.34556E+01
  rms(prec ) = 0.38683E+01
  weight for this iteration     100.00

 eigenvalues of (default mixing * dielectric matrix)
  average eigenvalue GAMMA=   0.3559
  1.2776  0.5938  0.5230  0.5230  0.3570  0.2578  0.1772  0.1276  0.1276  0.1071
  0.1071  0.0915

 Free energy of the ion-electron system (eV)
  ---------------------------------------------------
  alpha Z        PSCENC =      3286.56245407
  Ewald energy   TEWEN  =    -56918.44557799
  -Hartree energ DENC   =    -29301.78254403
  -exchange      EXHF   =         0.00000000
  -V(xc)+E(xc)   XCENC  =      3586.38788234
  PAW double counting   =     95213.11368778   -98751.81750737
  entropy T*S    EENTRO =        -0.11913253
  eigenvalues    EBANDS =      -499.60381986
  atomic energy  EATOM  =     82705.81968683
  Solvation  Ediel_sol  =         0.00000000
  ---------------------------------------------------
  free energy    TOTEN  =      -679.88487076 eV

  energy without entropy =     -679.76573824  energy(sigma->0) =     -679.82530450


--------------------------------------------------------------------------------------------------------




--------------------------------------- Iteration      1(  18)  ---------------------------------------


    POTLOK:  cpu time    0.2950: real time    0.2957
    SETDIJ:  cpu time    0.0449: real time    0.0450
     EDDAV:  cpu time  174.3208: real time  174.7339
    CHARGE:  cpu time    5.6049: real time    5.6182
    MIXING:  cpu time    0.0086: real time    0.0087
    --------------------------------------------
      LOOP:  cpu time  180.2743: real time  180.7015

 eigenvalue-minimisations  : 30656
 total energy-change (2. order) : 0.6156457E-01  (-0.1033466E+01)
 number of electron     912.0000027 magnetization      56.5568289
 augmentation part      337.3764770 magnetization      43.2401583

 Broyden mixing:
  rms(total) = 0.24847E+01    rms(broyden)= 0.24842E+01
  rms(prec ) = 0.27593E+01
  weight for this iteration     100.00

 eigenvalues of (default mixing * dielectric matrix)
  average eigenvalue GAMMA=   0.3654
  1.2032  0.6367  0.6367  0.5770  0.3826  0.3826  0.1916  0.1916  0.1145  0.1145
  0.1257  0.0967  0.0967

 Free energy of the ion-electron system (eV)
  ---------------------------------------------------
  alpha Z        PSCENC =      3286.56245407
  Ewald energy   TEWEN  =    -56918.44557799
  -Hartree energ DENC   =    -29304.47355859
  -exchange      EXHF   =         0.00000000
  -V(xc)+E(xc)   XCENC  =      3585.31745079
  PAW double counting   =     95276.54838715   -98806.39429439
  entropy T*S    EENTRO =        -0.10924467
  eigenvalues    EBANDS =      -504.64860940
  atomic energy  EATOM  =     82705.81968683
  Solvation  Ediel_sol  =         0.00000000
  ---------------------------------------------------
  free energy    TOTEN  =      -679.82330620 eV

  energy without entropy =     -679.71406153  energy(sigma->0) =     -679.76868386


--------------------------------------------------------------------------------------------------------




--------------------------------------- Iteration      1(  19)  ---------------------------------------


    POTLOK:  cpu time    0.2711: real time    0.2717
    SETDIJ:  cpu time    0.0445: real time    0.0446
     EDDAV:  cpu time  167.4176: real time  167.8144
    CHARGE:  cpu time    5.7434: real time    5.7571
    MIXING:  cpu time    0.0110: real time    0.0110
    --------------------------------------------
      LOOP:  cpu time  173.4876: real time  173.8988

 eigenvalue-minimisations  : 29184
 total energy-change (2. order) :-0.5264990E+01  (-0.1102826E+01)
 number of electron     912.0000034 magnetization      53.1898038
 augmentation part      337.3268848 magnetization      40.9703304

 Broyden mixing:
  rms(total) = 0.33928E+01    rms(broyden)= 0.33922E+01
  rms(prec ) = 0.40362E+01
  weight for this iteration     100.00

 eigenvalues of (default mixing * dielectric matrix)
  average eigenvalue GAMMA=   0.3810
  1.1632  0.7926  0.7926  0.6703  0.4127  0.4127  0.2025  0.2025  0.1431  0.1190
  0.1190  0.1061  0.1061  0.0914

 Free energy of the ion-electron system (eV)
  ---------------------------------------------------
  alpha Z        PSCENC =      3286.56245407
  Ewald energy   TEWEN  =    -56918.44557799
  -Hartree energ DENC   =    -29307.73085093
  -exchange      EXHF   =         0.00000000
  -V(xc)+E(xc)   XCENC  =      3583.69873328
  PAW double counting   =     95409.73226447   -98930.06851714
  entropy T*S    EENTRO =        -0.10858215
  eigenvalues    EBANDS =      -514.54790660
  atomic energy  EATOM  =     82705.81968683
  Solvation  Ediel_sol  =         0.00000000
  ---------------------------------------------------
  free energy    TOTEN  =      -685.08829617 eV

  energy without entropy =     -684.97971402  energy(sigma->0) =     -685.03400509


--------------------------------------------------------------------------------------------------------




--------------------------------------- Iteration      1(  20)  ---------------------------------------


    POTLOK:  cpu time    0.2938: real time    0.2945
    SETDIJ:  cpu time    0.0453: real time    0.0454
     EDDAV:  cpu time  175.9474: real time  176.3642
    CHARGE:  cpu time    5.6657: real time    5.6791
    MIXING:  cpu time    0.0105: real time    0.0105
    --------------------------------------------
      LOOP:  cpu time  181.9626: real time  182.3938

 eigenvalue-minimisations  : 31184
 total energy-change (2. order) :-0.1577216E+01  (-0.1249358E+01)
 number of electron     912.0000026 magnetization      49.2647550
 augmentation part      337.3373026 magnetization      37.0302057

 Broyden mixing:
  rms(total) = 0.26063E+01    rms(broyden)= 0.26057E+01
  rms(prec ) = 0.30814E+01
  weight for this iteration     100.00

 eigenvalues of (default mixing * dielectric matrix)
  average eigenvalue GAMMA=   0.4071
  1.1906  1.0031  1.0031  0.6962  0.4398  0.4398  0.2950  0.1929  0.1929  0.1143
  0.1143  0.1176  0.1176  0.0926  0.0971

 Free energy of the ion-electron system (eV)
  ---------------------------------------------------
  alpha Z        PSCENC =      3286.56245407
  Ewald energy   TEWEN  =    -56918.44557799
  -Hartree energ DENC   =    -29312.22151791
  -exchange      EXHF   =         0.00000000
  -V(xc)+E(xc)   XCENC  =      3582.16513360
  PAW double counting   =     95623.75993599   -99136.67107768
  entropy T*S    EENTRO =        -0.10690524
  eigenvalues    EBANDS =      -517.52764403
  atomic energy  EATOM  =     82705.81968683
  Solvation  Ediel_sol  =         0.00000000
  ---------------------------------------------------
  free energy    TOTEN  =      -686.66551237 eV

  energy without entropy =     -686.55860713  energy(sigma->0) =     -686.61205975


--------------------------------------------------------------------------------------------------------




[...]
      7.13114      1.37653      8.05368        -0.100406      0.146968      0.460134
      7.15130      3.91022      9.23313        -1.183380     -0.871687      1.931915
      5.82055      0.80280      5.51336        -1.475289      3.384621     -2.994958
      5.83230      1.00007      1.93999        -3.025377      2.484228      2.308063
      7.46608      3.98514     12.42217        -6.892955     -6.235768     -0.830983
      7.35648      8.37526      0.57475        -6.099373     -2.270771      7.437658
      5.79962      6.08917     13.96543        -1.136431     -1.232761     -4.312548
      7.31772      8.24090      6.67272        -4.849176      2.371235     -0.641410
      5.91016      5.93001      8.10020        -2.016531      3.990547     -4.473289
      5.87163      8.87658      9.40421        -2.860854     -2.045788      0.184509
      7.25199      5.67880      5.35219        -1.499045      1.758750     -2.456915
      7.24074      5.81045      1.74054        -3.172236     -1.424052      5.890537
      5.76396      9.05355     12.64085        11.403225    -10.530273     -7.126296
      8.46732      0.07110      7.33362         0.209890      0.551887      0.758847
      8.45730      9.42545     14.15916         4.582270      3.099184      1.489581
      1.58644      0.50971     12.28787        -0.670365     -0.615911      0.899198
      0.05647      4.58105      2.23179        -1.081843     -0.783462     -0.986675
      8.43825      4.49696      4.81290         1.602723     -0.071720      2.473764
      1.37566      0.35353      9.66353         0.600121      0.437819     -2.063728
      8.46983      2.68287     13.51266         1.817879     -1.217520     -5.047298
      1.65678      2.03999      1.05047         0.924214      7.402468     15.632205
      1.40769      2.18761      6.07495         0.384378     -0.274027      1.386890
      0.04657      2.64836      8.47247         0.337107      0.803229     -0.069068
      1.41992      3.11446     11.01396         0.291212      0.903552     -0.466389
      8.37202      1.61897      3.71707         0.192390      0.211458     -0.104834
      1.52800      4.87406      7.06959        -0.308252     -0.294316      0.768146
      1.52360      4.88816     14.17833        -1.230156     -0.809741      1.201047
      8.29602      5.24455     12.46855         7.566980      6.791685     -4.850653
      1.50152      0.06751      2.21724        -0.398677     -4.529479     -0.193786
      1.46990      9.33327      4.89327        -2.398387     -1.936209     -0.052788
      8.45590      5.07033      9.49668         1.497683      0.411209      0.288008
      1.37431      7.53234     13.41949         0.060889     -3.460871     -7.648836
      0.01268      6.86137      1.15966         2.087600      2.136374      2.486204
      8.30872      6.99167      6.16845         4.131962     -2.802204     -0.476204
      1.21942      7.53963      8.52523         2.642455     -1.382128     -1.661446
      0.04505      7.96130     10.87780         0.133582     -0.475769      0.909021
      1.48061      6.56453      3.72588        -0.194986     -0.566237      1.054323
      2.90016      9.36799      7.23851         2.186923      2.043898      1.382711
      2.99657      9.34158      0.03686        -2.019555      3.370982     -0.773366
      4.47204      0.20057     12.40305       -13.139744      7.765240     -3.793623
      2.90319      4.49158      2.36983        -0.655463      0.529900     -1.373624
      2.91003      4.52109      4.94753         0.267767      0.633046      1.993503
      4.26997      0.25284      9.54714         0.252795      1.889408     -0.687269
      2.97895      2.69521     13.47784         0.108980     -0.998767     -3.405565
      4.31517      2.18034      1.12070         0.425467      0.653219      2.171310
      4.48104      2.15855      5.99394        -0.694746      0.299725      1.802720
      2.89055      2.67631      8.51177         0.014794      0.260608     -1.039849
      4.35613      3.24373     11.00681         0.117797     -0.967996     -2.466548
      2.83647      1.66532      3.64830         0.066435     -0.149873     -0.010418
      4.24744      5.19339      7.34084         0.407086     -1.436803     -0.634632
      4.22645      4.71186      0.01267         0.801628      0.642985      1.208485
      2.86424      5.00637     12.12154         2.631082      2.190011      0.641028
      4.35593      9.35183      2.32304         1.669271     -2.074917     -0.380113
      4.34241      0.04456      4.82228        -0.179058     -2.219321      1.773065
      2.96292      5.08011      9.47770        -0.335441     -1.527176      2.529625
      4.45044      7.38095     13.43986        -0.601201     -1.091066     -1.038665
      2.86654      7.10560      0.98179        -1.028147      4.110498     11.048022
      2.93775      7.03345      6.15852        -0.810814     -0.215715      0.241894
      4.36490      7.55816      8.26990        -0.604053     -0.248762      1.365337
      2.84938      7.81749     11.02646         0.206249      1.526103     -0.858767
      4.44920      6.40799      3.76463        -0.335898      1.964990     -5.217636
      5.90549      0.03391      7.25338        -0.093362      0.141137      0.523739
      5.88993      0.07419     14.17700         0.092852      1.926005      6.930361
      7.23781      0.37541     12.21365         0.717687      2.528504     -0.965758
      5.72107      4.66232      2.39789         1.051398     -0.623163     -2.414323
      5.78616      4.70176      5.09111         0.222784     -1.713031      0.510340
      7.29784      0.25728      9.64848         0.000247      3.759781      0.006324
      5.75216      2.71334     13.38675        -0.185074     -3.711750     -6.168366
      7.37812      2.14688      1.12993        -1.733692      0.465069      2.378980
      7.32479      2.38179      6.26562        -0.014839     -0.994697      0.732969
      5.65213      2.72198      8.42795         0.619494      0.385779     -0.357951
      7.20109      3.06174     11.10418        -0.166646     -0.662022     -3.186119
      5.88333      1.79047      3.68341         0.437474     -1.070820      0.263489
      7.34310      4.90560      7.30846        -0.940042     -0.785427     -0.698780
      7.24036      4.75701     14.14206        -2.588718      0.222483      2.319337
      5.80248      5.07332     12.32894        -0.307214      0.564352      0.229437
      7.16773      0.01358      2.14381         0.078894     -5.039325      0.705982
      7.28989      0.06243      5.09204        -3.850415     -6.817011     -1.458527
      5.75345      5.29350      9.57536        -0.098321     -3.296244      2.933927
      7.29337      7.56922     13.27482        -2.717157     -1.513219     -2.396326
      5.86259      7.02960      1.20383         0.066532      1.301625      1.537020
      5.70816      7.06659      6.09590         0.716074     -0.549466      0.635887
      7.13984      7.47115      8.43682        -0.723167      0.362173      0.297510
      5.76511      8.16491     11.01247         0.114421     -0.022500      0.074919
      7.37159      6.53289      3.53668        -0.289565     -0.635656      0.466787
 -----------------------------------------------------------------------------------
    total drift:                               -0.007211      0.013740     -0.048584


--------------------------------------------------------------------------------------------------------



  FREE ENERGIE OF THE ION-ELECTRON SYSTEM (eV)
  ---------------------------------------------------
  free  energy   TOTEN  =      -701.9414511745 eV

  energy  without entropy=     -701.8411074220  energy(sigma->0) =     -701.89127930
 


--------------------------------------------------------------------------------------------------------


    POTLOK:  cpu time    0.3310: real time    0.3318


--------------------------------------------------------------------------------------------------------


     LOOP+:  cpu time13561.7039: real time13594.2208
    4ORBIT:  cpu time    0.0000: real time    0.0000

volume of typ            1:    26.8 %

volume of typ            2:    10.3 %
 
total charge     
 
# of ion       s       p       d       tot
------------------------------------------
    1        0.293   0.397   8.003   8.693
    2        0.326   0.465   8.090   8.882
    3        0.249   0.308   7.907   8.464
    4        0.221   0.251   7.968   8.440
    5        0.243   0.270   7.867   8.380
    6        0.305   0.417   7.950   8.672
    7        0.310   0.398   7.956   8.664
    8        0.297   0.353   7.926   8.576
    9        0.301   0.398   8.066   8.765
   10        0.313   0.457   8.001   8.771
   11        0.251   0.299   7.974   8.523
   12        0.262   0.329   7.930   8.520
   13        0.313   0.442   7.895   8.651
   14        0.239   0.283   7.854   8.376
   15        0.262   0.297   7.887   8.446
   16        0.311   0.441   7.938   8.690
   17        0.272   0.360   7.936   8.568
   18        0.272   0.357   7.998   8.628
   19        0.206   0.219   7.889   8.314
   20        0.212   0.229   7.915   8.356
   21        0.245   0.290   7.867   8.402
   22        0.297   0.360   7.906   8.562
   23        0.309   0.389   7.927   8.625
   24        0.294   0.391   7.866   8.551
   25        0.298   0.389   7.993   8.680
   26        0.311   0.399   8.026   8.736
   27        0.249   0.307   7.903   8.458
   28        0.251   0.293   7.920   8.465
   29        0.256   0.287   7.870   8.413
   30        0.300   0.383   7.858   8.542
   31        0.254   0.271   7.900   8.425
   32        0.287   0.363   7.917   8.567
   33        0.271   0.336   8.008   8.615
   34        0.295   0.406   8.003   8.704
   35        0.228   0.252   7.913   8.393
   36        0.229   0.268   7.940   8.438
   37        0.240   0.275   7.902   8.417
   38        0.282   0.354   7.904   8.540
   39        0.271   0.322   7.926   8.519
   40        0.365   0.519   7.961   8.845
   41        0.307   0.427   8.025   8.759
   42        0.260   0.322   7.964   8.547
   43        0.278   0.363   7.956   8.596
   44        0.273   0.330   7.957   8.560
   45        0.298   0.351   7.897   8.547
   46        0.279   0.344   7.868   8.490
   47        0.276   0.363   7.900   8.538
   48        0.419   0.616   8.050   9.085
   49        1.276   2.813   0.013   4.101
   50        1.278   2.901   0.023   4.202
   51        1.283   2.700   0.006   3.989
   52        1.280   2.749   0.010   4.039
   53        1.299   2.660   0.007   3.965
   54        1.292   2.688   0.008   3.987
   55        1.275   2.834   0.015   4.124
   56        1.289   2.858   0.023   4.170
   57        1.270   2.753   0.006   4.030
   58        1.273   2.749   0.007   4.029
   59        1.288   2.689   0.007   3.985
   60        1.304   2.611   0.004   3.919
   61        1.276   2.760   0.008   4.044
   62        1.277   2.778   0.009   4.064
   63        1.290   2.844   0.022   4.156
   64        1.276   2.792   0.013   4.081
   65        1.288   2.754   0.014   4.057
   66        1.276   2.749   0.009   4.034
   67        1.276   2.850   0.017   4.144
   68        1.271   2.833   0.014   4.119
   69        1.265   2.810   0.011   4.086
   70        1.261   2.794   0.008   4.063
   71        1.289   2.672   0.005   3.967
   72        1.287   2.676   0.006   3.970
   73        1.273   2.793   0.011   4.077
   74        1.282   2.851   0.018   4.152
   75        1.286   2.892   0.028   4.206
   76        1.283   2.715   0.009   4.007
   77        1.293   2.654   0.005   3.951
   78        1.279   2.743   0.010   4.032
   79        1.283   2.776   0.010   4.069
   80        1.276   2.779   0.009   4.064
   81        1.279   2.718   0.005   4.002
   82        1.272   2.730   0.006   4.009
   83        1.286   2.709   0.008   4.004
   84        1.294   2.668   0.006   3.968
   85        1.291   2.708   0.006   4.004
   86        1.287   2.763   0.009   4.060
   87        1.290   2.714   0.009   4.014
   88        1.281   2.759   0.012   4.052
   89        1.292   2.704   0.009   4.004
   90        1.278   2.776   0.013   4.067
   91        1.285   2.745   0.008   4.038
   92        1.281   2.854   0.022   4.157
   93        1.281   2.709   0.005   3.995
   94        1.288   2.710   0.006   4.004
   95        1.291   2.658   0.005   3.954
   96        1.291   2.727   0.012   4.030
   97        1.272   2.777   0.008   4.057
   98        1.282   2.848   0.016   4.145
   99        1.285   2.789   0.014   4.088
  100        1.289   2.674   0.006   3.969
  101        1.282   2.738   0.010   4.030
  102        1.283   2.782   0.015   4.080
  103        1.282   2.806   0.015   4.103
  104        1.275   2.818   0.013   4.105
  105        1.275   2.767   0.008   4.050
  106        1.262   2.759   0.006   4.028
  107        1.290   2.704   0.009   4.002
  108        1.302   2.602   0.003   3.907
  109        1.281   2.781   0.010   4.072
  110        1.300   2.785   0.012   4.097
  111        1.288   2.708   0.007   4.003
  112        1.278   2.811   0.016   4.105
  113        1.286   2.809   0.019   4.114
  114        1.289   2.736   0.013   4.038
  115        1.277   2.839   0.016   4.132
  116        1.270   2.776   0.009   4.055
  117        1.278   2.732   0.005   4.016
  118        1.273   2.777   0.009   4.059
  119        1.288   2.693   0.007   3.988
  120        1.299   2.615   0.003   3.917
--------------------------------------------------
tot         105.73  215.24  381.83  702.80
 
magnetization (x)
 
# of ion       s       p       d       tot
------------------------------------------
    1        0.001   0.001  -0.076  -0.074
    2       -0.001  -0.000  -0.068  -0.069
    3       -0.001  -0.002   0.076   0.073
    4        0.004   0.001   0.279   0.284
    5       -0.001   0.008   0.833   0.840
    6       -0.001   0.005   0.095   0.099
    7        0.002   0.003   0.214   0.219
    8        0.002   0.006   0.293   0.302
    9       -0.000   0.000  -0.040  -0.040
   10        0.000   0.003   0.175   0.178
   11        0.001   0.009   0.831   0.840
   12       -0.000   0.000  -0.553  -0.553
   13       -0.002   0.001   0.122   0.121
   14       -0.001   0.003   0.352   0.355
   15       -0.000   0.020   0.894   0.914
   16       -0.001  -0.001   0.093   0.091
   17       -0.001   0.001  -0.097  -0.097
   18        0.001  -0.000   0.037   0.037
   19        0.005   0.001   0.868   0.874
   20       -0.002  -0.000  -0.995  -0.998
   21       -0.001   0.003   0.525   0.526
   22       -0.000   0.002  -0.033  -0.032
   23       -0.000   0.002   0.054   0.056
   24       -0.000   0.002   0.337   0.339
   25       -0.000  -0.001  -0.073  -0.074
   26       -0.001  -0.000  -0.034  -0.035
   27        0.000   0.000  -0.063  -0.062
   28       -0.003  -0.004  -0.700  -0.708
   29       -0.000  -0.001   0.106   0.104
   30       -0.000   0.002   0.279   0.281
   31       -0.001   0.005   0.215   0.219
   32       -0.000  -0.000   0.068   0.068
   33        0.000   0.000  -0.129  -0.129
   34       -0.000   0.000  -0.014  -0.015
   35        0.003   0.004   0.829   0.837
   36       -0.001   0.001  -0.537  -0.536
   37        0.000   0.001   0.336   0.337
   38       -0.003  -0.001  -0.135  -0.139
   39       -0.002   0.009   0.606   0.612
   40        0.002   0.005   0.358   0.365
   41       -0.000   0.001  -0.068  -0.068
   42       -0.000  -0.000  -0.001  -0.002
   43       -0.000  -0.002   0.049   0.047
   44        0.002   0.002  -0.097  -0.093
   45        0.000  -0.001   0.082   0.081
   46       -0.001   0.003   0.199   0.201
   47       -0.001   0.002   0.153   0.154
   48        0.000  -0.001  -0.012  -0.012
   49        0.001   0.001   0.000   0.002
   50       -0.000  -0.007   0.000  -0.007
   51        0.001   0.011   0.000   0.012
   52        0.005   0.078   0.000   0.083
   53        0.003   0.092  -0.000   0.095
   54        0.002   0.053   0.000   0.055
   55        0.001   0.005   0.000   0.006
   56       -0.001  -0.012  -0.000  -0.012
   57        0.005   0.046   0.000   0.051
   58        0.004  -0.009   0.000  -0.005
   59        0.008   0.356  -0.000   0.365
   60        0.013   0.549   0.000   0.562
   61        0.001  -0.025   0.000  -0.024
   62        0.001  -0.003   0.000  -0.002
   63        0.005   0.103   0.000   0.108
   64        0.001  -0.004   0.000  -0.003
   65        0.003   0.116  -0.000   0.119
   66        0.001   0.022   0.000   0.024
   67        0.001   0.013  -0.000   0.014
   68        0.002   0.011   0.000   0.013
   69        0.003   0.004   0.000   0.007
   70       -0.002  -0.006  -0.000  -0.007
   71        0.007   0.330  -0.000   0.337
   72        0.011   0.474   0.000   0.485
   73        0.002   0.009   0.000   0.011
   74        0.001  -0.005   0.000  -0.004
   75        0.001  -0.005   0.000  -0.004
   76        0.004   0.069   0.000   0.074
   77        0.004   0.105   0.000   0.109
   78       -0.001  -0.072   0.000  -0.073
   79       -0.000  -0.012   0.000  -0.012
   80       -0.000  -0.010  -0.000  -0.011
   81        0.001   0.011   0.000   0.013
   82        0.002  -0.015   0.000  -0.013
   83        0.010   0.389  -0.000   0.399
   84        0.003   0.106   0.000   0.109
   85       -0.002  -0.013   0.000  -0.015
   86        0.001  -0.018   0.000  -0.017
   87        0.003   0.058   0.000   0.061
   88        0.003   0.044   0.000   0.047
   89       -0.001  -0.045  -0.000  -0.047
   90        0.003   0.016  -0.000   0.019
   91       -0.001  -0.012  -0.000  -0.013
   92       -0.001  -0.011  -0.000  -0.011
   93        0.002   0.022   0.000   0.024
   94       -0.002  -0.081  -0.000  -0.083
   95        0.004   0.191  -0.000   0.195
   96        0.006   0.260   0.000   0.266
   97       -0.006  -0.014  -0.000  -0.021
   98        0.003   0.001   0.000   0.004
   99        0.000  -0.003  -0.000  -0.003
  100        0.002   0.026   0.000   0.028
  101        0.004   0.118   0.000   0.122
  102       -0.000  -0.003  -0.000  -0.003
  103        0.000   0.004   0.000   0.004
  104        0.001  -0.010   0.000  -0.008
  105        0.002   0.018   0.000   0.020
  106       -0.004  -0.023  -0.000  -0.027
  107        0.007   0.314   0.000   0.321
  108        0.012   0.586   0.000   0.598
  109        0.001  -0.019   0.000  -0.018
  110        0.003  -0.008   0.000  -0.005
  111        0.003   0.074   0.000   0.077
  112        0.003   0.041   0.000   0.045
  113        0.001   0.037  -0.000   0.037
  114        0.003   0.088  -0.000   0.091
  115        0.000   0.005   0.000   0.005
  116        0.000  -0.010   0.000  -0.009
  117       -0.000  -0.012  -0.000  -0.012
  118       -0.003  -0.043  -0.000  -0.046
  119        0.002   0.104  -0.000   0.106
  120        0.010   0.465  -0.000   0.475
--------------------------------------------------
tot           0.16    5.01    5.63   10.80
 

 total amount of memory used by VASP MPI-rank0   538483. kBytes
=======================================================================

   base      :      30000. kBytes
   nonlr-proj:      65222. kBytes
   fftplans  :      10153. kBytes
   grid      :      58351. kBytes
   one-center:       3732. kBytes
   wavefun   :     371025. kBytes
 
  
  
 General timing and accounting informations for this job:
 ========================================================
  
                  Total CPU time used (sec):    13718.000
                            User time (sec):    13702.525
                          System time (sec):       15.475
                         Elapsed time (sec):    13755.816
  
                   Maximum memory used (kb):      643048.
                   Average memory used (kb):           0.
  
                          Minor page faults:        44690
                          Major page faults:           37
                 Voluntary context switches:         1189
