 vasp.5.4.4.18Apr17-6-g9f103f2a35 (build May 12 2020 04:58:55) complex          
  
 MD_VERSION_INFO: Compiled 2020-05-12T11:58:55-UTC in devlin.sd.materialsdesign.
 com:/home/medea2/data/build/wwolf/vasp-gpu5.4.4/13047/x86_64/src/src/build/std 
 from svn 13047
 
 This VASP executable licensed from Materials Design, Inc.
 
 executed on                        Lin64 date 2023.03.25  18:49:54
 running on   16 total cores
 distrk:  each k-point on   16 cores,    1 groups
 distr:  one band on NCORES_PER_BAND=   1 cores,   16 groups


--------------------------------------------------------------------------------------------------------


 INCAR:
 POTCAR:    PAW_PBE Ni 02Aug2007                  
 POTCAR:    PAW_PBE O 08Apr2002                   

 ----------------------------------------------------------------------------- 
|                                                                             |
|           W    W    AA    RRRRR   N    N  II  N    N   GGGG   !!!           |
|           W    W   A  A   R    R  NN   N  II  NN   N  G    G  !!!           |
|           W    W  A    A  R    R  N N  N  II  N N  N  G       !!!           |
|           W WW W  AAAAAA  RRRRR   N  N N  II  N  N N  G  GGG   !            |
|           WW  WW  A    A  R   R   N   NN  II  N   NN  G    G                |
|           W    W  A    A  R    R  N    N  II  N    N   GGGG   !!!           |
|                                                                             |
|      For optimal performance we recommend to set                            |
|        NCORE= 4 - approx SQRT( number of cores)                             |
|      NCORE specifies how many cores store one orbital (NPAR=cpu/NCORE).     |
|      This setting can  greatly improve the performance of VASP for DFT.     |
|      The default,   NCORE=1            might be grossly inefficient         |
|      on modern multi-core architectures or massively parallel machines.     |
|      Do your own testing !!!!                                               |
|      Unfortunately you need to use the default for GW and RPA calculations. |
|      (for HF NCORE is supported but not extensively tested yet)             |
|                                                                             |
 ----------------------------------------------------------------------------- 

 POTCAR:    PAW_PBE Ni 02Aug2007                  
  local pseudopotential read in
  partial core-charges read in
  partial kinetic energy density read in
  atomic valenz-charges read in
  non local Contribution for L=           2  read in
    real space projection operators read in
  non local Contribution for L=           2  read in
    real space projection operators read in
  non local Contribution for L=           0  read in
    real space projection operators read in
  non local Contribution for L=           0  read in
    real space projection operators read in
  non local Contribution for L=           1  read in
    real space projection operators read in
  non local Contribution for L=           1  read in
    real space projection operators read in
    PAW grid and wavefunctions read in
 
   number of l-projection  operators is LMAX  =           6
   number of lm-projection operators is LMMAX =          18
 
 POTCAR:    PAW_PBE O 08Apr2002                   
  local pseudopotential read in
  partial core-charges read in
  partial kinetic energy density read in
  kinetic energy density of atom read in
  atomic valenz-charges read in
  non local Contribution for L=           0  read in
    real space projection operators read in
  non local Contribution for L=           0  read in
    real space projection operators read in
  non local Contribution for L=           1  read in
    real space projection operators read in
  non local Contribution for L=           1  read in
    real space projection operators read in
    PAW grid and wavefunctions read in
 
   number of l-projection  operators is LMAX  =           4
   number of lm-projection operators is LMMAX =           8
 
 Optimization of the real space projectors (new method)

 maximal supplied QI-value         = 16.25
 optimisation between [QCUT,QGAM] = [ 11.38, 22.75] = [ 36.24,144.96] Ry 
 Optimized for a Real-space Cutoff    1.47 Angstroem

   l    n(q)    QCUT    max X(q) W(low)/X(q) W(high)/X(q)  e(spline) 
   2      9    11.376    60.317    0.17E-03    0.16E-04    0.16E-06
   2      9    11.376    55.921    0.17E-03    0.16E-04    0.17E-06
   0     10    11.376    51.690    0.45E-04    0.60E-04    0.21E-06
   0     10    11.376    30.015    0.37E-04    0.55E-04    0.19E-06
   1     10    11.376    18.849    0.83E-04    0.11E-03    0.92E-07
   1     10    11.376    14.624    0.69E-04    0.92E-04    0.82E-07
 Optimization of the real space projectors (new method)

 maximal supplied QI-value         = 24.76
 optimisation between [QCUT,QGAM] = [ 11.39, 22.77] = [ 36.31,145.25] Ry 
 Optimized for a Real-space Cutoff    1.10 Angstroem

   l    n(q)    QCUT    max X(q) W(low)/X(q) W(high)/X(q)  e(spline) 
   0      7    11.387    20.381    0.22E-03    0.48E-03    0.18E-06
   0      7    11.387    15.268    0.22E-03    0.52E-03    0.19E-06
   1      7    11.387     5.964    0.22E-03    0.73E-03    0.24E-06
   1      7    11.387     5.382    0.19E-03    0.60E-03    0.21E-06

 ----------------------------------------------------------------------------- 
|                                                                             |
|  ADVICE TO THIS USER RUNNING 'VASP/VAMP'   (HEAR YOUR MASTER'S VOICE ...):  |
|                                                                             |
|      You enforced a specific xc-type in the INCAR file,                     |
|      a different type was found on the POTCAR file                          |
|          I HOPE YOU KNOW, WHAT YOU ARE  DOING                               |
|                                                                             |
 ----------------------------------------------------------------------------- 

  PAW_PBE Ni 02Aug2007                  :
 energy of atom  1       EATOM=-1077.6739
 kinetic energy error for atom=    0.0030 (will be added to EATOM!!)
  PAW_PBE O 08Apr2002                   :
 energy of atom  2       EATOM= -432.3788
 kinetic energy error for atom=    0.0224 (will be added to EATOM!!)
 
 
 POSCAR: Ni2O3_Cc_scale_1_000_disp_0_10_round_2  
  positions in direct lattice
  No initial velocities read in
 exchange correlation table for  LEXCH =       14
   RHO(1)=    0.500       N(1)  =     2000
   RHO(2)=  100.500       N(2)  =     4000
 


--------------------------------------------------------------------------------------------------------


 ion  position               nearest neighbor table
   1  0.918  0.452  0.260-  60 1.64  67 1.70  38 1.74  33 1.91
   2  0.730  0.215  0.238-  40 1.82  37 1.86  38 1.98  36 2.02   3 2.85   5 2.94
   3  0.417  0.295  0.011-  39 1.77  40 1.80  35 1.89  54 2.09   2 2.85  20 3.04   5 3.06
   4  0.264  0.036  0.018-  59 1.67  58 1.86  55 2.08  39 2.10   5 2.99  19 3.00  22 3.01
   5  0.433  0.197  0.257-  44 1.79  37 1.82  39 1.86  42 2.00   2 2.94  16 2.95   4 2.99  22 3.03
                             3 3.06
   6  0.252  0.460  0.257-  68 1.79  34 1.85  42 1.86  67 1.96
   7  0.891  0.047  0.989-  41 1.69  48 1.81  57 1.83  58 1.96  10 2.87  17 3.06   8 3.07
   8  0.730  0.288  0.985-  40 1.87  49 1.88  33 2.04  41 2.04  10 2.93  13 3.03   7 3.07
   9  0.913  0.460  0.746-  45 1.70  50 1.78  79 1.94  72 1.95  26 2.96  31 2.96
  10  0.757  0.205  0.765-  50 1.83  48 1.83  52 1.92  49 1.97   7 2.87   8 2.93  16 3.08
  11  0.415  0.296  0.512-  47 1.66  51 1.84  42 1.96  52 2.01
  12  0.262  0.040  0.507-  71 1.91  43 1.93  51 1.96  70 1.96  13 3.01  22 3.04
  13  0.400  0.190  0.754-  56 1.67  54 1.77  51 1.87  49 2.09  30 2.88  12 3.01   8 3.03
  14  0.301  0.476  0.780-  80 1.36  79 1.91  54 2.03  46 2.25  29 2.69  20 2.89  28 3.09
  15  0.925  0.042  0.511-  70 1.64  53 1.73  69 1.78  36 1.85  16 3.02  30 3.08
  16  0.745  0.266  0.509-  52 1.66  53 1.69  37 1.91  45 2.27   5 2.95  15 3.02  10 3.08
  17  0.884  0.963  0.229-  57 1.61  43 1.97  36 2.01  62 2.07  24 3.00   7 3.06
  18  0.753  0.701  0.248-  62 1.67  64 1.81  61 1.84  60 1.88  24 3.01
  19  0.389  0.796  0.995-  63 1.69  59 1.94  64 2.08  78 2.08   4 3.00  30 3.01
  20  0.258  0.537  0.994-  79 1.66  35 1.77  34 1.96  63 2.02  14 2.89   3 3.04
  21  0.403  0.712  0.256-  66 1.63  68 1.85  63 2.05  61 2.12  27 2.95  32 2.99
  22  0.253  0.973  0.257-  44 1.91  43 1.91  58 1.92  66 1.99   4 3.01   5 3.03  12 3.04  27 3.07

  23  0.901  0.551  0.989-  72 1.73  65 1.88  33 2.04  34 2.10  26 2.87  24 2.97
  24  0.760  0.782  0.010-  65 1.76  64 1.86  73 1.98  57 1.99  23 2.97  17 3.00  18 3.01
  25  0.903  0.945  0.750-  74 1.71  48 1.76  69 1.92  55 1.95
  26  0.768  0.693  0.752-  72 1.59  74 1.81  73 1.92  76 1.95  23 2.87   9 2.96
  27  0.418  0.799  0.494-  71 1.68  76 1.87  75 1.92  66 1.97  21 2.95  32 3.06  22 3.07
  28  0.262  0.546  0.515-  46 1.76  47 1.87  75 1.92  67 2.14  29 2.93  14 3.09
  29  0.397  0.696  0.753-  78 1.62  80 1.82  75 1.98  73 2.09  14 2.69  28 2.93
  30  0.262  0.960  0.759-  56 1.69  55 1.84  78 1.91  70 1.92  13 2.88  19 3.01  15 3.08
  31  0.939  0.551  0.526-  77 1.46  46 1.80  45 1.81  60 2.12   9 2.96
  32  0.737  0.789  0.490-  61 1.63  76 1.76  69 1.99  77 2.03  21 2.99  27 3.06
  33  0.798  0.453  0.071-   1 1.91  23 2.04   8 2.04
  34  0.140  0.473  0.074-   6 1.85  20 1.96  23 2.10
  35  0.447  0.462  0.038-  20 1.77   3 1.89
  36  0.799  0.052  0.327-  15 1.85  17 2.01   2 2.02
  37  0.628  0.281  0.320-   5 1.82   2 1.86  16 1.91
  38  0.944  0.301  0.304-   1 1.74   2 1.98
  39  0.311  0.218  0.073-   3 1.77   5 1.86   4 2.10
  40  0.614  0.225  0.057-   3 1.80   2 1.82   8 1.87
  41  0.942  0.189  0.048-   7 1.69   8 2.04
  42  0.321  0.304  0.320-   6 1.86  11 1.96   5 2.00
  43  0.113  0.030  0.316-  22 1.91  12 1.93  17 1.97
  44  0.465  0.046  0.318-   5 1.79  22 1.91
  45  0.831  0.457  0.580-   9 1.70  31 1.81  16 2.27
  46  0.127  0.480  0.557-  28 1.76  31 1.80  14 2.25
  47  0.436  0.441  0.548-  11 1.66  28 1.87
  48  0.832  0.051  0.818-  25 1.76   7 1.81  10 1.83
  49  0.606  0.296  0.797-   8 1.88  10 1.97  13 2.09
  50  0.925  0.307  0.794-   9 1.78  10 1.83
  51  0.306  0.206  0.572-  11 1.84  13 1.87  12 1.96
  52  0.639  0.220  0.575-  16 1.66  10 1.92  11 2.01
  53  0.920  0.193  0.541-  16 1.69  15 1.73
  54  0.306  0.296  0.805-  13 1.77  14 2.03   3 2.09
  55  0.123  0.014  0.812-  30 1.84  25 1.95   4 2.08
  56  0.429  0.043  0.791-  13 1.67  30 1.69
  57  0.823  0.950  0.075-  17 1.61   7 1.83  24 1.99
  58  0.118  0.982  0.066-   4 1.86  22 1.92   7 1.96
  59  0.439  0.958  0.068-   4 1.67  19 1.94
  60  0.845  0.550  0.319-   1 1.64  18 1.88  31 2.12
  61  0.655  0.763  0.332-  32 1.63  18 1.84  21 2.12
  62  0.921  0.788  0.299-  18 1.67  17 2.07
  63  0.298  0.710  0.054-  19 1.69  20 2.02  21 2.05
  64  0.626  0.724  0.069-  18 1.81  24 1.86  19 2.08
  65  0.948  0.710  0.055-  24 1.76  23 1.88
  66  0.302  0.799  0.299-  21 1.63  27 1.97  22 1.99
  67  0.098  0.526  0.303-   1 1.70   6 1.96  28 2.14
  68  0.429  0.550  0.298-   6 1.79  21 1.85
  69  0.814  0.953  0.563-  15 1.78  25 1.92  32 1.99
  70  0.117  0.995  0.571-  15 1.64  30 1.92  12 1.96
  71  0.451  0.939  0.555-  27 1.68  12 1.91
  72  0.818  0.564  0.820-  26 1.59  23 1.73   9 1.95
  73  0.636  0.759  0.815-  26 1.92  24 1.98  29 2.09
  74  0.939  0.798  0.798-  25 1.71  26 1.81
  75  0.303  0.713  0.560-  27 1.92  28 1.92  29 1.98
  76  0.632  0.733  0.564-  32 1.76  27 1.87  26 1.95
  77  0.937  0.680  0.545-  31 1.46  32 2.03
  78  0.307  0.793  0.794-  29 1.62  30 1.91  19 2.08
  79  0.146  0.511  0.831-  20 1.66  14 1.91   9 1.94
  80  0.435  0.537  0.794-  14 1.36  29 1.82
 
  LATTYP: Found a simple monoclinic cell.
 ALAT       =    15.9476545966
 B/A-ratio  =     0.6987547876
 C/A-ratio  =     1.5833429409
 COS(beta)  =    -0.9717709890
  
  Lattice vectors:
  
 A1 = ( -12.3942402100,   0.0000000000, -10.0354619600)
 A2 = (   0.0000000000, -11.1435000000,   0.0000000000)
 A3 = (  15.3215904200,   0.0000000000,  20.0709239200)


Analysis of symmetry for initial positions (statically):
=====================================================================
 Subroutine PRICEL returns:
 Original cell was already a primitive cell.
 

 Routine SETGRP: Setting up the symmetry group for a 
 simple monoclinic supercell.


 Subroutine GETGRP returns: Found  1 space group operations
 (whereof  1 operations were pure point group operations)
 out of a pool of  4 trial point group operations.


The static configuration has the point symmetry C_1 .


Analysis of symmetry for dynamics (positions and initial velocities):
=====================================================================
 Subroutine PRICEL returns:
 Original cell was already a primitive cell.
 

 Routine SETGRP: Setting up the symmetry group for a 
 simple monoclinic supercell.


 Subroutine GETGRP returns: Found  1 space group operations
 (whereof  1 operations were pure point group operations)
 out of a pool of  4 trial point group operations.


The dynamic configuration has the point symmetry C_1 .


Analysis of structural, dynamic, and magnetic symmetry:
=====================================================================
 Subroutine PRICEL returns:
 Original cell was already a primitive cell.
 

 Routine SETGRP: Setting up the symmetry group for a 
 simple monoclinic supercell.


 Subroutine GETGRP returns: Found  1 space group operations
 (whereof  1 operations were pure point group operations)
 out of a pool of  4 trial point group operations.


The magnetic configuration has the point symmetry C_1 .


 Subroutine INISYM returns: Found  1 space group operations
 (whereof  1 operations are pure point group operations),
 and found     1 'primitive' translations

 
 
 KPOINTS: Automatic mesh                          

Automatic generation of k-mesh.
Space group operators:
 irot       det(A)        alpha          n_x          n_y          n_z        tau_x        tau_y        tau_z
    1     1.000000     0.000000     1.000000     0.000000     0.000000     0.000000     0.000000     0.000000
 
 Subroutine IBZKPT returns following result:
 ===========================================
 
 Found     19 irreducible k-points:
 
 Following reciprocal coordinates:
            Coordinates               Weight
  0.000000  0.000000  0.000000      1.000000
  0.250000  0.000000 -0.000000      2.000000
  0.500000  0.000000 -0.000000      1.000000
  0.000000  0.333333  0.000000      2.000000
  0.250000  0.333333 -0.000000      2.000000
  0.500000  0.333333 -0.000000      2.000000
 -0.250000  0.333333  0.000000      2.000000
  0.000000  0.000000  0.333333      2.000000
  0.250000  0.000000  0.333333      2.000000
  0.500000  0.000000  0.333333      2.000000
 -0.250000  0.000000  0.333333      2.000000
  0.000000  0.333333  0.333333      2.000000
  0.250000  0.333333  0.333333      2.000000
  0.500000  0.333333  0.333333      2.000000
 -0.250000  0.333333  0.333333      2.000000
  0.000000 -0.333333  0.333333      2.000000
  0.250000 -0.333333  0.333333      2.000000
  0.500000 -0.333333  0.333333      2.000000
 -0.250000 -0.333333  0.333333      2.000000
 
 Following cartesian coordinates:
            Coordinates               Weight
  0.000000  0.000000  0.000000      1.000000
  0.026408  0.000000  0.017208      2.000000
  0.052816  0.000000  0.034417      1.000000
  0.000000  0.029913  0.000000      2.000000
  0.026408  0.029913  0.017208      2.000000
  0.052816  0.029913  0.034417      2.000000
 -0.026408  0.029913 -0.017208      2.000000
  0.000000  0.000000  0.033216      2.000000
  0.026408  0.000000  0.050424      2.000000
  0.052816  0.000000  0.067633      2.000000
 -0.026408  0.000000  0.016007      2.000000
  0.000000  0.029913  0.033216      2.000000
  0.026408  0.029913  0.050424      2.000000
  0.052816  0.029913  0.067633      2.000000
 -0.026408  0.029913  0.016007      2.000000
  0.000000 -0.029913  0.033216      2.000000
  0.026408 -0.029913  0.050424      2.000000
  0.052816 -0.029913  0.067633      2.000000
 -0.026408 -0.029913  0.016007      2.000000
 


--------------------------------------------------------------------------------------------------------




 Dimension of arrays:
   k-points           NKPTS =     19   k-points in BZ     NKDIM =     19   number of bands    NBANDS=    416
   number of dos      NEDOS =    301   number of ions     NIONS =     80
   non local maximal  LDIM  =      6   non local SUM 2l+1 LMDIM =     18
   total plane-waves  NPLWV = 529200
   max r-space proj   IRMAX =   6761   max aug-charges    IRDMAX=  16401
   dimension x,y,z NGX =    70 NGY =   84 NGZ =   90
   dimension x,y,z NGXF=   140 NGYF=  168 NGZF=  180
   support grid    NGXF=   140 NGYF=  168 NGZF=  180
   ions per type =              32  48
   NGX,Y,Z   is equivalent  to a cutoff of  12.29, 12.53, 12.49 a.u.
   NGXF,Y,Z  is equivalent  to a cutoff of  24.59, 25.06, 24.98 a.u.

 SYSTEM =  unknown system                          
 POSCAR =  Ni2O3_Cc_scale_1_000_disp_0_10_round_2  

 Startparameter for this run:
   NWRITE =      1    write-flag & timer
   PREC   = accura    normal or accurate (medium, high low for compatibility)
   ISTART =      0    job   : 0-new  1-cont  2-samecut
   ICHARG =      2    charge: 1-file 2-atom 10-const
   ISPIN  =      2    spin polarized calculation?
   LNONCOLLINEAR =      F non collinear calculations
   LSORBIT =      F    spin-orbit coupling
   INIWAV =      1    electr: 0-lowe 1-rand  2-diag
   LASPH  =      F    aspherical Exc in radial PAW
   METAGGA=      F    non-selfconsistent MetaGGA calc.

 Electronic Relaxation 1
   ENCUT  =  500.0 eV  36.75 Ry    6.06 a.u.  17.26 20.32 21.84*2*pi/ulx,y,z
   ENINI  =  500.0     initial cutoff
   ENAUG  =  605.4 eV  augmentation charge cutoff
   NELM   =     80;   NELMIN=  2; NELMDL= -5     # of ELM steps 
   EDIFF  = 0.1E-04   stopping-criterion for ELM
   LREAL  =      T    real-space projection
   NLSPLINE    = F    spline interpolate recip. space projectors
   LCOMPAT=      F    compatible to vasp.4.4
   GGA_COMPAT  = T    GGA compatible to vasp.4.4-vasp.4.6
   LMAXPAW     = -100 max onsite density
   LMAXMIX     =    2 max onsite mixed and CHGCAR
   VOSKOWN=      1    Vosko Wilk Nusair interpolation
   ROPT   =   -0.00025  -0.00025
 Ionic relaxation
   EDIFFG = 0.1E-03   stopping-criterion for IOM
   NSW    =      0    number of steps for IOM
   NBLOCK =      1;   KBLOCK =      1    inner block; outer block 
   IBRION =     -1    ionic relax: 0-MD 1-quasi-New 2-CG
   NFREE  =      0    steps in history (QN), initial steepest desc. (CG)
   ISIF   =      2    stress and relaxation
   IWAVPR =     10    prediction:  0-non 1-charg 2-wave 3-comb
   ISYM   =      2    0-nonsym 1-usesym 2-fastsym
   LCORR  =      T    Harris-Foulkes like correction to forces

   POTIM  = 0.5000    time-step for ionic-motion
   TEIN   =    0.0    initial temperature
   TEBEG  =    0.0;   TEEND  =   0.0 temperature during run
   SMASS  =  -3.00    Nose mass-parameter (am)
   estimated Nose-frequenzy (Omega)   =  0.10E-29 period in steps =****** mass=  -0.205E-26a.u.
   SCALEE = 1.0000    scale energy and forces
   NPACO  =    256;   APACO  = 16.0  distance and # of slots for P.C.
   PSTRESS=    0.0 pullay stress

  Mass of Ions in am
   POMASS =  58.69 16.00
  Ionic Valenz
   ZVAL   =  10.00  6.00
  Atomic Wigner-Seitz radii
   RWIGS  =   1.15  0.73
  virtual crystal weights 
   VCA    =   1.00  1.00
   NELECT =     608.0000    total number of electrons
   NUPDOWN=      -1.0000    fix difference up-down

 DOS related values:
   EMIN   =  10.00;   EMAX   =-10.00  energy-range for DOS
   EFERMI =   0.00
   ISMEAR =     0;   SIGMA  =   0.05  broadening in eV -4-tet -1-fermi 0-gaus

 Electronic relaxation 2 (details)
   IALGO  =     38    algorithm
   LDIAG  =      T    sub-space diagonalisation (order eigenvalues)
   LSUBROT=      F    optimize rotation matrix (better conditioning)
   TURBO    =      0    0=normal 1=particle mesh
   IRESTART =      0    0=no restart 2=restart with 2 vectors
   NREBOOT  =      0    no. of reboots
   NMIN     =      0    reboot dimension
   EREF     =   0.00    reference energy to select bands
   IMIX   =      4    mixing-type and parameters
     AMIX     =   0.40;   BMIX     =  1.00
     AMIX_MAG =   1.60;   BMIX_MAG =  1.00
     AMIN     =   0.10
     WC   =   100.;   INIMIX=   1;  MIXPRE=   1;  MAXMIX= -45

 Intra band minimization:
   WEIMIN = 0.0000     energy-eigenvalue tresh-hold
   EBREAK =  0.60E-08  absolut break condition
   DEPER  =   0.30     relativ break condition  

   TIME   =   0.40     timestep for ELM

  volume/ion in A,a.u.               =      13.23        89.30
  Fermi-wavevector in a.u.,A,eV,Ry     =   1.360778  2.571497 25.194133  1.851717
  Thomas-Fermi vector in A             =   2.487411
 
 Write flags
   LWAVE        =      F    write WAVECAR
   LDOWNSAMPLE  =      F    k-point downsampling of WAVECAR
   LCHARG       =      T    write CHGCAR
   LVTOT        =      F    write LOCPOT, total local potential
   LVHAR        =      F    write LOCPOT, Hartree potential only
   LELF         =      F    write electronic localiz. function (ELF)
   LORBIT       =      0    0 simple, 1 ext, 2 COOP (PROOUT), +10 PAW based schemes


 Dipole corrections
   LMONO  =      F    monopole corrections only (constant potential shift)
   LDIPOL =      F    correct potential (dipole corrections)
   IDIPOL =      0    1-x, 2-y, 3-z, 4-all directions 
   EPSILON=  1.0000000 bulk dielectric constant

 Exchange correlation treatment:
   GGA     =    PS    GGA type
   LEXCH   =    14    internal setting for exchange type
   VOSKOWN=      1    Vosko Wilk Nusair interpolation
   LHFCALC =     F    Hartree Fock is set to
   LHFONE  =     F    Hartree Fock one center treatment
   AEXX    =    0.0000 exact exchange contribution

 Linear response parameters
   LEPSILON=     F    determine dielectric tensor
   LRPA    =     F    only Hartree local field effects (RPA)
   LNABLA  =     F    use nabla operator in PAW spheres
   LVEL    =     F    velocity operator in full k-point grid
   LINTERFAST=   F  fast interpolation
   KINTER  =     0    interpolate to denser k-point grid
   CSHIFT  =0.1000    complex shift for real part using Kramers Kronig
   OMEGAMAX=  -1.0    maximum frequency
   DEG_THRESHOLD= 0.2000000E-02 threshold for treating states as degnerate
   RTIME   =   -0.100 relaxation time in fs
  (WPLASMAI=    0.000 imaginary part of plasma frequency in eV, 0.658/RTIME)
   DFIELD  = 0.0000000 0.0000000 0.0000000 field for delta impulse in time
 
 Orbital magnetization related:
   ORBITALMAG=     F  switch on orbital magnetization
   LCHIMAG   =     F  perturbation theory with respect to B field
   DQ        =  0.001000  dq finite difference perturbation B field
   LLRAUG    =     F  two centre corrections for induced B field



--------------------------------------------------------------------------------------------------------


 Static calculation
 charge density and potential will be updated during run
 spin polarized calculation
 Variant of blocked Davidson
 Davidson routine will perform the subspace rotation
 perform sub-space diagonalisation
    after iterative eigenvector-optimisation
 modified Broyden-mixing scheme, WC =      100.0
 initial mixing is a Kerker type mixing with AMIX =  0.4000 and BMIX =      1.0000
 Hartree-type preconditioning will be used
 using additional bands          112
 real space projection scheme for non local part
 use partial core corrections
 calculate Harris-corrections to forces 
   (improved forces if not selfconsistent)
 use gradient corrections 
 use of overlap-Matrix (Vanderbilt PP)
 Gauss-broadening in eV      SIGMA  =   0.05


--------------------------------------------------------------------------------------------------------


  energy-cutoff  :      500.00
  volume of cell :     1058.68
      direct lattice vectors                 reciprocal lattice vectors
     9.466890000  0.000000000  0.000000000     0.105631311  0.000000000  0.068833917
     0.000000000 11.143500000  0.000000000     0.000000000  0.089738413  0.000000000
    -6.539539790  0.000000000 10.035461960     0.000000000  0.000000000  0.099646634

  length of vectors
     9.466890000 11.143500000 11.978150000     0.126079665  0.089738413  0.099646634


 
 k-points in units of 2pi/SCALE and weight: Automatic mesh                          
   0.00000000  0.00000000  0.00000000       0.028
   0.02640783  0.00000000  0.01720848       0.056
   0.05281566  0.00000000  0.03441696       0.028
   0.00000000  0.02991280  0.00000000       0.056
   0.02640783  0.02991280  0.01720848       0.056
   0.05281566  0.02991280  0.03441696       0.056
  -0.02640783  0.02991280 -0.01720848       0.056
   0.00000000  0.00000000  0.03321554       0.056
   0.02640783  0.00000000  0.05042402       0.056
   0.05281566  0.00000000  0.06763250       0.056
  -0.02640783  0.00000000  0.01600707       0.056
   0.00000000  0.02991280  0.03321554       0.056
   0.02640783  0.02991280  0.05042402       0.056
   0.05281566  0.02991280  0.06763250       0.056
  -0.02640783  0.02991280  0.01600707       0.056
   0.00000000 -0.02991280  0.03321554       0.056
   0.02640783 -0.02991280  0.05042402       0.056
   0.05281566 -0.02991280  0.06763250       0.056
  -0.02640783 -0.02991280  0.01600707       0.056
 
 k-points in reciprocal lattice and weights: Automatic mesh                          
   0.00000000  0.00000000  0.00000000       0.028
   0.25000000  0.00000000 -0.00000000       0.056
   0.50000000  0.00000000 -0.00000000       0.028
   0.00000000  0.33333333  0.00000000       0.056
   0.25000000  0.33333333 -0.00000000       0.056
   0.50000000  0.33333333 -0.00000000       0.056
  -0.25000000  0.33333333  0.00000000       0.056
   0.00000000  0.00000000  0.33333333       0.056
   0.25000000  0.00000000  0.33333333       0.056
   0.50000000  0.00000000  0.33333333       0.056
  -0.25000000  0.00000000  0.33333333       0.056
   0.00000000  0.33333333  0.33333333       0.056
   0.25000000  0.33333333  0.33333333       0.056
   0.50000000  0.33333333  0.33333333       0.056
  -0.25000000  0.33333333  0.33333333       0.056
   0.00000000 -0.33333333  0.33333333       0.056
   0.25000000 -0.33333333  0.33333333       0.056
   0.50000000 -0.33333333  0.33333333       0.056
  -0.25000000 -0.33333333  0.33333333       0.056
 
 position of ions in fractional coordinates (direct lattice) 
   0.91824219  0.45228214  0.26042115
   0.72953704  0.21483899  0.23754993
   0.41721088  0.29461499  0.01128158
   0.26391227  0.03634724  0.01828834
   0.43339990  0.19709497  0.25693479
   0.25162711  0.45960684  0.25716320
   0.89083802  0.04729437  0.98945896
   0.73048127  0.28774246  0.98482830
   0.91330347  0.45998958  0.74612857
   0.75718755  0.20468748  0.76457365
   0.41493786  0.29567828  0.51168884
   0.26199858  0.03953594  0.50744039
   0.39977264  0.18973773  0.75436773
   0.30103691  0.47619454  0.77970994
   0.92499861  0.04199513  0.51068448
   0.74489186  0.26618761  0.50882708
   0.88420576  0.96313857  0.22943678
   0.75286437  0.70092545  0.24754685
   0.38896666  0.79644585  0.99451159
   0.25827424  0.53677249  0.99374012
   0.40284138  0.71186629  0.25569891
   0.25273460  0.97303636  0.25725345
   0.90093148  0.55136843  0.98906769
   0.75961353  0.78168932  0.01033743
   0.90343827  0.94517379  0.75041273
   0.76839979  0.69291444  0.75215179
   0.41765987  0.79908684  0.49407938
   0.26192501  0.54551952  0.51472445
   0.39663896  0.69554958  0.75279358
   0.26199951  0.96033939  0.75869945
   0.93863360  0.55083979  0.52564686
   0.73747629  0.78864420  0.49013396
   0.79793815  0.45323016  0.07074883
   0.14042002  0.47307597  0.07413713
   0.44673543  0.46208618  0.03754934
   0.79920895  0.05246398  0.32673085
   0.62805440  0.28130819  0.31963098
   0.94358670  0.30115237  0.30353973
   0.31096213  0.21771226  0.07349863
   0.61355921  0.22468044  0.05681413
   0.94248020  0.18870094  0.04801911
   0.32094298  0.30387741  0.32004682
   0.11322118  0.02962185  0.31585090
   0.46525333  0.04600938  0.31807616
   0.83068927  0.45747838  0.57977787
   0.12745139  0.48034772  0.55668907
   0.43579339  0.44090799  0.54766473
   0.83179188  0.05073637  0.81808372
   0.60563819  0.29611723  0.79742730
   0.92474285  0.30697832  0.79386068
   0.30586172  0.20571229  0.57178765
   0.63901586  0.21955686  0.57469616
   0.92005945  0.19327621  0.54140697
   0.30600988  0.29568929  0.80484561
   0.12347750  0.01357570  0.81215922
   0.42947991  0.04339386  0.79131446
   0.82319767  0.95016884  0.07505924
   0.11833747  0.98207493  0.06594941
   0.43919162  0.95768322  0.06826375
   0.84509692  0.54967925  0.31912098
   0.65511025  0.76334053  0.33230275
   0.92061587  0.78811934  0.29910650
   0.29769397  0.70983122  0.05368812
   0.62640409  0.72410816  0.06881279
   0.94839200  0.70988151  0.05453949
   0.30239590  0.79929913  0.29876439
   0.09777476  0.52598351  0.30336349
   0.42893683  0.55045309  0.29783782
   0.81431203  0.95330774  0.56276413
   0.11739268  0.99486692  0.57136214
   0.45072857  0.93944189  0.55467117
   0.81844124  0.56432999  0.82019464
   0.63649448  0.75880867  0.81511970
   0.93866346  0.79762971  0.79849547
   0.30288230  0.71283983  0.56011862
   0.63199676  0.73346844  0.56365764
   0.93701437  0.68017501  0.54529159
   0.30650273  0.79319143  0.79383771
   0.14618245  0.51112432  0.83064317
   0.43457673  0.53682812  0.79446583
 
 position of ions in cartesian coordinates  (Angst):
   6.98986333  5.04000603  2.61344654
   5.35297969  2.39405829  2.38392329
   3.87591317  3.28304214  0.11321587
   2.37883110  0.40503547  0.18353194
   2.42271390  2.19632780  2.57845931
   0.70039719  5.12162882  2.58075151
   1.96285930  0.52702481  9.92967775
   0.47506198  3.20645810  9.88320694
   3.76680602  5.12589388  7.48774488
   2.16825144  2.28093493  7.67284978
   0.58196155  3.29489091  5.13503389
  -0.83811488  0.44056875  5.09239873
  -1.14861418  2.11434239  7.57042866
  -2.24906086  5.30647386  7.82474944
   5.41721861  0.46797273  5.12495467
   3.72431436  2.96626163  5.10631481
   6.87026772 10.73273465  2.30250408
   5.50844170  7.81076275  2.48424700
  -2.82134353  8.87519433  9.98038323
  -4.05354924  5.98152424  9.97264117
   2.14150184  7.93268200  2.56605668
   0.71029149 10.84303068  2.58165721
   2.06097170  6.14417410  9.92575118
   7.12357570  8.71075494  0.10374089
   3.64539682 10.53254413  7.53073841
   2.35562973  7.72149206  7.54819068
   0.72288828  8.90462420  4.95831482
  -0.88644576  6.07899677  5.16549764
  -1.16798617  7.75085674  7.55463134
  -2.48122470 10.70154199  7.61389947
   5.44845249  6.13828320  5.27510907
   3.77635638  8.78825664  4.91872071
   7.09132790  5.05057029  0.70999719
   0.84451817  5.27172207  0.74400035
   3.98363977  5.14925735  0.37682497
   5.42935382  0.58463236  3.27889502
   3.85548241  3.13475782  3.20764454
   6.94782135  3.35589144  3.04616141
   2.46319706  2.42607657  0.73759271
   5.43695929  2.50372648  0.57015604
   8.60833350  2.10278892  0.48189395
   0.94537297  3.38625792  3.21181769
  -0.99366707  0.33009109  3.16970969
   2.32443039  0.51270553  3.19204120
   4.07256349  5.09791033  5.81833876
  -2.43392203  5.35275482  5.58663199
   0.54413279  4.91325819  5.49606856
   2.52459119  0.56538074  8.20984805
   0.51870257  3.29978235  8.00255134
   3.56295533  3.42081291  7.96675866
  -0.84366883  2.29235490  5.73815321
   2.29124445  2.44663187  5.76734145
   5.16954918  2.15377345  5.43326905
  -2.36635802  3.29501360  8.07699750
  -4.14219963  0.15128081  8.15039296
  -1.10899333  0.48355948  7.94120616
   7.30226890 10.58820647  0.75325415
   0.68900902 10.94375198  0.66183280
   3.71136525 10.67194296  0.68505827
   5.91353523  6.12535072  3.20252646
   4.02874962  8.50628520  3.33481161
   6.75935032  8.78240787  3.00167190
   2.46714047  7.91000420  0.53878509
   5.48009464  8.06909928  0.69056814
   8.62165958  7.91056461  0.54732898
   0.90896711  8.90698986  2.99823867
  -1.05823472  5.86129724  3.04439276
   2.11297551  6.13397401  2.98894011
   4.02878399 10.62318480  5.64759802
  -2.62510186 11.08629952  5.73388302
   0.63970361 10.46867070  5.56638143
   2.38439771  6.28861124  8.23103211
   0.69511552  8.45578441  8.18010274
   3.66443082  8.88838667  8.01327091
  -0.79556459  7.94353065  5.62104910
   2.29698224  8.17340556  5.65656480
   5.30465592  7.57953022  5.47225301
  -2.28970566  8.83892870  7.96652814
  -4.04813089  5.69571386  8.33588793
  -1.08135081  5.98214416  7.97283162
 


--------------------------------------------------------------------------------------------------------


 k-point  1 :   0.0000 0.0000 0.0000  plane waves:   26829
 k-point  2 :   0.2500 0.0000-0.0000  plane waves:   26875
 k-point  3 :   0.5000 0.0000-0.0000  plane waves:   26866
 k-point  4 :   0.0000 0.3333 0.0000  plane waves:   26844
 k-point  5 :   0.2500 0.3333-0.0000  plane waves:   26872
 k-point  6 :   0.5000 0.3333-0.0000  plane waves:   26876
 k-point  7 :  -0.2500 0.3333 0.0000  plane waves:   26872
 k-point  8 :   0.0000 0.0000 0.3333  plane waves:   26910
 k-point  9 :   0.2500 0.0000 0.3333  plane waves:   26885
 k-point 10 :   0.5000 0.0000 0.3333  plane waves:   26875
 k-point 11 :  -0.2500 0.0000 0.3333  plane waves:   26876
 k-point 12 :   0.0000 0.3333 0.3333  plane waves:   26878
 k-point 13 :   0.2500 0.3333 0.3333  plane waves:   26884
 k-point 14 :   0.5000 0.3333 0.3333  plane waves:   26880
 k-point 15 :  -0.2500 0.3333 0.3333  plane waves:   26861
 k-point 16 :   0.0000-0.3333 0.3333  plane waves:   26878
 k-point 17 :   0.2500-0.3333 0.3333  plane waves:   26884
 k-point 18 :   0.5000-0.3333 0.3333  plane waves:   26880
 k-point 19 :  -0.2500-0.3333 0.3333  plane waves:   26861

 maximum and minimum number of plane-waves per node :     26910    26829

 maximum number of plane-waves:     26910
 maximum index in each direction: 
   IXMAX=   17   IYMAX=   20   IZMAX=   21
   IXMIN=  -17   IYMIN=  -20   IZMIN=  -22

 The following grids will avoid any aliasing or wrap around errors in the Hartre
 e energy
  - symmetry arguments have not been applied
  - exchange correlation energies might require even more grid points
  - we recommend to set PREC=Normal or Accurate and rely on VASP defaults
 NGX is ok and might be reduce to    70
 NGY is ok and might be reduce to    84
 NGZ is ok and might be reduce to    90

 serial   3D FFT for wavefunctions
 parallel 3D FFT for charge:
    minimum data exchange during FFTs selected (reduces bandwidth)


 total amount of memory used by VASP MPI-rank0   600193. kBytes
=======================================================================

   base      :      30000. kBytes
   nonlr-proj:      51253. kBytes
   fftplans  :      11362. kBytes
   grid      :      64490. kBytes
   one-center:       2488. kBytes
   wavefun   :     440600. kBytes
 
     INWAV:  cpu time    0.0000: real time    0.0000
 Broyden mixing: mesh for mixing (old mesh)
   NGX = 35   NGY = 41   NGZ = 43
  (NGX  =140   NGY  =168   NGZ  =180)
  gives a total of  61705 points

 initial charge density was supplied:
 charge density of overlapping atoms calculated
 number of electron     608.0000000 magnetization      80.0000000
 keeping initial charge density in first step


--------------------------------------------------------------------------------------------------------


 Maximum index for non-local projection operator         6529
 Maximum index for augmentation-charges         1168 (set IRDMAX)


--------------------------------------------------------------------------------------------------------


 First call to EWALD:  gamma=   0.174
 Maximum number of real-space cells 3x 3x 3
 Maximum number of reciprocal cells 3x 3x 3

    FEWALD:  cpu time    0.0039: real time    0.0040


--------------------------------------- Iteration      1(   1)  ---------------------------------------


    POTLOK:  cpu time    0.3784: real time    0.4288
    SETDIJ:  cpu time    0.0318: real time    0.0319
     EDDAV:  cpu time  177.2554: real time  177.6785
    --------------------------------------------
      LOOP:  cpu time  177.6690: real time  178.1426

 eigenvalue-minimisations  : 31616
 total energy-change (2. order) : 0.7313361E+04  (-0.2579603E+05)
 number of electron     608.0000000 magnetization      80.0000000
 augmentation part      608.0000000 magnetization      80.0000000

 Free energy of the ion-electron system (eV)
  ---------------------------------------------------
  alpha Z        PSCENC =      1575.65330513
  Ewald energy   TEWEN  =    -35232.14786255
  -Hartree energ DENC   =    -20386.64241991
  -exchange      EXHF   =         0.00000000
  -V(xc)+E(xc)   XCENC  =      2371.37446225
  PAW double counting   =     47387.14975297   -49597.44882166
  entropy T*S    EENTRO =        -0.01902745
  eigenvalues    EBANDS =      6058.22849170
  atomic energy  EATOM  =     55137.21312455
  Solvation  Ediel_sol  =         0.00000000
  ---------------------------------------------------
  free energy    TOTEN  =      7313.36100503 eV

  energy without entropy =     7313.38003248  energy(sigma->0) =     7313.37051876


--------------------------------------------------------------------------------------------------------




--------------------------------------- Iteration      1(   2)  ---------------------------------------


     EDDAV:  cpu time  177.3299: real time  177.7498
    --------------------------------------------
      LOOP:  cpu time  177.3298: real time  177.7497

 eigenvalue-minimisations  : 31616
 total energy-change (2. order) :-0.6232314E+04  (-0.5649720E+04)
 number of electron     608.0000000 magnetization      80.0000000
 augmentation part      608.0000000 magnetization      80.0000000

 Free energy of the ion-electron system (eV)
  ---------------------------------------------------
  alpha Z        PSCENC =      1575.65330513
  Ewald energy   TEWEN  =    -35232.14786255
  -Hartree energ DENC   =    -20386.64241991
  -exchange      EXHF   =         0.00000000
  -V(xc)+E(xc)   XCENC  =      2371.37446225
  PAW double counting   =     47387.14975297   -49597.44882166
  entropy T*S    EENTRO =        -0.04778346
  eigenvalues    EBANDS =      -174.05643755
  atomic energy  EATOM  =     55137.21312455
  Solvation  Ediel_sol  =         0.00000000
  ---------------------------------------------------
  free energy    TOTEN  =      1081.04731977 eV

  energy without entropy =     1081.09510323  energy(sigma->0) =     1081.07121150


--------------------------------------------------------------------------------------------------------




--------------------------------------- Iteration      1(   3)  ---------------------------------------


     EDDAV:  cpu time  181.1736: real time  181.6025
    --------------------------------------------
      LOOP:  cpu time  181.1733: real time  181.6023

 eigenvalue-minimisations  : 32544
 total energy-change (2. order) :-0.1543690E+04  (-0.1381118E+04)
 number of electron     608.0000000 magnetization      80.0000000
 augmentation part      608.0000000 magnetization      80.0000000

 Free energy of the ion-electron system (eV)
  ---------------------------------------------------
  alpha Z        PSCENC =      1575.65330513
  Ewald energy   TEWEN  =    -35232.14786255
  -Hartree energ DENC   =    -20386.64241991
  -exchange      EXHF   =         0.00000000
  -V(xc)+E(xc)   XCENC  =      2371.37446225
  PAW double counting   =     47387.14975297   -49597.44882166
  entropy T*S    EENTRO =        -0.11400354
  eigenvalues    EBANDS =     -1717.67989626
  atomic energy  EATOM  =     55137.21312455
  Solvation  Ediel_sol  =         0.00000000
  ---------------------------------------------------
  free energy    TOTEN  =      -462.64235901 eV

  energy without entropy =     -462.52835547  energy(sigma->0) =     -462.58535724


--------------------------------------------------------------------------------------------------------




--------------------------------------- Iteration      1(   4)  ---------------------------------------


     EDDAV:  cpu time  195.8318: real time  196.2953
    --------------------------------------------
      LOOP:  cpu time  195.8319: real time  196.2954

 eigenvalue-minimisations  : 35872
 total energy-change (2. order) :-0.1848966E+03  (-0.1774979E+03)
 number of electron     608.0000000 magnetization      80.0000000
 augmentation part      608.0000000 magnetization      80.0000000

 Free energy of the ion-electron system (eV)
  ---------------------------------------------------
  alpha Z        PSCENC =      1575.65330513
  Ewald energy   TEWEN  =    -35232.14786255
  -Hartree energ DENC   =    -20386.64241991
  -exchange      EXHF   =         0.00000000
  -V(xc)+E(xc)   XCENC  =      2371.37446225
  PAW double counting   =     47387.14975297   -49597.44882166
  entropy T*S    EENTRO =        -0.11277448
  eigenvalues    EBANDS =     -1902.57769164
  atomic energy  EATOM  =     55137.21312455
  Solvation  Ediel_sol  =         0.00000000
  ---------------------------------------------------
  free energy    TOTEN  =      -647.53892534 eV

  energy without entropy =     -647.42615085  energy(sigma->0) =     -647.48253810


--------------------------------------------------------------------------------------------------------




--------------------------------------- Iteration      1(   5)  ---------------------------------------


     EDDAV:  cpu time  192.5750: real time  193.0309
    CHARGE:  cpu time    8.7675: real time    8.7883
    MIXING:  cpu time    0.0070: real time    0.0071
    --------------------------------------------
      LOOP:  cpu time  201.3465: real time  201.8232

 eigenvalue-minimisations  : 35120
 total energy-change (2. order) :-0.5732033E+01  (-0.5686967E+01)
 number of electron     608.0000027 magnetization      86.1754374
 augmentation part      200.3553832 magnetization      60.2815124

 Broyden mixing:
  rms(total) = 0.14903E+02    rms(broyden)= 0.14902E+02
  rms(prec ) = 0.17075E+02
  weight for this iteration     100.00

 Free energy of the ion-electron system (eV)
  ---------------------------------------------------
  alpha Z        PSCENC =      1575.65330513
  Ewald energy   TEWEN  =    -35232.14786255
  -Hartree energ DENC   =    -20386.64241991
  -exchange      EXHF   =         0.00000000
  -V(xc)+E(xc)   XCENC  =      2371.37446225
  PAW double counting   =     47387.14975297   -49597.44882166
  entropy T*S    EENTRO =        -0.11322011
  eigenvalues    EBANDS =     -1908.30927911
  atomic energy  EATOM  =     55137.21312455
  Solvation  Ediel_sol  =         0.00000000
  ---------------------------------------------------
  free energy    TOTEN  =      -653.27095844 eV

  energy without entropy =     -653.15773833  energy(sigma->0) =     -653.21434838


--------------------------------------------------------------------------------------------------------




--------------------------------------- Iteration      1(   6)  ---------------------------------------


    POTLOK:  cpu time    0.3448: real time    0.3457
    SETDIJ:  cpu time    0.0332: real time    0.0333
     EDDAV:  cpu time  242.3838: real time  242.9576
    CHARGE:  cpu time    8.8509: real time    8.8719
    MIXING:  cpu time    0.0074: real time    0.0074
    --------------------------------------------
      LOOP:  cpu time  251.6201: real time  252.2159

 eigenvalue-minimisations  : 47008
 total energy-change (2. order) :-0.5581107E+02  (-0.1353262E+03)
 number of electron     608.0000010 magnetization      77.4058436
 augmentation part      259.8430027 magnetization      71.3080231

 Broyden mixing:
  rms(total) = 0.24557E+02    rms(broyden)= 0.24556E+02
  rms(prec ) = 0.26886E+02
  weight for this iteration     100.00

 eigenvalues of (default mixing * dielectric matrix)
  average eigenvalue GAMMA=   0.2527
  0.2527

 Free energy of the ion-electron system (eV)
  ---------------------------------------------------
  alpha Z        PSCENC =      1575.65330513
  Ewald energy   TEWEN  =    -35232.14786255
  -Hartree energ DENC   =    -19540.43494355
  -exchange      EXHF   =         0.00000000
  -V(xc)+E(xc)   XCENC  =      2390.54737978
  PAW double counting   =     51736.70207164   -53651.97827780
  entropy T*S    EENTRO =        -0.08282722
  eigenvalues    EBANDS =     -3124.55399943
  atomic energy  EATOM  =     55137.21312455
  Solvation  Ediel_sol  =         0.00000000
  ---------------------------------------------------
  free energy    TOTEN  =      -709.08202944 eV

  energy without entropy =     -708.99920222  energy(sigma->0) =     -709.04061583


--------------------------------------------------------------------------------------------------------




--------------------------------------- Iteration      1(   7)  ---------------------------------------


    POTLOK:  cpu time    0.3505: real time    0.3514
    SETDIJ:  cpu time    0.0329: real time    0.0330
     EDDAV:  cpu time  223.8335: real time  224.3828
    CHARGE:  cpu time    8.7187: real time    8.7394
    MIXING:  cpu time    0.0071: real time    0.0071
    --------------------------------------------
      LOOP:  cpu time  232.9428: real time  233.5137

 eigenvalue-minimisations  : 42640
 total energy-change (2. order) : 0.2243207E+03  (-0.4220188E+02)
 number of electron     608.0000012 magnetization      70.0952259
 augmentation part      233.1496023 magnetization      53.7541132

 Broyden mixing:
  rms(total) = 0.91322E+01    rms(broyden)= 0.91300E+01
  rms(prec ) = 0.10420E+02
  weight for this iteration     100.00

 eigenvalues of (default mixing * dielectric matrix)
  average eigenvalue GAMMA=   0.5309
  0.5309  0.5309

 Free energy of the ion-electron system (eV)
  ---------------------------------------------------
  alpha Z        PSCENC =      1575.65330513
  Ewald energy   TEWEN  =    -35232.14786255
  -Hartree energ DENC   =    -19913.87806045
  -exchange      EXHF   =         0.00000000
  -V(xc)+E(xc)   XCENC  =      2366.28341011
  PAW double counting   =     53856.43888185   -56003.18778558
  entropy T*S    EENTRO =        -0.09482288
  eigenvalues    EBANDS =     -2271.04153351
  atomic energy  EATOM  =     55137.21312455
  Solvation  Ediel_sol  =         0.00000000
  ---------------------------------------------------
  free energy    TOTEN  =      -484.76134334 eV

  energy without entropy =     -484.66652045  energy(sigma->0) =     -484.71393189


--------------------------------------------------------------------------------------------------------




--------------------------------------- Iteration      1(   8)  ---------------------------------------


    POTLOK:  cpu time    0.3480: real time    0.3488
    SETDIJ:  cpu time    0.0334: real time    0.0335
     EDDAV:  cpu time  243.8322: real time  244.5619
    CHARGE:  cpu time    8.7308: real time    8.7515
    MIXING:  cpu time    0.0079: real time    0.0079
    --------------------------------------------
      LOOP:  cpu time  252.9522: real time  253.7036

 eigenvalue-minimisations  : 47312
 total energy-change (2. order) :-0.1021449E+03  (-0.2221823E+02)
 number of electron     608.0000022 magnetization      64.4593599
 augmentation part      222.4050625 magnetization      55.7014829

 Broyden mixing:
  rms(total) = 0.16090E+02    rms(broyden)= 0.16089E+02
  rms(prec ) = 0.21902E+02
  weight for this iteration     100.00

 eigenvalues of (default mixing * dielectric matrix)
  average eigenvalue GAMMA=   0.4638
  0.6143  0.6143  0.1629

 Free energy of the ion-electron system (eV)
  ---------------------------------------------------
  alpha Z        PSCENC =      1575.65330513
  Ewald energy   TEWEN  =    -35232.14786255
  -Hartree energ DENC   =    -19912.81913720
  -exchange      EXHF   =         0.00000000
  -V(xc)+E(xc)   XCENC  =      2354.24809572
  PAW double counting   =     55688.28751464   -57928.61305514
  entropy T*S    EENTRO =        -0.07920687
  eigenvalues    EBANDS =     -2268.64902555
  atomic energy  EATOM  =     55137.21312455
  Solvation  Ediel_sol  =         0.00000000
  ---------------------------------------------------
  free energy    TOTEN  =      -586.90624727 eV

  energy without entropy =     -586.82704040  energy(sigma->0) =     -586.86664383


--------------------------------------------------------------------------------------------------------




--------------------------------------- Iteration      1(   9)  ---------------------------------------


    POTLOK:  cpu time    0.3449: real time    0.3458
    SETDIJ:  cpu time    0.0324: real time    0.0325
     EDDAV:  cpu time  205.9606: real time  206.9317
    CHARGE:  cpu time    7.0700: real time    7.0868
    MIXING:  cpu time    0.0094: real time    0.0094
    --------------------------------------------
      LOOP:  cpu time  213.4174: real time  214.4062

 eigenvalue-minimisations  : 39936
 total energy-change (2. order) : 0.3894764E+02  (-0.3176265E+02)
 number of electron     608.0000021 magnetization      58.7209762
 augmentation part      223.7123197 magnetization      46.4948697

 Broyden mixing:
  rms(total) = 0.12645E+02    rms(broyden)= 0.12644E+02
  rms(prec ) = 0.16962E+02
  weight for this iteration     100.00

 eigenvalues of (default mixing * dielectric matrix)
  average eigenvalue GAMMA=   0.4371
  0.8380  0.5601  0.2144  0.1358

 Free energy of the ion-electron system (eV)
  ---------------------------------------------------
  alpha Z        PSCENC =      1575.65330513
  Ewald energy   TEWEN  =    -35232.14786255
  -Hartree energ DENC   =    -19867.75417379
  -exchange      EXHF   =         0.00000000
  -V(xc)+E(xc)   XCENC  =      2349.90756176
  PAW double counting   =     56760.19053301   -59022.96991103
  entropy T*S    EENTRO =        -0.10209897
  eigenvalues    EBANDS =     -2247.94908610
  atomic energy  EATOM  =     55137.21312455
  Solvation  Ediel_sol  =         0.00000000
  ---------------------------------------------------
  free energy    TOTEN  =      -547.95860797 eV

  energy without entropy =     -547.85650901  energy(sigma->0) =     -547.90755849


--------------------------------------------------------------------------------------------------------




--------------------------------------- Iteration      1(  10)  ---------------------------------------


    POTLOK:  cpu time    0.3716: real time    0.3725
    SETDIJ:  cpu time    0.0430: real time    0.0431
     EDDAV:  cpu time  182.7604: real time  183.1932
    CHARGE:  cpu time    5.9188: real time    5.9329
    MIXING:  cpu time    0.0065: real time    0.0065
    --------------------------------------------
      LOOP:  cpu time  189.1003: real time  189.5482

 eigenvalue-minimisations  : 40464
 total energy-change (2. order) : 0.1687006E+01  (-0.1172048E+02)
 number of electron     608.0000020 magnetization      51.9712755
 augmentation part      220.9545320 magnetization      38.3209841

 Broyden mixing:
  rms(total) = 0.12968E+02    rms(broyden)= 0.12967E+02
  rms(prec ) = 0.17722E+02
  weight for this iteration     100.00

 eigenvalues of (default mixing * dielectric matrix)
  average eigenvalue GAMMA=   0.4393
  1.1357  0.5155  0.2750  0.1352  0.1352

 Free energy of the ion-electron system (eV)
  ---------------------------------------------------
  alpha Z        PSCENC =      1575.65330513
  Ewald energy   TEWEN  =    -35232.14786255
  -Hartree energ DENC   =    -19850.65899297
  -exchange      EXHF   =         0.00000000
  -V(xc)+E(xc)   XCENC  =      2348.74195325
  PAW double counting   =     57906.00904443   -60191.73539188
  entropy T*S    EENTRO =        -0.09469646
  eigenvalues    EBANDS =     -2239.25208553
  atomic energy  EATOM  =     55137.21312455
  Solvation  Ediel_sol  =         0.00000000
  ---------------------------------------------------
  free energy    TOTEN  =      -546.27160203 eV

  energy without entropy =     -546.17690557  energy(sigma->0) =     -546.22425380


--------------------------------------------------------------------------------------------------------




--------------------------------------- Iteration      1(  11)  ---------------------------------------


    POTLOK:  cpu time    0.2675: real time    0.2681
    SETDIJ:  cpu time    0.0289: real time    0.0289
     EDDAV:  cpu time  201.7150: real time  202.1958
    CHARGE:  cpu time    7.9742: real time    7.9931
    MIXING:  cpu time    0.0087: real time    0.0087
    --------------------------------------------
      LOOP:  cpu time  209.9942: real time  210.4947

 eigenvalue-minimisations  : 42464
 total energy-change (2. order) : 0.2036532E+02  (-0.9121909E+01)
 number of electron     608.0000022 magnetization      49.0238565
 augmentation part      222.3876974 magnetization      36.9335884

 Broyden mixing:
  rms(total) = 0.11270E+02    rms(broyden)= 0.11270E+02
  rms(prec ) = 0.15720E+02
  weight for this iteration     100.00

 eigenvalues of (default mixing * dielectric matrix)
  average eigenvalue GAMMA=   0.4169
  1.2643  0.5021  0.2583  0.2583  0.1090  0.1090

 Free energy of the ion-electron system (eV)
  ---------------------------------------------------
  alpha Z        PSCENC =      1575.65330513
  Ewald energy   TEWEN  =    -35232.14786255
  -Hartree energ DENC   =    -19817.09105738
  -exchange      EXHF   =         0.00000000
  -V(xc)+E(xc)   XCENC  =      2348.64534433
  PAW double counting   =     59199.39720168   -61503.51307321
  entropy T*S    EENTRO =        -0.09804077
  eigenvalues    EBANDS =     -2233.96522667
  atomic energy  EATOM  =     55137.21312455
  Solvation  Ediel_sol  =         0.00000000
  ---------------------------------------------------
  free energy    TOTEN  =      -525.90628487 eV

  energy without entropy =     -525.80824410  energy(sigma->0) =     -525.85726449


--------------------------------------------------------------------------------------------------------




--------------------------------------- Iteration      1(  12)  ---------------------------------------


    POTLOK:  cpu time    0.3418: real time    0.3426
    SETDIJ:  cpu time    0.0352: real time    0.0352
     EDDAV:  cpu time  193.8823: real time  194.3418
    CHARGE:  cpu time    7.8356: real time    7.8541
    MIXING:  cpu time    0.0087: real time    0.0087
    --------------------------------------------
      LOOP:  cpu time  202.1035: real time  202.5824

 eigenvalue-minimisations  : 38032
 total energy-change (2. order) : 0.4332728E+02  (-0.5616535E+01)
 number of electron     608.0000022 magnetization      47.1560802
 augmentation part      226.8508016 magnetization      35.2532293

 Broyden mixing:
  rms(total) = 0.77142E+01    rms(broyden)= 0.77134E+01
  rms(prec ) = 0.10523E+02
  weight for this iteration     100.00

 eigenvalues of (default mixing * dielectric matrix)
  average eigenvalue GAMMA=   0.4218
  1.3556  0.5543  0.3582  0.3582  0.1185  0.1185  0.0892

 Free energy of the ion-electron system (eV)
  ---------------------------------------------------
  alpha Z        PSCENC =      1575.65330513
  Ewald energy   TEWEN  =    -35232.14786255
  -Hartree energ DENC   =    -19804.05845257
  -exchange      EXHF   =         0.00000000
  -V(xc)+E(xc)   XCENC  =      2348.97700405
  PAW double counting   =     59712.39220469   -62024.44916721
  entropy T*S    EENTRO =        -0.09342685
  eigenvalues    EBANDS =     -2196.06573356
  atomic energy  EATOM  =     55137.21312455
  Solvation  Ediel_sol  =         0.00000000
  ---------------------------------------------------
  free energy    TOTEN  =      -482.57900432 eV

  energy without entropy =     -482.48557747  energy(sigma->0) =     -482.53229089


--------------------------------------------------------------------------------------------------------




--------------------------------------- Iteration      1(  13)  ---------------------------------------


    POTLOK:  cpu time    0.3366: real time    0.3374
    SETDIJ:  cpu time    0.0337: real time    0.0337
     EDDAV:  cpu time  202.3360: real time  202.8153
    CHARGE:  cpu time    7.9091: real time    7.9278
    MIXING:  cpu time    0.0094: real time    0.0095
    --------------------------------------------
      LOOP:  cpu time  210.6247: real time  211.1237

 eigenvalue-minimisations  : 39792
 total energy-change (2. order) : 0.1175337E+02  (-0.4243368E+01)
 number of electron     608.0000012 magnetization      44.3822580
 augmentation part      226.3196441 magnetization      31.7332549

 Broyden mixing:
  rms(total) = 0.70837E+01    rms(broyden)= 0.70830E+01
  rms(prec ) = 0.98393E+01
  weight for this iteration     100.00

 eigenvalues of (default mixing * dielectric matrix)
  average eigenvalue GAMMA=   0.4233
  1.5103  0.6266  0.3999  0.3999  0.1305  0.1305  0.1111  0.0775

 Free energy of the ion-electron system (eV)
  ---------------------------------------------------
  alpha Z        PSCENC =      1575.65330513
  Ewald energy   TEWEN  =    -35232.14786255
  -Hartree energ DENC   =    -19819.69172594
  -exchange      EXHF   =         0.00000000
  -V(xc)+E(xc)   XCENC  =      2348.63339362
  PAW double counting   =     59933.75036785   -62251.91418711
  entropy T*S    EENTRO =        -0.09875647
  eigenvalues    EBANDS =     -2162.22329435
  atomic energy  EATOM  =     55137.21312455
  Solvation  Ediel_sol  =         0.00000000
  ---------------------------------------------------
  free energy    TOTEN  =      -470.82563526 eV

  energy without entropy =     -470.72687879  energy(sigma->0) =     -470.77625702


--------------------------------------------------------------------------------------------------------




--------------------------------------- Iteration      1(  14)  ---------------------------------------


    POTLOK:  cpu time    0.3392: real time    0.3401
    SETDIJ:  cpu time    0.0324: real time    0.0325
     EDDAV:  cpu time  211.2800: real time  211.7861
    CHARGE:  cpu time    8.2175: real time    8.2370
    MIXING:  cpu time    0.0095: real time    0.0096
    --------------------------------------------
      LOOP:  cpu time  219.8787: real time  220.4052

 eigenvalue-minimisations  : 42048
 total energy-change (2. order) : 0.3551095E+00  (-0.3788784E+01)
 number of electron     608.0000022 magnetization      42.9980602
 augmentation part      224.9741311 magnetization      30.8162663

 Broyden mixing:
  rms(total) = 0.52005E+01    rms(broyden)= 0.52000E+01
  rms(prec ) = 0.70322E+01
  weight for this iteration     100.00

 eigenvalues of (default mixing * dielectric matrix)
  average eigenvalue GAMMA=   0.4007
  1.5107  0.6271  0.4239  0.4239  0.1546  0.1507  0.1183  0.1183  0.0783

 Free energy of the ion-electron system (eV)
  ---------------------------------------------------
  alpha Z        PSCENC =      1575.65330513
  Ewald energy   TEWEN  =    -35232.14786255
  -Hartree energ DENC   =    -19853.95831123
  -exchange      EXHF   =         0.00000000
  -V(xc)+E(xc)   XCENC  =      2347.90385981
  PAW double counting   =     60212.17619423   -62538.75425633
  entropy T*S    EENTRO =        -0.10562359
  eigenvalues    EBANDS =     -2118.45095578
  atomic energy  EATOM  =     55137.21312455
  Solvation  Ediel_sol  =         0.00000000
  ---------------------------------------------------
  free energy    TOTEN  =      -470.47052575 eV

  energy without entropy =     -470.36490217  energy(sigma->0) =     -470.41771396


--------------------------------------------------------------------------------------------------------




--------------------------------------- Iteration      1(  15)  ---------------------------------------


    POTLOK:  cpu time    0.3353: real time    0.3361
    SETDIJ:  cpu time    0.0325: real time    0.0325
     EDDAV:  cpu time  202.1890: real time  202.6762
    CHARGE:  cpu time    8.0729: real time    8.0921
    MIXING:  cpu time    0.0099: real time    0.0100
    --------------------------------------------
      LOOP:  cpu time  210.6396: real time  211.1468

 eigenvalue-minimisations  : 38752
 total energy-change (2. order) : 0.1514390E+01  (-0.2558603E+01)
 number of electron     608.0000018 magnetization      41.4204304
 augmentation part      224.2180261 magnetization      29.6085382

 Broyden mixing:
  rms(total) = 0.46148E+01    rms(broyden)= 0.46141E+01
  rms(prec ) = 0.63236E+01
  weight for this iteration     100.00

 eigenvalues of (default mixing * dielectric matrix)
  average eigenvalue GAMMA=   0.3879
  1.5050  0.5804  0.4654  0.4654  0.3200  0.1375  0.1169  0.1169  0.0930  0.0784

 Free energy of the ion-electron system (eV)
  ---------------------------------------------------
  alpha Z        PSCENC =      1575.65330513
  Ewald energy   TEWEN  =    -35232.14786255
  -Hartree energ DENC   =    -19869.20285168
  -exchange      EXHF   =         0.00000000
  -V(xc)+E(xc)   XCENC  =      2347.42715527
  PAW double counting   =     60296.78723029   -62624.56872773
  entropy T*S    EENTRO =        -0.10324331
  eigenvalues    EBANDS =     -2100.01426582
  atomic energy  EATOM  =     55137.21312455
  Solvation  Ediel_sol  =         0.00000000
  ---------------------------------------------------
  free energy    TOTEN  =      -468.95613584 eV

  energy without entropy =     -468.85289253  energy(sigma->0) =     -468.90451419


--------------------------------------------------------------------------------------------------------




--------------------------------------- Iteration      1(  16)  ---------------------------------------


    POTLOK:  cpu time    0.3294: real time    0.3302
    SETDIJ:  cpu time    0.0329: real time    0.0330
     EDDAV:  cpu time  211.9058: real time  212.4076
    CHARGE:  cpu time    8.0930: real time    8.1123
    MIXING:  cpu time    0.0164: real time    0.1292
    --------------------------------------------
      LOOP:  cpu time  220.3775: real time  221.0122

 eigenvalue-minimisations  : 42832
 total energy-change (2. order) : 0.2509660E+01  (-0.1385043E+01)
 number of electron     608.0000017 magnetization      40.2095283
 augmentation part      223.9116294 magnetization      28.7437043

 Broyden mixing:
  rms(total) = 0.36058E+01    rms(broyden)= 0.36053E+01
  rms(prec ) = 0.50648E+01
  weight for this iteration     100.00

 eigenvalues of (default mixing * dielectric matrix)
  average eigenvalue GAMMA=   0.3757
  1.4633  0.5953  0.5953  0.4028  0.4028  0.1592  0.1247  0.1247  0.0939  0.0939
  0.0766

 Free energy of the ion-electron system (eV)
  ---------------------------------------------------
  alpha Z        PSCENC =      1575.65330513
  Ewald energy   TEWEN  =    -35232.14786255
  -Hartree energ DENC   =    -19881.83013986
  -exchange      EXHF   =         0.00000000
  -V(xc)+E(xc)   XCENC  =      2347.12875081
  PAW double counting   =     60438.10266967   -62767.25220269
  entropy T*S    EENTRO =        -0.10143559
  eigenvalues    EBANDS =     -2083.21268539
  atomic energy  EATOM  =     55137.21312455
  Solvation  Ediel_sol  =         0.00000000
  ---------------------------------------------------
  free energy    TOTEN  =      -466.44647592 eV

  energy without entropy =     -466.34504032  energy(sigma->0) =     -466.39575812


--------------------------------------------------------------------------------------------------------




--------------------------------------- Iteration      1(  17)  ---------------------------------------


    POTLOK:  cpu time    0.3283: real time    0.3290
    SETDIJ:  cpu time    0.0328: real time    0.0328
     EDDAV:  cpu time  224.1232: real time  224.6544
    CHARGE:  cpu time    8.2035: real time    8.2230
    MIXING:  cpu time    0.0108: real time    0.0108
    --------------------------------------------
      LOOP:  cpu time  232.6986: real time  233.2501

 eigenvalue-minimisations  : 45936
 total energy-change (2. order) : 0.2466295E+01  (-0.7398976E+00)
 number of electron     608.0000018 magnetization      38.7913003
 augmentation part      224.0944340 magnetization      26.8555952

 Broyden mixing:
  rms(total) = 0.22138E+01    rms(broyden)= 0.22133E+01
  rms(prec ) = 0.29493E+01
  weight for this iteration     100.00

 eigenvalues of (default mixing * dielectric matrix)
  average eigenvalue GAMMA=   0.3786
  1.4631  0.6512  0.6512  0.3981  0.3981  0.3564  0.1196  0.1196  0.1098  0.1098
  0.0904  0.0759

 Free energy of the ion-electron system (eV)
  ---------------------------------------------------
  alpha Z        PSCENC =      1575.65330513
  Ewald energy   TEWEN  =    -35232.14786255
  -Hartree energ DENC   =    -19884.70705364
  -exchange      EXHF   =         0.00000000
  -V(xc)+E(xc)   XCENC  =      2346.79984724
  PAW double counting   =     60535.91526065   -62863.56377892
  entropy T*S    EENTRO =        -0.10828211
  eigenvalues    EBANDS =     -2079.03474108
  atomic energy  EATOM  =     55137.21312455
  Solvation  Ediel_sol  =         0.00000000
  ---------------------------------------------------
  free energy    TOTEN  =      -463.98018073 eV

  energy without entropy =     -463.87189862  energy(sigma->0) =     -463.92603967


--------------------------------------------------------------------------------------------------------




--------------------------------------- Iteration      1(  18)  ---------------------------------------


    POTLOK:  cpu time    0.3345: real time    0.3353
    SETDIJ:  cpu time    0.0341: real time    0.0341
     EDDAV:  cpu time  224.7443: real time  225.2876
    CHARGE:  cpu time    8.5124: real time    8.5326
    MIXING:  cpu time    0.0095: real time    0.0096
    --------------------------------------------
      LOOP:  cpu time  233.6348: real time  234.1991

 eigenvalue-minimisations  : 45280
 total energy-change (2. order) :-0.9469166E+00  (-0.4235405E+00)
 number of electron     608.0000017 magnetization      37.8041287
 augmentation part      223.8039605 magnetization      26.4318434

 Broyden mixing:
  rms(total) = 0.24002E+01    rms(broyden)= 0.24000E+01
  rms(prec ) = 0.30960E+01
  weight for this iteration     100.00

 eigenvalues of (default mixing * dielectric matrix)
  average eigenvalue GAMMA=   0.3687
  1.5180  0.6566  0.6566  0.4263  0.4263  0.3780  0.1209  0.1209  0.1164  0.1164
  0.0937  0.0870  0.0752

 Free energy of the ion-electron system (eV)
  ---------------------------------------------------
  alpha Z        PSCENC =      1575.65330513
  Ewald energy   TEWEN  =    -35232.14786255
  -Hartree energ DENC   =    -19887.69560628
  -exchange      EXHF   =         0.00000000
  -V(xc)+E(xc)   XCENC  =      2346.49947196
  PAW double counting   =     60663.28971333   -62989.41868432
  entropy T*S    EENTRO =        -0.11496642
  eigenvalues    EBANDS =     -2078.20559279
  atomic energy  EATOM  =     55137.21312455
  Solvation  Ediel_sol  =         0.00000000
  ---------------------------------------------------
  free energy    TOTEN  =      -464.92709737 eV

  energy without entropy =     -464.81213095  energy(sigma->0) =     -464.86961416


--------------------------------------------------------------------------------------------------------




--------------------------------------- Iteration      1(  19)  ---------------------------------------


    POTLOK:  cpu time    0.4190: real time    0.4200
    SETDIJ:  cpu time    0.0593: real time    0.0594
     EDDAV:  cpu time  216.8630: real time  217.5053
    CHARGE:  cpu time    8.1369: real time    8.1562
    MIXING:  cpu time    0.0106: real time    0.0106
    --------------------------------------------
      LOOP:  cpu time  225.4887: real time  226.1515

 eigenvalue-minimisations  : 42736
 total energy-change (2. order) : 0.8258745E+00  (-0.2812740E+00)
 number of electron     608.0000017 magnetization      35.9104760
 augmentation part      224.0121402 magnetization      24.4168036

 Broyden mixing:
  rms(total) = 0.11798E+01    rms(broyden)= 0.11795E+01
  rms(prec ) = 0.14121E+01
  weight for this iteration     100.00

 eigenvalues of (default mixing * dielectric matrix)
  average eigenvalue GAMMA=   0.3896
  1.6523  0.7202  0.7202  0.4888  0.4888  0.3329  0.3329  0.1204  0.1204  0.1318
  0.0955  0.0955  0.0804  0.0747

 Free energy of the ion-electron system (eV)
  ---------------------------------------------------
  alpha Z        PSCENC =      1575.65330513
  Ewald energy   TEWEN  =    -35232.14786255
  -Hartree energ DENC   =    -19888.04444411
  -exchange      EXHF   =         0.00000000
  -V(xc)+E(xc)   XCENC  =      2346.29799670
  PAW double counting   =     60763.48665403   -63089.29293425
  entropy T*S    EENTRO =        -0.11328089
  eigenvalues    EBANDS =     -2077.15378151
  atomic energy  EATOM  =     55137.21312455
  Solvation  Ediel_sol  =         0.00000000
  ---------------------------------------------------
  free energy    TOTEN  =      -464.10122290 eV

  energy without entropy =     -463.98794201  energy(sigma->0) =     -464.04458246


--------------------------------------------------------------------------------------------------------




--------------------------------------- Iteration      1(  20)  ---------------------------------------


    POTLOK:  cpu time    0.3294: real time    0.3302
    SETDIJ:  cpu time    0.0322: real time    0.0322
     EDDAV:  cpu time  209.2311: real time  209.7584
    CHARGE:  cpu time    7.9899: real time    8.0088
    MIXING:  cpu time    0.0121: real time    0.0121
    --------------------------------------------
      LOOP:  cpu time  217.5946: real time  218.1418

 eigenvalue-minimisations  : 42992
 total energy-change (2. order) :-0.1576444E+01  (-0.2292185E+00)
 number of electron     608.0000018 magnetization      34.3750771
 augmentation part      224.2106645 magnetization      23.3518767

 Broyden mixing:
  rms(total) = 0.19786E+01    rms(broyden)= 0.19784E+01
  rms(prec ) = 0.25742E+01
  weight for this iteration     100.00

 eigenvalues of (default mixing * dielectric matrix)
  average eigenvalue GAMMA=   0.3891
  1.6848  0.7760  0.7760  0.5230  0.5230  0.3573  0.3573  0.1496  0.1203  0.1203
  0.1026  0.1026  0.0901  0.0803  0.0732

 Free energy of the ion-electron system (eV)
  ---------------------------------------------------
  alpha Z        PSCENC =      1575.65330513
  Ewald energy   TEWEN  =    -35232.14786255
  -Hartree energ DENC   =    -19885.51645154
  -exchange      EXHF   =         0.00000000
  -V(xc)+E(xc)   XCENC  =      2345.85684278
  PAW double counting   =     60956.44921874   -63281.27435225
  entropy T*S    EENTRO =        -0.10919278
  eigenvalues    EBANDS =     -2081.80229878
  atomic energy  EATOM  =     55137.21312455
  Solvation  Ediel_sol  =         0.00000000
  ---------------------------------------------------
  free energy    TOTEN  =      -465.67766669 eV

  energy without entropy =     -465.56847390  energy(sigma->0) =     -465.62307030


--------------------------------------------------------------------------------------------------------




--------------------------------------- Iteration      1(  21)  ---------------------------------------


    POTLOK:  cpu time    0.3223: real time    0.3231
    SETDIJ:  cpu time    0.0307: real time    0.0307
     EDDAV:  cpu time  206.6929: real time  207.1819
    CHARGE:  cpu time    8.0092: real time    8.0282
    MIXING:  cpu time    0.0123: real time    0.0124
    --------------------------------------------
      LOOP:  cpu time  215.0674: real time  215.5763

 eigenvalue-minimisations  : 42704
 total energy-change (2. order) : 0.2529856E+00  (-0.2091232E+00)
 number of electron     608.0000017 magnetization      32.6975070
 augmentation part      224.4351490 magnetization      21.8110271

 Broyden mixing:
  rms(total) = 0.12061E+01    rms(broyden)= 0.12058E+01
  rms(prec ) = 0.15101E+01
  weight for this iteration     100.00

 eigenvalues of (default mixing * dielectric matrix)
  average eigenvalue GAMMA=   0.4129
  1.6203  0.9788  0.9788  0.5312  0.5312  0.4606  0.3514  0.3514  0.1209  0.1209
  0.1202  0.1020  0.0936  0.0936  0.0783  0.0731

 Free energy of the ion-electron system (eV)
  ---------------------------------------------------
  alpha Z        PSCENC =      1575.65330513
  Ewald energy   TEWEN  =    -35232.14786255
  -Hartree energ DENC   =    -19884.42982422
  -exchange      EXHF   =         0.00000000
  -V(xc)+E(xc)   XCENC  =      2345.56466170
  PAW double counting   =     61083.09419176   -63406.70668633
  entropy T*S    EENTRO =        -0.11225106
  eigenvalues    EBANDS =     -2083.55334009
  atomic energy  EATOM  =     55137.21312455
  Solvation  Ediel_sol  =         0.00000000
  ---------------------------------------------------
  free energy    TOTEN  =      -465.42468110 eV

  energy without entropy =     -465.31243004  energy(sigma->0) =     -465.36855557


--------------------------------------------------------------------------------------------------------




--------------------------------------- Iteration      1(  22)  ---------------------------------------


    POTLOK:  cpu time    0.3273: real time    0.3281
    SETDIJ:  cpu time    0.0327: real time    0.0328
     EDDAV:  cpu time  211.6728: real time  212.1852
    CHARGE:  cpu time    8.1256: real time    8.1449
    MIXING:  cpu time    0.0121: real time    0.0121
    --------------------------------------------
      LOOP:  cpu time  220.1705: real time  220.7031

 eigenvalue-minimisations  : 42144
 total energy-change (2. order) :-0.1150467E+01  (-0.2131260E+00)
 number of electron     608.0000019 magnetization      31.6212010
 augmentation part      224.4674487 magnetization      21.0460901

 Broyden mixing:
  rms(total) = 0.17310E+01    rms(broyden)= 0.17308E+01
  rms(prec ) = 0.23997E+01
  weight for this iteration     100.00

 eigenvalues of (default mixing * dielectric matrix)
  average eigenvalue GAMMA=   0.4059
  1.6006  1.0473  1.0473  0.5526  0.5141  0.5141  0.3521  0.3521  0.1208  0.1208
  0.1206  0.1206  0.1012  0.0927  0.0927  0.0783  0.0725

 Free energy of the ion-electron system (eV)
  ---------------------------------------------------
  alpha Z        PSCENC =      1575.65330513
  Ewald energy   TEWEN  =    -35232.14786255
  -Hartree energ DENC   =    -19883.34743556
  -exchange      EXHF   =         0.00000000
  -V(xc)+E(xc)   XCENC  =      2345.32186780
  PAW double counting   =     61153.94684227   -63474.39110246
  entropy T*S    EENTRO =        -0.10538468
  eigenvalues    EBANDS =     -2088.71850307
  atomic energy  EATOM  =     55137.21312455
  Solvation  Ediel_sol  =         0.00000000
  ---------------------------------------------------
  free energy    TOTEN  =      -466.57514857 eV

  energy without entropy =     -466.46976389  energy(sigma->0) =     -466.52245623


--------------------------------------------------------------------------------------------------------




--------------------------------------- Iteration      1(  23)  ---------------------------------------


    POTLOK:  cpu time    0.3404: real time    0.3412
    SETDIJ:  cpu time    0.0383: real time    0.0384
     EDDAV:  cpu time  198.3471: real time  198.8167
    CHARGE:  cpu time    8.0991: real time    8.1183
    MIXING:  cpu time    0.0131: real time    0.0131
    --------------------------------------------
      LOOP:  cpu time  206.8379: real time  207.3277

 eigenvalue-minimisations  : 39968
 total energy-change (2. order) : 0.5062401E+00  (-0.1621049E+00)
 number of electron     608.0000018 magnetization      30.6127219
 augmentation part      224.5080134 magnetization      19.8534696

 Broyden mixing:
  rms(total) = 0.87166E+00    rms(broyden)= 0.87142E+00
  rms(prec ) = 0.11534E+01
  weight for this iteration     100.00

 eigenvalues of (default mixing * dielectric matrix)
  average eigenvalue GAMMA=   0.4245
  1.4646  1.2412  1.2412  0.6042  0.5191  0.5191  0.4296  0.3674  0.3674  0.1206
  0.1206  0.1232  0.1040  0.0935  0.0935  0.0831  0.0772  0.0723

 Free energy of the ion-electron system (eV)
  ---------------------------------------------------
  alpha Z        PSCENC =      1575.65330513
  Ewald energy   TEWEN  =    -35232.14786255
  -Hartree energ DENC   =    -19884.68812955
  -exchange      EXHF   =         0.00000000
  -V(xc)+E(xc)   XCENC  =      2345.27611870
  PAW double counting   =     61203.08295611   -63522.16865492
  entropy T*S    EENTRO =        -0.11150591
  eigenvalues    EBANDS =     -2088.17826009
  atomic energy  EATOM  =     55137.21312455
  Solvation  Ediel_sol  =         0.00000000
  ---------------------------------------------------
  free energy    TOTEN  =      -466.06890852 eV

  energy without entropy =     -465.95740261  energy(sigma->0) =     -466.01315556


--------------------------------------------------------------------------------------------------------




--------------------------------------- Iteration      1(  24)  ---------------------------------------


    POTLOK:  cpu time    0.3328: real time    0.3336
    SETDIJ:  cpu time    0.0337: real time    0.0338
     EDDAV:  cpu time  206.8027: real time  207.2923
    CHARGE:  cpu time    7.9681: real time    7.9871
    MIXING:  cpu time    0.0118: real time    0.0118
    --------------------------------------------
      LOOP:  cpu time  215.1491: real time  215.6585

 eigenvalue-minimisations  : 41888
 total energy-change (2. order) :-0.3154418E+00  (-0.8934137E-01)
 number of electron     608.0000017 magnetization      29.8165375
 augmentation part      224.2582048 magnetization      19.3803932

 Broyden mixing:
  rms(total) = 0.11836E+01    rms(broyden)= 0.11835E+01
  rms(prec ) = 0.15417E+01
  weight for this iteration     100.00

 eigenvalues of (default mixing * dielectric matrix)
  average eigenvalue GAMMA=   0.4248
  1.3915  1.3915  1.3447  0.5509  0.5509  0.5725  0.5490  0.3600  0.3600  0.1207
  0.1207  0.1296  0.1088  0.1030  0.0939  0.0939  0.0811  0.0768  0.0722

 Free energy of the ion-electron system (eV)
  ---------------------------------------------------
  alpha Z        PSCENC =      1575.65330513
  Ewald energy   TEWEN  =    -35232.14786255
  -Hartree energ DENC   =    -19887.41047847
  -exchange      EXHF   =         0.00000000
  -V(xc)+E(xc)   XCENC  =      2345.32577909
  PAW double counting   =     61240.06500533   -63557.98356344
  entropy T*S    EENTRO =        -0.10894465
  eigenvalues    EBANDS =     -2086.99071534
  atomic energy  EATOM  =     55137.21312455
  Solvation  Ediel_sol  =         0.00000000
  ---------------------------------------------------
  free energy    TOTEN  =      -466.38435034 eV

  energy without entropy =     -466.27540568  energy(sigma->0) =     -466.32987801


--------------------------------------------------------------------------------------------------------




--------------------------------------- Iteration      1(  25)  ---------------------------------------


    POTLOK:  cpu time    0.3148: real time    0.3155
    SETDIJ:  cpu time    0.0332: real time    0.0333
     EDDAV:  cpu time  211.2394: real time  211.7396
    CHARGE:  cpu time    7.9861: real time    8.0051
    MIXING:  cpu time    0.0140: real time    0.0140
    --------------------------------------------
      LOOP:  cpu time  219.5875: real time  220.1076

 eigenvalue-minimisations  : 43360
 total energy-change (2. order) : 0.2698377E+00  (-0.6224135E-01)
 number of electron     608.0000017 magnetization      29.2487891
 augmentation part      224.2149482 magnetization      18.8433791

 Broyden mixing:
  rms(total) = 0.52441E+00    rms(broyden)= 0.52424E+00
  rms(prec ) = 0.66245E+00
  weight for this iteration     100.00

 eigenvalues of (default mixing * dielectric matrix)
[...]
   0.177E+03 0.360E+02 0.769E+02   -.191E+03 -.351E+02 -.806E+02   0.137E+02 0.309E+00 0.484E+01   0.372E-01 -.981E-01 -.147E-01
   0.253E+02 -.131E+03 -.166E+02   -.282E+02 0.141E+03 0.149E+02   0.258E+01 -.112E+02 0.258E+01   0.494E-01 -.305E-01 0.147E-01
   -.211E+03 0.124E+03 -.155E+03   0.230E+03 -.134E+03 0.166E+03   -.178E+02 0.961E+01 -.102E+02   -.991E-01 0.783E-01 0.303E-01
   0.767E+02 -.141E+02 0.138E+03   -.797E+02 0.132E+02 -.152E+03   0.401E+01 -.364E-01 0.949E+01   -.849E-01 -.399E-01 0.281E-01
   0.260E+02 0.109E+03 0.295E+02   -.297E+02 -.120E+03 -.346E+02   0.352E+01 0.114E+02 0.552E+01   0.122E+00 -.495E-01 -.824E-02
   -.206E+03 -.153E+02 -.130E+03   0.224E+03 0.161E+02 0.144E+03   -.173E+02 -.290E+01 -.141E+02   -.223E-01 -.695E-01 -.601E-01
   0.164E+03 0.172E+02 -.103E+01   -.176E+03 -.138E+02 0.718E+01   0.916E+01 -.100E+01 -.505E+01   -.160E+00 -.269E-01 0.776E-01
   0.199E+02 -.662E+02 0.131E+03   -.202E+02 0.719E+02 -.145E+03   -.973E-01 -.674E+01 0.101E+02   -.173E+00 0.581E-01 0.395E-01
   -.208E+03 -.475E+02 -.156E+03   0.226E+03 0.506E+02 0.168E+03   -.175E+02 -.925E+00 -.125E+02   0.147E-01 0.154E+00 0.986E-02
   0.159E+03 -.108E+02 0.120E+02   -.176E+03 0.926E+01 -.123E+02   0.157E+02 -.612E+00 0.150E+01   0.100E+00 0.154E+00 0.405E-01
   0.540E+02 0.809E+02 0.752E+02   -.590E+02 -.889E+02 -.835E+02   0.441E+01 0.889E+01 0.791E+01   -.115E+00 0.118E+00 -.150E+00
   -.185E+03 -.716E+02 -.151E+03   0.202E+03 0.769E+02 0.162E+03   -.178E+02 -.679E+01 -.113E+02   0.840E-02 0.181E+00 -.295E-01
   0.188E+03 0.368E+01 0.687E+02   -.206E+03 -.915E+00 -.728E+02   0.163E+02 0.232E-01 0.597E+01   0.207E+00 -.242E-01 -.218E+00
   -.932E+02 -.155E+03 0.111E+02   0.100E+03 0.171E+03 -.113E+02   -.429E+01 -.164E+02 0.146E+01   -.643E-01 0.612E-01 -.379E-01
   -.172E+03 0.807E+02 -.122E+03   0.187E+03 -.867E+02 0.132E+03   -.158E+02 0.702E+01 -.973E+01   0.238E+00 0.222E+00 0.219E-01
   0.119E+03 -.216E+02 0.618E+02   -.130E+03 0.236E+02 -.664E+02   0.109E+02 -.364E+01 0.544E+01   0.380E-01 0.420E-02 0.203E-01
   -.827E+02 0.121E+03 0.388E+02   0.925E+02 -.130E+03 -.387E+02   -.639E+01 0.753E+01 0.134E+01   -.113E+00 0.404E-01 0.880E-01
   -.965E+02 -.141E+03 -.149E+03   0.107E+03 0.154E+03 0.162E+03   -.120E+02 -.110E+02 -.133E+02   0.696E-01 0.164E+00 0.861E-01
   0.744E+02 0.164E+03 0.572E+02   -.806E+02 -.179E+03 -.595E+02   0.711E+01 0.111E+02 0.344E+01   0.429E-01 0.597E-01 -.153E+00
   0.401E+02 -.129E+03 0.432E+02   -.423E+02 0.137E+03 -.480E+02   0.157E+01 -.896E+01 0.552E+01   -.146E-01 0.368E-01 0.622E-01
   -.148E+03 0.848E+02 -.140E+03   0.161E+03 -.935E+02 0.151E+03   -.140E+02 0.802E+01 -.122E+02   0.554E-01 0.523E-01 -.878E-02
   0.925E+02 -.103E+03 0.924E+02   -.102E+03 0.112E+03 -.972E+02   0.103E+02 -.101E+02 0.496E+01   -.107E+00 0.997E-01 0.149E+00
   0.478E+02 0.134E+03 0.978E+00   -.517E+02 -.144E+03 -.171E+00   0.302E+01 0.100E+02 -.337E-02   0.242E+00 -.180E-01 0.260E-01
   -.757E+02 -.261E+03 -.114E+03   0.806E+02 0.294E+03 0.123E+03   -.730E+01 -.208E+02 -.741E+01   -.977E-01 0.387E-01 0.423E-01
   0.138E+03 -.268E+02 0.326E+02   -.153E+03 0.303E+02 -.340E+02   0.124E+02 -.150E+00 0.342E+01   -.532E-01 0.549E-01 0.114E+00
   0.474E+02 -.425E+02 0.108E+03   -.493E+02 0.451E+02 -.121E+03   0.167E+01 -.335E+01 0.106E+02   0.604E-01 -.159E-02 -.313E-01
   -.353E+03 -.137E+02 -.120E+03   0.400E+03 0.250E+02 0.131E+03   -.274E+02 0.130E+01 -.910E+01   -.762E-01 -.124E-02 0.726E-01
 -----------------------------------------------------------------------------------------------
   0.638E+02 0.315E+02 0.118E+02   0.114E-12 -.274E-12 0.426E-12   -.642E+02 -.317E+02 -.121E+02   0.408E+00 0.255E+00 0.279E+00
 
 
 POSITION                                       TOTAL-FORCE (eV/Angst)
 -----------------------------------------------------------------------------------
      6.98986      5.04001      2.61345         0.735699     -2.772721     -2.298338
      5.35298      2.39406      2.38392         1.285882     -0.290891      1.198107
      3.87591      3.28304      0.11322         0.268929      1.558222     -1.254132
      2.37883      0.40504      0.18353        -1.427107      0.944733     -0.941102
      2.42271      2.19633      2.57846        -0.954714      0.235043      0.300559
      0.70040      5.12163      2.58075         0.496158      0.322505     -0.355690
      1.96286      0.52702      9.92968         0.723422     -1.424736      0.552970
      0.47506      3.20646      9.88321         1.165523      0.399112      0.470470
      3.76681      5.12589      7.48774        -0.204546     -0.643579      2.023521
      2.16825      2.28093      7.67285         0.221423      1.373785     -0.279477
      0.58196      3.29489      5.13503         0.397887     -1.952873     -0.941322
     -0.83811      0.44057      5.09240         0.288060     -0.029897     -0.365771
     -1.14861      2.11434      7.57043         0.707997      2.015094     -0.655726
     -2.24906      5.30647      7.82475       -20.751958    -12.914218     -2.919457
      5.41722      0.46797      5.12495        -2.548825      1.315833     -2.102140
      3.72431      2.96626      5.10631         1.877066      1.076923     -1.715270
      6.87027     10.73273      2.30250        -1.154244      0.432518      5.243706
      5.50844      7.81076      2.48425        -0.229589     -0.986745     -0.074142
     -2.82134      8.87519      9.98038         2.113654      1.695763     -0.218422
     -4.05355      5.98152      9.97264        -0.566283      1.101425      3.540178
      2.14150      7.93268      2.56606         2.840627     -3.317748     -1.599270
      0.71029     10.84303      2.58166         0.327085      0.036019      0.187968
      2.06097      6.14417      9.92575        -0.315123     -0.256814      2.781997
      7.12358      8.71075      0.10374         0.454108     -0.140352     -0.753864
      3.64540     10.53254      7.53074         1.487930      0.478691     -0.531198
      2.35563      7.72149      7.54819        -0.371910      5.578293     -2.491595
      0.72289      8.90462      4.95831        -0.499420     -1.541619     -0.221074
     -0.88645      6.07900      5.16550         1.741276      0.264286     -1.064061
     -1.16799      7.75086      7.55463         3.941641     -2.349093     -1.493037
     -2.48122     10.70154      7.61390        -1.078253     -1.037337     -0.510146
      5.44845      6.13828      5.27511         1.385786    -11.098448     -1.774808
      3.77636      8.78826      4.91872         1.088004      1.155094      3.300244
      7.09133      5.05057      0.71000         1.204752     -0.647537     -0.341719
      0.84452      5.27172      0.74400        -0.513820      0.960479     -0.131428
      3.98364      5.14926      0.37682        -0.611436     -1.135926     -0.397744
      5.42935      0.58463      3.27890         1.419597      0.298620     -0.963343
      3.85548      3.13476      3.20764         0.408810     -0.463553      0.806237
      6.94782      3.35589      3.04616        -1.801155     -0.284799     -0.913372
      2.46320      2.42608      0.73759        -0.053195     -1.429372      0.066803
      5.43696      2.50373      0.57016         0.592598      0.166798      0.404540
      8.60833      2.10279      0.48189        -1.772197      1.944292     -0.513722
      0.94537      3.38626      3.21182         0.314007      0.012888      0.813514
     -0.99367      0.33009      3.16971         0.202081     -0.979786      0.454771
      2.32443      0.51271      3.19204        -1.511144      0.193263     -0.914961
      4.07256      5.09791      5.81834         0.689828     -0.234827     -1.683196
     -2.43392      5.35275      5.58663        -0.713511     -0.024570      1.417328
      0.54413      4.91326      5.49607        -1.409886      2.330455     -0.140762
      2.52459      0.56538      8.20985        -0.533460      0.295146     -0.204027
      0.51870      3.29978      8.00255         0.204336     -1.568519      0.855304
      3.56296      3.42081      7.96676        -0.846654      0.370633     -0.207280
     -0.84367      2.29235      5.73815         0.884371     -0.865184     -0.137230
      2.29124      2.44663      5.76734        -2.839028     -0.073996      1.001055
      5.16955      2.15377      5.43327         0.125113     -0.052784      0.487118
     -2.36636      3.29501      8.07700        -0.019886      1.151105      1.072033
     -4.14220      0.15128      8.15039        -0.267243     -0.667307      0.910238
     -1.10899      0.48356      7.94121         0.773364     -0.442742      0.525751
      7.30227     10.58821      0.75325         0.930283     -0.988999     -3.871011
      0.68901     10.94375      0.66183         0.003288      0.620066      0.435246
      3.71137     10.67194      0.68506         0.808160     -2.140070     -0.676476
      5.91354      6.12535      3.20253        -2.873619      2.361568      1.171954
      4.02875      8.50629      3.33481        -0.535972     -1.059551     -3.792214
      6.75935      8.78241      3.00167         0.674363      2.355512     -0.433822
      2.46714      7.91000      0.53879        -0.765830     -1.997695      1.267669
      5.48009      8.06910      0.69057        -0.747997      1.029492     -0.526337
      8.62166      7.91056      0.54733        -0.698534     -1.254296     -0.710220
      0.90897      8.90699      2.99824        -2.085003      2.765355      1.637639
     -1.05823      5.86130      3.04439         2.832137     -0.020305      1.232212
      2.11298      6.13397      2.98894        -0.798470      1.182107     -0.492674
      4.02878     10.62318      5.64760        -0.370362     -1.596727      0.847881
     -2.62510     11.08630      5.73388         3.360084     -0.982844      1.532140
      0.63970     10.46867      5.56638        -1.472972      2.019516     -0.268509
      2.38440      6.28861      8.23103         1.010658     -4.580465      1.022020
      0.69512      8.45578      8.18010        -0.617311     -0.698190      0.704229
      3.66443      8.88839      8.01327        -0.856323     -0.606239     -0.389265
     -0.79556      7.94353      5.62105         0.676313     -1.157395      0.308909
      2.29698      8.17341      5.65656        -0.589041     -0.020738      0.828948
      5.30466      7.57953      5.47225        -2.445206     11.448330      1.314276
     -2.28971      8.83893      7.96653        -2.766817      3.406130      2.137031
     -4.04813      5.69571      8.33589        -0.125611     -0.792139     -2.942602
     -1.08135      5.98214      7.97283        20.081353     12.628531      2.357388
 -----------------------------------------------------------------------------------
    total drift:                               -0.021485     -0.010326      0.015862


--------------------------------------------------------------------------------------------------------



  FREE ENERGIE OF THE ION-ELECTRON SYSTEM (eV)
  ---------------------------------------------------
  free  energy   TOTEN  =      -466.4994506946 eV

  energy  without entropy=     -466.4005539035  energy(sigma->0) =     -466.45000230
 


--------------------------------------------------------------------------------------------------------


    POTLOK:  cpu time    0.3600: real time    0.3608


--------------------------------------------------------------------------------------------------------


     LOOP+:  cpu time17010.8276: real time17052.3871
    4ORBIT:  cpu time    0.0000: real time    0.0000

volume of typ            1:    19.3 %

volume of typ            2:     7.4 %
 
total charge     
 
# of ion       s       p       d       tot
------------------------------------------
    1        0.341   0.444   7.841   8.627
    2        0.241   0.259   7.859   8.360
    3        0.267   0.297   7.846   8.410
    4        0.267   0.289   7.840   8.395
    5        0.270   0.309   7.824   8.403
    6        0.266   0.296   7.823   8.385
    7        0.288   0.342   7.880   8.510
    8        0.234   0.235   7.830   8.300
    9        0.278   0.323   7.883   8.484
   10        0.250   0.276   7.853   8.379
   11        0.276   0.311   7.858   8.444
   12        0.227   0.231   7.853   8.311
   13        0.293   0.347   7.851   8.492
   14        0.369   0.473   8.036   8.877
   15        0.329   0.428   7.853   8.609
   16        0.297   0.342   7.892   8.531
   17        0.266   0.296   7.882   8.444
   18        0.300   0.360   7.851   8.511
   19        0.252   0.262   7.867   8.380
   20        0.289   0.331   7.861   8.482
   21        0.277   0.308   7.858   8.443
   22        0.238   0.244   7.821   8.302
   23        0.244   0.255   7.872   8.371
   24        0.257   0.280   7.840   8.377
   25        0.281   0.333   7.848   8.461
   26        0.306   0.376   7.882   8.564
   27        0.275   0.315   7.858   8.448
   28        0.252   0.272   7.850   8.374
   29        0.280   0.336   7.899   8.515
   30        0.277   0.327   7.871   8.475
   31        0.362   0.461   7.928   8.751
   32        0.293   0.338   7.896   8.527
   33        1.274   2.692   0.004   3.971
   34        1.277   2.697   0.005   3.980
   35        1.285   2.691   0.007   3.982
   36        1.274   2.700   0.005   3.980
   37        1.273   2.734   0.008   4.015
   38        1.287   2.678   0.006   3.971
   39        1.269   2.739   0.008   4.016
   40        1.266   2.760   0.010   4.036
   41        1.289   2.683   0.008   3.980
   42        1.271   2.712   0.006   3.989
   43        1.271   2.710   0.006   3.986
   44        1.283   2.686   0.006   3.974
   45        1.275   2.741   0.009   4.026
   46        1.278   2.733   0.008   4.020
   47        1.281   2.722   0.009   4.012
   48        1.260   2.787   0.010   4.058
   49        1.279   2.693   0.005   3.977
   50        1.282   2.697   0.007   3.986
   51        1.271   2.726   0.007   4.004
   52        1.274   2.753   0.010   4.036
   53        1.284   2.730   0.011   4.025
   54        1.275   2.709   0.006   3.989
   55        1.276   2.705   0.006   3.987
   56        1.279   2.759   0.013   4.050
   57        1.267   2.789   0.013   4.068
   58        1.274   2.717   0.006   3.997
   59        1.282   2.707   0.008   3.997
   60        1.278   2.757   0.010   4.046
   61        1.274   2.767   0.012   4.052
   62        1.290   2.683   0.008   3.981
   63        1.272   2.732   0.008   4.012
   64        1.271   2.730   0.007   4.007
   65        1.286   2.685   0.007   3.978
   66        1.271   2.762   0.011   4.044
   67        1.280   2.724   0.008   4.012
   68        1.282   2.692   0.007   3.980
   69        1.274   2.726   0.007   4.006
   70        1.274   2.766   0.011   4.052
   71        1.282   2.711   0.008   4.001
   72        1.267   2.817   0.017   4.101
   73        1.278   2.688   0.004   3.970
   74        1.281   2.717   0.009   4.007
   75        1.271   2.712   0.006   3.988
   76        1.270   2.751   0.008   4.029
   77        1.295   2.770   0.018   4.083
   78        1.269   2.768   0.011   4.048
   79        1.270   2.772   0.011   4.052
   80        1.301   2.844   0.030   4.176
--------------------------------------------------
tot          70.23  141.32  252.13  463.68
 
magnetization (x)
 
# of ion       s       p       d       tot
------------------------------------------
    1       -0.001  -0.010  -0.455  -0.466
    2        0.004   0.012   0.528   0.544
    3        0.005   0.019   1.014   1.038
    4        0.007   0.020   1.150   1.177
    5        0.003   0.028   1.260   1.291
    6        0.001   0.015   0.850   0.866
    7        0.001   0.005   0.240   0.246
    8        0.000   0.019   1.223   1.242
    9        0.002   0.006   0.410   0.417
   10        0.003   0.013   0.979   0.995
   11        0.003   0.004   0.442   0.449
   12        0.001   0.015   1.122   1.138
   13        0.003   0.009   0.661   0.673
   14       -0.012  -0.009  -0.267  -0.288
   15        0.001   0.002   0.106   0.109
   16        0.000   0.003   0.056   0.059
   17       -0.007  -0.006  -0.584  -0.597
   18       -0.001   0.012   0.755   0.766
   19       -0.008  -0.014  -0.845  -0.867
   20        0.000   0.017   0.815   0.832
   21       -0.006  -0.015  -1.039  -1.060
   22        0.000   0.021   1.309   1.330
   23       -0.000   0.012   0.888   0.899
   24        0.004   0.016   0.945   0.965
   25        0.003   0.010   0.575   0.588
   26       -0.002  -0.008  -0.487  -0.497
   27        0.004   0.016   0.937   0.957
   28        0.005   0.016   1.122   1.143
   29       -0.001   0.003   0.313   0.315
   30       -0.001  -0.004  -0.238  -0.243
   31        0.005   0.006   0.356   0.367
   32        0.000  -0.007  -0.205  -0.212
   33        0.003   0.100   0.000   0.103
   34        0.008   0.280   0.000   0.288
   35        0.008   0.337   0.000   0.345
   36        0.001  -0.007   0.000  -0.006
   37        0.006   0.170   0.000   0.176
   38       -0.001  -0.109   0.000  -0.110
   39        0.009   0.265   0.000   0.275
   40        0.007   0.181   0.000   0.188
   41        0.007   0.309  -0.000   0.315
   42        0.009   0.210   0.000   0.219
   43        0.006   0.224   0.000   0.229
   44        0.011   0.495   0.000   0.506
   45        0.003   0.061   0.000   0.064
   46        0.005   0.137   0.000   0.142
   47        0.007   0.279   0.000   0.285
   48        0.005   0.097   0.000   0.103
   49        0.009   0.326   0.000   0.336
   50        0.008   0.309   0.000   0.317
   51        0.007   0.133   0.000   0.140
   52        0.006   0.088   0.000   0.094
   53        0.002   0.050   0.000   0.051
   54        0.006   0.171   0.000   0.177
   55        0.007   0.166   0.000   0.173
   56        0.001   0.062   0.000   0.064
   57        0.001  -0.080  -0.000  -0.079
   58        0.008   0.252   0.000   0.261
   59        0.004   0.198   0.000   0.202
   60        0.000  -0.005  -0.000  -0.005
   61        0.001  -0.018  -0.000  -0.017
   62        0.005   0.252   0.000   0.257
   63       -0.004  -0.170  -0.000  -0.175
   64        0.003   0.090   0.000   0.093
   65        0.009   0.397  -0.000   0.405
   66        0.002  -0.044  -0.000  -0.042
   67        0.005   0.176  -0.000   0.181
   68       -0.002  -0.149   0.000  -0.151
   69        0.002   0.024   0.000   0.026
   70        0.003   0.062  -0.000   0.064
   71        0.010   0.407   0.000   0.417
   72        0.002  -0.007  -0.000  -0.005
   73        0.002   0.100   0.000   0.102
   74        0.001   0.052   0.000   0.053
   75        0.008   0.220   0.000   0.228
   76        0.002   0.000  -0.000   0.002
   77        0.003   0.132   0.000   0.135
   78       -0.000  -0.000   0.000  -0.001
   79        0.005   0.094   0.000   0.099
   80       -0.001  -0.091  -0.001  -0.093
--------------------------------------------------
tot           0.22    6.45   13.94   20.61
 

 total amount of memory used by VASP MPI-rank0   600193. kBytes
=======================================================================

   base      :      30000. kBytes
   nonlr-proj:      51253. kBytes
   fftplans  :      11362. kBytes
   grid      :      64490. kBytes
   one-center:       2488. kBytes
   wavefun   :     440600. kBytes
 
  
  
 General timing and accounting informations for this job:
 ========================================================
  
                  Total CPU time used (sec):    17154.807
                            User time (sec):    17136.691
                          System time (sec):       18.116
                         Elapsed time (sec):    17201.491
  
                   Maximum memory used (kb):      722992.
                   Average memory used (kb):           0.
  
                          Minor page faults:        48635
                          Major page faults:           27
                 Voluntary context switches:         1176
