 vasp.5.4.4.18Apr17-6-g9f103f2a35 (build May 12 2020 04:58:55) complex          
  
 MD_VERSION_INFO: Compiled 2020-05-12T11:58:55-UTC in devlin.sd.materialsdesign.
 com:/home/medea2/data/build/wwolf/vasp-gpu5.4.4/13047/x86_64/src/src/build/std 
 from svn 13047
 
 This VASP executable licensed from Materials Design, Inc.
 
 executed on                        Lin64 date 2023.03.25  19:25:37
 running on   16 total cores
 distrk:  each k-point on   16 cores,    1 groups
 distr:  one band on NCORES_PER_BAND=   1 cores,   16 groups


--------------------------------------------------------------------------------------------------------


 INCAR:
 POTCAR:    PAW_PBE Ni 02Aug2007                  
 POTCAR:    PAW_PBE O 08Apr2002                   

 ----------------------------------------------------------------------------- 
|                                                                             |
|           W    W    AA    RRRRR   N    N  II  N    N   GGGG   !!!           |
|           W    W   A  A   R    R  NN   N  II  NN   N  G    G  !!!           |
|           W    W  A    A  R    R  N N  N  II  N N  N  G       !!!           |
|           W WW W  AAAAAA  RRRRR   N  N N  II  N  N N  G  GGG   !            |
|           WW  WW  A    A  R   R   N   NN  II  N   NN  G    G                |
|           W    W  A    A  R    R  N    N  II  N    N   GGGG   !!!           |
|                                                                             |
|      For optimal performance we recommend to set                            |
|        NCORE= 4 - approx SQRT( number of cores)                             |
|      NCORE specifies how many cores store one orbital (NPAR=cpu/NCORE).     |
|      This setting can  greatly improve the performance of VASP for DFT.     |
|      The default,   NCORE=1            might be grossly inefficient         |
|      on modern multi-core architectures or massively parallel machines.     |
|      Do your own testing !!!!                                               |
|      Unfortunately you need to use the default for GW and RPA calculations. |
|      (for HF NCORE is supported but not extensively tested yet)             |
|                                                                             |
 ----------------------------------------------------------------------------- 

 POTCAR:    PAW_PBE Ni 02Aug2007                  
  local pseudopotential read in
  partial core-charges read in
  partial kinetic energy density read in
  atomic valenz-charges read in
  non local Contribution for L=           2  read in
    real space projection operators read in
  non local Contribution for L=           2  read in
    real space projection operators read in
  non local Contribution for L=           0  read in
    real space projection operators read in
  non local Contribution for L=           0  read in
    real space projection operators read in
  non local Contribution for L=           1  read in
    real space projection operators read in
  non local Contribution for L=           1  read in
    real space projection operators read in
    PAW grid and wavefunctions read in
 
   number of l-projection  operators is LMAX  =           6
   number of lm-projection operators is LMMAX =          18
 
 POTCAR:    PAW_PBE O 08Apr2002                   
  local pseudopotential read in
  partial core-charges read in
  partial kinetic energy density read in
  kinetic energy density of atom read in
  atomic valenz-charges read in
  non local Contribution for L=           0  read in
    real space projection operators read in
  non local Contribution for L=           0  read in
    real space projection operators read in
  non local Contribution for L=           1  read in
    real space projection operators read in
  non local Contribution for L=           1  read in
    real space projection operators read in
    PAW grid and wavefunctions read in
 
   number of l-projection  operators is LMAX  =           4
   number of lm-projection operators is LMMAX =           8
 
 Optimization of the real space projectors (new method)

 maximal supplied QI-value         = 16.25
 optimisation between [QCUT,QGAM] = [ 11.38, 22.75] = [ 36.24,144.96] Ry 
 Optimized for a Real-space Cutoff    1.47 Angstroem

   l    n(q)    QCUT    max X(q) W(low)/X(q) W(high)/X(q)  e(spline) 
   2      9    11.376    60.317    0.17E-03    0.16E-04    0.16E-06
   2      9    11.376    55.921    0.17E-03    0.16E-04    0.17E-06
   0     10    11.376    51.690    0.45E-04    0.60E-04    0.21E-06
   0     10    11.376    30.015    0.37E-04    0.55E-04    0.19E-06
   1     10    11.376    18.849    0.83E-04    0.11E-03    0.92E-07
   1     10    11.376    14.624    0.69E-04    0.92E-04    0.82E-07
 Optimization of the real space projectors (new method)

 maximal supplied QI-value         = 24.76
 optimisation between [QCUT,QGAM] = [ 11.39, 22.77] = [ 36.31,145.25] Ry 
 Optimized for a Real-space Cutoff    1.10 Angstroem

   l    n(q)    QCUT    max X(q) W(low)/X(q) W(high)/X(q)  e(spline) 
   0      7    11.387    20.381    0.22E-03    0.48E-03    0.18E-06
   0      7    11.387    15.268    0.22E-03    0.52E-03    0.19E-06
   1      7    11.387     5.964    0.22E-03    0.73E-03    0.24E-06
   1      7    11.387     5.382    0.19E-03    0.60E-03    0.21E-06

 ----------------------------------------------------------------------------- 
|                                                                             |
|  ADVICE TO THIS USER RUNNING 'VASP/VAMP'   (HEAR YOUR MASTER'S VOICE ...):  |
|                                                                             |
|      You enforced a specific xc-type in the INCAR file,                     |
|      a different type was found on the POTCAR file                          |
|          I HOPE YOU KNOW, WHAT YOU ARE  DOING                               |
|                                                                             |
 ----------------------------------------------------------------------------- 

  PAW_PBE Ni 02Aug2007                  :
 energy of atom  1       EATOM=-1077.6739
 kinetic energy error for atom=    0.0030 (will be added to EATOM!!)
  PAW_PBE O 08Apr2002                   :
 energy of atom  2       EATOM= -432.3788
 kinetic energy error for atom=    0.0224 (will be added to EATOM!!)
 
 
 POSCAR: Ni2O3_Cc_scale_1_000_disp_0_05_round_1  
  positions in direct lattice
  No initial velocities read in
 exchange correlation table for  LEXCH =       14
   RHO(1)=    0.500       N(1)  =     2000
   RHO(2)=  100.500       N(2)  =     4000
 


--------------------------------------------------------------------------------------------------------


 ion  position               nearest neighbor table
   1  0.910  0.446  0.247-  38 1.76  33 1.85  60 1.92  67 1.96   8 2.91
   2  0.753  0.203  0.252-  38 1.81  36 1.81  37 1.87  40 1.92  15 3.06   8 3.07
   3  0.404  0.299  0.996-  35 1.70  39 1.91  54 1.91  40 1.98  14 2.97
   4  0.257  0.038  0.007-  59 1.74  55 1.90  58 1.93  39 1.94   5 3.01  22 3.01  19 3.05
   5  0.406  0.199  0.248-  44 1.82  39 1.83  42 1.86  37 1.93  22 3.01   4 3.01
   6  0.260  0.457  0.247-  68 1.74  42 1.82  34 1.84  67 1.99  20 3.00  23 3.06
   7  0.905  0.058  0.999-  41 1.68  48 1.92  57 1.95  58 1.97  10 2.99   8 3.00
   8  0.760  0.293  0.013-  40 1.75  41 1.84  49 1.86  33 1.88   1 2.91   7 3.00   2 3.07
   9  0.906  0.451  0.749-  50 1.78  72 1.80  45 1.93  79 1.97  16 3.03  10 3.04
  10  0.752  0.215  0.757-  49 1.80  50 1.84  48 1.85  52 1.95   7 2.99   9 3.04
  11  0.403  0.292  0.504-  51 1.68  47 1.81  42 1.94  52 1.99  13 3.07
  12  0.253  0.043  0.506-  70 1.81  71 1.90  43 1.91  51 1.96  13 3.02  27 3.05
  13  0.412  0.200  0.750-  56 1.82  51 1.86  54 1.89  49 2.04  12 3.02  11 3.07  30 3.09
  14  0.256  0.454  0.756-  54 1.78  80 1.85  79 1.85  46 2.00   3 2.97
  15  0.915  0.048  0.504-  53 1.76  69 1.86  36 1.90  70 1.91   2 3.06  16 3.07
  16  0.757  0.287  0.509-  52 1.77  53 1.84  45 1.85  37 2.00   9 3.03  15 3.07
  17  0.909  0.953  0.252-  36 1.82  57 1.84  62 1.89  43 1.98
  18  0.754  0.709  0.250-  62 1.80  61 1.89  64 1.90  60 1.91  24 3.06  31 3.08
  19  0.418  0.805  0.996-  59 1.77  78 1.85  64 1.88  63 1.94  30 2.95   4 3.05  24 3.08
  20  0.258  0.552  0.012-  63 1.81  34 1.91  35 1.92  79 2.03  21 2.89   6 3.00
  21  0.408  0.707  0.243-  63 1.83  66 1.85  68 1.87  61 1.98  20 2.89
  22  0.248  0.964  0.245-  58 1.77  44 1.82  43 1.86  66 1.97   5 3.01   4 3.01
  23  0.921  0.542  0.009-  33 1.79  34 1.79  65 1.91  72 1.97   6 3.06
  24  0.747  0.786  0.001-  64 1.80  65 1.82  73 1.90  57 1.98  18 3.06  26 3.06  19 3.08
  25  0.920  0.957  0.751-  74 1.78  69 1.86  55 1.90  48 1.91
  26  0.752  0.706  0.760-  73 1.77  74 1.87  72 1.88  76 1.91  24 3.06
  27  0.420  0.809  0.504-  71 1.65  75 1.91  76 1.95  66 1.98  12 3.05
  28  0.249  0.542  0.496-  67 1.81  47 1.84  46 1.86  75 1.94  29 3.07
  29  0.416  0.696  0.750-  80 1.70  73 1.88  78 1.89  75 1.90  28 3.07
  30  0.255  0.960  0.758-  56 1.75  55 1.81  78 1.93  70 1.97  19 2.95  13 3.09
  31  0.917  0.550  0.501-  77 1.76  60 1.85  46 1.85  45 1.91  18 3.08
  32  0.756  0.794  0.501-  77 1.77  61 1.80  69 1.86  76 1.99
  33  0.814  0.454  0.065-  23 1.79   1 1.85   8 1.88
  34  0.122  0.478  0.066-  23 1.79   6 1.84  20 1.91
  35  0.437  0.440  0.058-   3 1.70  20 1.92
  36  0.817  0.052  0.317-   2 1.81  17 1.82  15 1.90
  37  0.624  0.268  0.311-   2 1.87   5 1.93  16 2.00
  38  0.933  0.296  0.297-   1 1.76   2 1.81
  39  0.304  0.204  0.067-   5 1.83   3 1.91   4 1.94
  40  0.633  0.235  0.064-   8 1.75   2 1.92   3 1.98
  41  0.944  0.201  0.053-   7 1.68   8 1.84
  42  0.321  0.306  0.317-   6 1.82   5 1.86  11 1.94
  43  0.131  0.026  0.316-  22 1.86  12 1.91  17 1.98
  44  0.444  0.045  0.309-   5 1.82  22 1.82
  45  0.808  0.446  0.559-  16 1.85  31 1.91   9 1.93
  46  0.123  0.480  0.559-  31 1.85  28 1.86  14 2.00
  47  0.437  0.449  0.550-  11 1.81  28 1.84
  48  0.809  0.057  0.810-  10 1.85  25 1.91   7 1.92
  49  0.643  0.278  0.829-  10 1.80   8 1.86  13 2.04
  50  0.944  0.300  0.807-   9 1.78  10 1.84
  51  0.313  0.209  0.567-  11 1.68  13 1.86  12 1.96
  52  0.630  0.230  0.564-  16 1.77  10 1.95  11 1.99
  53  0.945  0.200  0.552-  15 1.76  16 1.84
  54  0.305  0.302  0.808-  14 1.78  13 1.89   3 1.91
  55  0.134  0.027  0.818-  30 1.81  25 1.90   4 1.90
  56  0.434  0.044  0.800-  30 1.75  13 1.82
  57  0.810  0.952  0.071-  17 1.84   7 1.95  24 1.98
  58  0.121  0.975  0.069-  22 1.77   4 1.93   7 1.97
  59  0.436  0.954  0.054-   4 1.74  19 1.77
  60  0.814  0.549  0.318-  31 1.85  18 1.91   1 1.92
  61  0.638  0.772  0.323-  32 1.80  18 1.89  21 1.98
  62  0.946  0.791  0.308-  18 1.80  17 1.89
  63  0.310  0.707  0.063-  20 1.81  21 1.83  19 1.94
  64  0.623  0.725  0.061-  24 1.80  19 1.88  18 1.90
  65  0.943  0.709  0.053-  24 1.82  23 1.91
  66  0.304  0.796  0.308-  21 1.85  22 1.97  27 1.98
  67  0.127  0.526  0.316-  28 1.81   1 1.96   6 1.99
  68  0.435  0.546  0.297-   6 1.74  21 1.87
  69  0.815  0.950  0.567-  15 1.86  25 1.86  32 1.86
  70  0.128  0.976  0.563-  12 1.81  15 1.91  30 1.97
  71  0.445  0.950  0.551-  27 1.65  12 1.90
  72  0.814  0.546  0.815-   9 1.80  26 1.88  23 1.97
  73  0.626  0.768  0.813-  26 1.77  29 1.88  24 1.90
  74  0.934  0.803  0.793-  25 1.78  26 1.87
  75  0.310  0.705  0.562-  29 1.90  27 1.91  28 1.94
  76  0.628  0.720  0.571-  26 1.91  27 1.95  32 1.99
  77  0.932  0.702  0.545-  31 1.76  32 1.77
  78  0.313  0.796  0.814-  19 1.85  29 1.89  30 1.93
  79  0.127  0.523  0.812-  14 1.85   9 1.97  20 2.03
  80  0.439  0.550  0.801-  29 1.70  14 1.85
 
  LATTYP: Found a simple monoclinic cell.
 ALAT       =    15.9476545966
 B/A-ratio  =     0.6987547876
 C/A-ratio  =     1.5833429409
 COS(beta)  =    -0.9717709890
  
  Lattice vectors:
  
 A1 = ( -12.3942402100,   0.0000000000, -10.0354619600)
 A2 = (   0.0000000000, -11.1435000000,   0.0000000000)
 A3 = (  15.3215904200,   0.0000000000,  20.0709239200)


Analysis of symmetry for initial positions (statically):
=====================================================================
 Subroutine PRICEL returns:
 Original cell was already a primitive cell.
 

 Routine SETGRP: Setting up the symmetry group for a 
 simple monoclinic supercell.


 Subroutine GETGRP returns: Found  1 space group operations
 (whereof  1 operations were pure point group operations)
 out of a pool of  4 trial point group operations.


The static configuration has the point symmetry C_1 .


Analysis of symmetry for dynamics (positions and initial velocities):
=====================================================================
 Subroutine PRICEL returns:
 Original cell was already a primitive cell.
 

 Routine SETGRP: Setting up the symmetry group for a 
 simple monoclinic supercell.


 Subroutine GETGRP returns: Found  1 space group operations
 (whereof  1 operations were pure point group operations)
 out of a pool of  4 trial point group operations.


The dynamic configuration has the point symmetry C_1 .


Analysis of structural, dynamic, and magnetic symmetry:
=====================================================================
 Subroutine PRICEL returns:
 Original cell was already a primitive cell.
 

 Routine SETGRP: Setting up the symmetry group for a 
 simple monoclinic supercell.


 Subroutine GETGRP returns: Found  1 space group operations
 (whereof  1 operations were pure point group operations)
 out of a pool of  4 trial point group operations.


The magnetic configuration has the point symmetry C_1 .


 Subroutine INISYM returns: Found  1 space group operations
 (whereof  1 operations are pure point group operations),
 and found     1 'primitive' translations

 
 
 KPOINTS: Automatic mesh                          

Automatic generation of k-mesh.
Space group operators:
 irot       det(A)        alpha          n_x          n_y          n_z        tau_x        tau_y        tau_z
    1     1.000000     0.000000     1.000000     0.000000     0.000000     0.000000     0.000000     0.000000
 
 Subroutine IBZKPT returns following result:
 ===========================================
 
 Found     19 irreducible k-points:
 
 Following reciprocal coordinates:
            Coordinates               Weight
  0.000000  0.000000  0.000000      1.000000
  0.250000  0.000000 -0.000000      2.000000
  0.500000  0.000000 -0.000000      1.000000
  0.000000  0.333333  0.000000      2.000000
  0.250000  0.333333 -0.000000      2.000000
  0.500000  0.333333 -0.000000      2.000000
 -0.250000  0.333333  0.000000      2.000000
  0.000000  0.000000  0.333333      2.000000
  0.250000  0.000000  0.333333      2.000000
  0.500000  0.000000  0.333333      2.000000
 -0.250000  0.000000  0.333333      2.000000
  0.000000  0.333333  0.333333      2.000000
  0.250000  0.333333  0.333333      2.000000
  0.500000  0.333333  0.333333      2.000000
 -0.250000  0.333333  0.333333      2.000000
  0.000000 -0.333333  0.333333      2.000000
  0.250000 -0.333333  0.333333      2.000000
  0.500000 -0.333333  0.333333      2.000000
 -0.250000 -0.333333  0.333333      2.000000
 
 Following cartesian coordinates:
            Coordinates               Weight
  0.000000  0.000000  0.000000      1.000000
  0.026408  0.000000  0.017208      2.000000
  0.052816  0.000000  0.034417      1.000000
  0.000000  0.029913  0.000000      2.000000
  0.026408  0.029913  0.017208      2.000000
  0.052816  0.029913  0.034417      2.000000
 -0.026408  0.029913 -0.017208      2.000000
  0.000000  0.000000  0.033216      2.000000
  0.026408  0.000000  0.050424      2.000000
  0.052816  0.000000  0.067633      2.000000
 -0.026408  0.000000  0.016007      2.000000
  0.000000  0.029913  0.033216      2.000000
  0.026408  0.029913  0.050424      2.000000
  0.052816  0.029913  0.067633      2.000000
 -0.026408  0.029913  0.016007      2.000000
  0.000000 -0.029913  0.033216      2.000000
  0.026408 -0.029913  0.050424      2.000000
  0.052816 -0.029913  0.067633      2.000000
 -0.026408 -0.029913  0.016007      2.000000
 


--------------------------------------------------------------------------------------------------------




 Dimension of arrays:
   k-points           NKPTS =     19   k-points in BZ     NKDIM =     19   number of bands    NBANDS=    416
   number of dos      NEDOS =    301   number of ions     NIONS =     80
   non local maximal  LDIM  =      6   non local SUM 2l+1 LMDIM =     18
   total plane-waves  NPLWV = 529200
   max r-space proj   IRMAX =   6761   max aug-charges    IRDMAX=  16401
   dimension x,y,z NGX =    70 NGY =   84 NGZ =   90
   dimension x,y,z NGXF=   140 NGYF=  168 NGZF=  180
   support grid    NGXF=   140 NGYF=  168 NGZF=  180
   ions per type =              32  48
   NGX,Y,Z   is equivalent  to a cutoff of  12.29, 12.53, 12.49 a.u.
   NGXF,Y,Z  is equivalent  to a cutoff of  24.59, 25.06, 24.98 a.u.

 SYSTEM =  unknown system                          
 POSCAR =  Ni2O3_Cc_scale_1_000_disp_0_05_round_1  

 Startparameter for this run:
   NWRITE =      1    write-flag & timer
   PREC   = accura    normal or accurate (medium, high low for compatibility)
   ISTART =      0    job   : 0-new  1-cont  2-samecut
   ICHARG =      2    charge: 1-file 2-atom 10-const
   ISPIN  =      2    spin polarized calculation?
   LNONCOLLINEAR =      F non collinear calculations
   LSORBIT =      F    spin-orbit coupling
   INIWAV =      1    electr: 0-lowe 1-rand  2-diag
   LASPH  =      F    aspherical Exc in radial PAW
   METAGGA=      F    non-selfconsistent MetaGGA calc.

 Electronic Relaxation 1
   ENCUT  =  500.0 eV  36.75 Ry    6.06 a.u.  17.26 20.32 21.84*2*pi/ulx,y,z
   ENINI  =  500.0     initial cutoff
   ENAUG  =  605.4 eV  augmentation charge cutoff
   NELM   =     80;   NELMIN=  2; NELMDL= -5     # of ELM steps 
   EDIFF  = 0.1E-04   stopping-criterion for ELM
   LREAL  =      T    real-space projection
   NLSPLINE    = F    spline interpolate recip. space projectors
   LCOMPAT=      F    compatible to vasp.4.4
   GGA_COMPAT  = T    GGA compatible to vasp.4.4-vasp.4.6
   LMAXPAW     = -100 max onsite density
   LMAXMIX     =    2 max onsite mixed and CHGCAR
   VOSKOWN=      1    Vosko Wilk Nusair interpolation
   ROPT   =   -0.00025  -0.00025
 Ionic relaxation
   EDIFFG = 0.1E-03   stopping-criterion for IOM
   NSW    =      0    number of steps for IOM
   NBLOCK =      1;   KBLOCK =      1    inner block; outer block 
   IBRION =     -1    ionic relax: 0-MD 1-quasi-New 2-CG
   NFREE  =      0    steps in history (QN), initial steepest desc. (CG)
   ISIF   =      2    stress and relaxation
   IWAVPR =     10    prediction:  0-non 1-charg 2-wave 3-comb
   ISYM   =      2    0-nonsym 1-usesym 2-fastsym
   LCORR  =      T    Harris-Foulkes like correction to forces

   POTIM  = 0.5000    time-step for ionic-motion
   TEIN   =    0.0    initial temperature
   TEBEG  =    0.0;   TEEND  =   0.0 temperature during run
   SMASS  =  -3.00    Nose mass-parameter (am)
   estimated Nose-frequenzy (Omega)   =  0.10E-29 period in steps =****** mass=  -0.205E-26a.u.
   SCALEE = 1.0000    scale energy and forces
   NPACO  =    256;   APACO  = 16.0  distance and # of slots for P.C.
   PSTRESS=    0.0 pullay stress

  Mass of Ions in am
   POMASS =  58.69 16.00
  Ionic Valenz
   ZVAL   =  10.00  6.00
  Atomic Wigner-Seitz radii
   RWIGS  =   1.15  0.73
  virtual crystal weights 
   VCA    =   1.00  1.00
   NELECT =     608.0000    total number of electrons
   NUPDOWN=      -1.0000    fix difference up-down

 DOS related values:
   EMIN   =  10.00;   EMAX   =-10.00  energy-range for DOS
   EFERMI =   0.00
   ISMEAR =     0;   SIGMA  =   0.05  broadening in eV -4-tet -1-fermi 0-gaus

 Electronic relaxation 2 (details)
   IALGO  =     38    algorithm
   LDIAG  =      T    sub-space diagonalisation (order eigenvalues)
   LSUBROT=      F    optimize rotation matrix (better conditioning)
   TURBO    =      0    0=normal 1=particle mesh
   IRESTART =      0    0=no restart 2=restart with 2 vectors
   NREBOOT  =      0    no. of reboots
   NMIN     =      0    reboot dimension
   EREF     =   0.00    reference energy to select bands
   IMIX   =      4    mixing-type and parameters
     AMIX     =   0.40;   BMIX     =  1.00
     AMIX_MAG =   1.60;   BMIX_MAG =  1.00
     AMIN     =   0.10
     WC   =   100.;   INIMIX=   1;  MIXPRE=   1;  MAXMIX= -45

 Intra band minimization:
   WEIMIN = 0.0000     energy-eigenvalue tresh-hold
   EBREAK =  0.60E-08  absolut break condition
   DEPER  =   0.30     relativ break condition  

   TIME   =   0.40     timestep for ELM

  volume/ion in A,a.u.               =      13.23        89.30
  Fermi-wavevector in a.u.,A,eV,Ry     =   1.360778  2.571497 25.194133  1.851717
  Thomas-Fermi vector in A             =   2.487411
 
 Write flags
   LWAVE        =      F    write WAVECAR
   LDOWNSAMPLE  =      F    k-point downsampling of WAVECAR
   LCHARG       =      T    write CHGCAR
   LVTOT        =      F    write LOCPOT, total local potential
   LVHAR        =      F    write LOCPOT, Hartree potential only
   LELF         =      F    write electronic localiz. function (ELF)
   LORBIT       =      0    0 simple, 1 ext, 2 COOP (PROOUT), +10 PAW based schemes


 Dipole corrections
   LMONO  =      F    monopole corrections only (constant potential shift)
   LDIPOL =      F    correct potential (dipole corrections)
   IDIPOL =      0    1-x, 2-y, 3-z, 4-all directions 
   EPSILON=  1.0000000 bulk dielectric constant

 Exchange correlation treatment:
   GGA     =    PS    GGA type
   LEXCH   =    14    internal setting for exchange type
   VOSKOWN=      1    Vosko Wilk Nusair interpolation
   LHFCALC =     F    Hartree Fock is set to
   LHFONE  =     F    Hartree Fock one center treatment
   AEXX    =    0.0000 exact exchange contribution

 Linear response parameters
   LEPSILON=     F    determine dielectric tensor
   LRPA    =     F    only Hartree local field effects (RPA)
   LNABLA  =     F    use nabla operator in PAW spheres
   LVEL    =     F    velocity operator in full k-point grid
   LINTERFAST=   F  fast interpolation
   KINTER  =     0    interpolate to denser k-point grid
   CSHIFT  =0.1000    complex shift for real part using Kramers Kronig
   OMEGAMAX=  -1.0    maximum frequency
   DEG_THRESHOLD= 0.2000000E-02 threshold for treating states as degnerate
   RTIME   =   -0.100 relaxation time in fs
  (WPLASMAI=    0.000 imaginary part of plasma frequency in eV, 0.658/RTIME)
   DFIELD  = 0.0000000 0.0000000 0.0000000 field for delta impulse in time
 
 Orbital magnetization related:
   ORBITALMAG=     F  switch on orbital magnetization
   LCHIMAG   =     F  perturbation theory with respect to B field
   DQ        =  0.001000  dq finite difference perturbation B field
   LLRAUG    =     F  two centre corrections for induced B field



--------------------------------------------------------------------------------------------------------


 Static calculation
 charge density and potential will be updated during run
 spin polarized calculation
 Variant of blocked Davidson
 Davidson routine will perform the subspace rotation
 perform sub-space diagonalisation
    after iterative eigenvector-optimisation
 modified Broyden-mixing scheme, WC =      100.0
 initial mixing is a Kerker type mixing with AMIX =  0.4000 and BMIX =      1.0000
 Hartree-type preconditioning will be used
 using additional bands          112
 real space projection scheme for non local part
 use partial core corrections
 calculate Harris-corrections to forces 
   (improved forces if not selfconsistent)
 use gradient corrections 
 use of overlap-Matrix (Vanderbilt PP)
 Gauss-broadening in eV      SIGMA  =   0.05


--------------------------------------------------------------------------------------------------------


  energy-cutoff  :      500.00
  volume of cell :     1058.68
      direct lattice vectors                 reciprocal lattice vectors
     9.466890000  0.000000000  0.000000000     0.105631311  0.000000000  0.068833917
     0.000000000 11.143500000  0.000000000     0.000000000  0.089738413  0.000000000
    -6.539539790  0.000000000 10.035461960     0.000000000  0.000000000  0.099646634

  length of vectors
     9.466890000 11.143500000 11.978150000     0.126079665  0.089738413  0.099646634


 
 k-points in units of 2pi/SCALE and weight: Automatic mesh                          
   0.00000000  0.00000000  0.00000000       0.028
   0.02640783  0.00000000  0.01720848       0.056
   0.05281566  0.00000000  0.03441696       0.028
   0.00000000  0.02991280  0.00000000       0.056
   0.02640783  0.02991280  0.01720848       0.056
   0.05281566  0.02991280  0.03441696       0.056
  -0.02640783  0.02991280 -0.01720848       0.056
   0.00000000  0.00000000  0.03321554       0.056
   0.02640783  0.00000000  0.05042402       0.056
   0.05281566  0.00000000  0.06763250       0.056
  -0.02640783  0.00000000  0.01600707       0.056
   0.00000000  0.02991280  0.03321554       0.056
   0.02640783  0.02991280  0.05042402       0.056
   0.05281566  0.02991280  0.06763250       0.056
  -0.02640783  0.02991280  0.01600707       0.056
   0.00000000 -0.02991280  0.03321554       0.056
   0.02640783 -0.02991280  0.05042402       0.056
   0.05281566 -0.02991280  0.06763250       0.056
  -0.02640783 -0.02991280  0.01600707       0.056
 
 k-points in reciprocal lattice and weights: Automatic mesh                          
   0.00000000  0.00000000  0.00000000       0.028
   0.25000000  0.00000000 -0.00000000       0.056
   0.50000000  0.00000000 -0.00000000       0.028
   0.00000000  0.33333333  0.00000000       0.056
   0.25000000  0.33333333 -0.00000000       0.056
   0.50000000  0.33333333 -0.00000000       0.056
  -0.25000000  0.33333333  0.00000000       0.056
   0.00000000  0.00000000  0.33333333       0.056
   0.25000000  0.00000000  0.33333333       0.056
   0.50000000  0.00000000  0.33333333       0.056
  -0.25000000  0.00000000  0.33333333       0.056
   0.00000000  0.33333333  0.33333333       0.056
   0.25000000  0.33333333  0.33333333       0.056
   0.50000000  0.33333333  0.33333333       0.056
  -0.25000000  0.33333333  0.33333333       0.056
   0.00000000 -0.33333333  0.33333333       0.056
   0.25000000 -0.33333333  0.33333333       0.056
   0.50000000 -0.33333333  0.33333333       0.056
  -0.25000000 -0.33333333  0.33333333       0.056
 
 position of ions in fractional coordinates (direct lattice) 
   0.91024979  0.44642186  0.24707816
   0.75280177  0.20260643  0.25150414
   0.40421670  0.29895857  0.99611942
   0.25691517  0.03845402  0.00705812
   0.40600778  0.19872568  0.24833345
   0.25954654  0.45693444  0.24736705
   0.90515713  0.05822929  0.99894278
   0.75966674  0.29308992  0.01263282
   0.90595647  0.45132066  0.74903624
   0.75184947  0.21512038  0.75726602
   0.40271675  0.29220720  0.50438398
   0.25264436  0.04258991  0.50586524
   0.41237860  0.20029113  0.74988726
   0.25630743  0.45439318  0.75630516
   0.91466687  0.04818336  0.50363363
   0.75718020  0.28722146  0.50915147
   0.90912192  0.95341470  0.25209574
   0.75445776  0.70864778  0.24960845
   0.41795988  0.80506818  0.99603677
   0.25792024  0.55196885  0.01196827
   0.40809992  0.70652580  0.24325772
   0.24785740  0.96380239  0.24499843
   0.92089833  0.54211087  0.00906358
   0.74651384  0.78641196  0.00149720
   0.91960870  0.95701938  0.75064207
   0.75249061  0.70623376  0.75984187
   0.41995960  0.80874855  0.50445342
   0.24920791  0.54189252  0.49565918
   0.41579702  0.69572918  0.74964603
   0.25525041  0.96047983  0.75812304
   0.91667189  0.54990739  0.50074139
   0.75592601  0.79397002  0.50076775
   0.81360672  0.45410523  0.06537998
   0.12247402  0.47786900  0.06550374
   0.43666346  0.44035263  0.05768522
   0.81671779  0.05175933  0.31710227
   0.62378549  0.26791931  0.31130108
   0.93308764  0.29562503  0.29714453
   0.30387852  0.20375110  0.06700259
   0.63256940  0.23475260  0.06400485
   0.94366151  0.20113704  0.05287986
   0.32145008  0.30636429  0.31683708
   0.13145431  0.02561007  0.31633412
   0.44376775  0.04521695  0.30891891
   0.80809561  0.44644581  0.55898223
   0.12320315  0.48015659  0.55917309
   0.43727724  0.44904530  0.55032590
   0.80916885  0.05695128  0.81023801
   0.64289942  0.27770306  0.82857151
   0.94400994  0.30004325  0.80666529
   0.31329597  0.20933770  0.56690075
   0.63019035  0.22995758  0.56384998
   0.94511636  0.19963467  0.55197499
   0.30460699  0.30163346  0.80815355
   0.13412161  0.02684543  0.81804420
   0.43417868  0.04379698  0.80011915
   0.80983880  0.95224070  0.07056391
   0.12147483  0.97532443  0.06944956
   0.43587493  0.95448196  0.05354113
   0.81401832  0.54881212  0.31784371
   0.63794259  0.77240588  0.32333604
   0.94555198  0.79144037  0.30811402
   0.30995841  0.70730576  0.06263658
   0.62316648  0.72541912  0.06101909
   0.94265699  0.70895988  0.05282432
   0.30403819  0.79645570  0.30844459
   0.12746239  0.52596189  0.31576930
   0.43473290  0.54602434  0.29666327
   0.81484505  0.94994085  0.56678982
   0.12773102  0.97588878  0.56251917
   0.44508791  0.95019752  0.55125576
   0.81408201  0.54626985  0.81467668
   0.62641817  0.76808301  0.81341825
   0.93354298  0.80258286  0.79288130
   0.31048876  0.70468194  0.56160084
   0.62781254  0.71964255  0.57055650
   0.93162878  0.70239906  0.54477666
   0.31320582  0.79573987  0.81351614
   0.12715468  0.52334572  0.81249302
   0.43908476  0.55024734  0.80078526
 
 position of ions in cartesian coordinates  (Angst):
   7.00145718  4.97470200  2.47954348
   5.48197022  2.25774475  2.52396023
  -2.68748755  3.33144482  9.99651855
   2.38603080  0.42851237  0.07083149
   2.21964451  2.21449962  2.49214089
   0.83943188  5.09184893  2.48244262
   2.03639692  0.64887809 10.02485227
   7.10906864  3.26604752  0.12677618
   3.67823795  5.02929177  7.51692469
   2.16550496  2.39719395  7.59951434
   0.51403607  3.25621093  5.06172624
  -0.91636950  0.47460066  5.07659137
  -0.99997473  2.23194421  7.52546507
  -2.51945344  5.06353040  7.58987166
   5.36551848  0.53693127  5.05419614
   3.83852537  3.20065234  5.10957021
   6.95796709 10.62437671  2.52989721
   5.51004423  7.89681654  2.50493610
  -2.55684188  8.97127726  9.99568912
   2.36343556  6.15086488  0.12010712
   2.27264351  7.87317025  2.44120360
   0.74426176 10.74013193  2.45867242
   8.65877155  6.04101248  0.09095721
   7.05737341  8.76338168  0.01502509
   3.79698072 10.66454546  7.53303994
   2.15472969  7.86991590  7.62536418
   0.67681813  9.01228947  5.06242311
  -0.88215906  6.03857930  4.97416885
  -0.96603539  7.75285812  7.52304422
  -2.54134823 10.70310699  7.60811493
   5.40341370  6.12789300  5.02517117
   3.88147776  8.84760492  5.02543571
   7.27477034  5.06032163  0.65611830
   0.73108376  5.32513320  0.65736029
   3.75661015  4.90706953  0.57889783
   5.65807457  0.57678009  3.18226777
   3.86954282  2.98555883  3.12405015
   6.89024957  3.29429752  2.98198263
   2.43861842  2.27050038  0.67240194
   5.56990266  2.61596560  0.64231824
   8.58772976  2.24137061  0.53067382
   0.97116386  3.41397047  3.17960646
  -0.82421607  0.28538582  3.17455903
   2.18091297  0.50387508  3.10014397
   3.99466571  4.97496888  5.60964491
  -2.49038400  5.35062496  5.61156027
   0.54077741  5.00393630  5.52277464
   2.36172879  0.63463659  8.13111273
   0.66778173  3.09458405  8.31509787
   3.66161850  3.34353196  8.09525883
  -0.74133153  2.33275466  5.68911091
   2.27862334  2.56253229  5.65849503
   5.33765021  2.22462895  5.53932402
  -2.40127143  3.36125246  8.11019421
  -4.07991807  0.29915205  8.20945145
  -1.12208921  0.48805165  8.02956529
   7.20519934 10.61129424  0.70814143
   0.69582069 10.86852779  0.69695842
   3.77624567 10.63626972  0.53730997
   5.62767030  6.11568786  3.18970846
   3.92486343  8.60730492  3.24482653
   6.93651269  8.81941576  3.09206653
   2.52472776  7.88186174  0.62858702
   5.50041175  8.08370796  0.61235476
   8.57858329  7.90029442  0.53011645
   0.86121043  8.87530409  3.09538395
  -0.85831348  5.86105632  3.16889080
   2.17552729  6.08462223  2.97715296
   4.00750387 10.58566586  5.68799768
  -2.46940098 10.87481662  5.64513973
   0.60863931 10.58852606  5.53210621
   2.37921427  6.08735807  8.17565683
   0.61085090  8.55913302  8.16302791
   3.65266989  8.94358210  7.95693012
  -0.73324810  7.85262320  5.63592387
   2.21225532  8.01933676  5.72579805
   5.25703854  7.82718393  5.46708545
  -2.35493612  8.86732724  8.16401028
  -4.10957106  5.83190303  8.15374279
  -1.07999995  6.13168123  8.03625001
 


--------------------------------------------------------------------------------------------------------


 k-point  1 :   0.0000 0.0000 0.0000  plane waves:   26829
 k-point  2 :   0.2500 0.0000-0.0000  plane waves:   26875
 k-point  3 :   0.5000 0.0000-0.0000  plane waves:   26866
 k-point  4 :   0.0000 0.3333 0.0000  plane waves:   26844
 k-point  5 :   0.2500 0.3333-0.0000  plane waves:   26872
 k-point  6 :   0.5000 0.3333-0.0000  plane waves:   26876
 k-point  7 :  -0.2500 0.3333 0.0000  plane waves:   26872
 k-point  8 :   0.0000 0.0000 0.3333  plane waves:   26910
 k-point  9 :   0.2500 0.0000 0.3333  plane waves:   26885
 k-point 10 :   0.5000 0.0000 0.3333  plane waves:   26875
 k-point 11 :  -0.2500 0.0000 0.3333  plane waves:   26876
 k-point 12 :   0.0000 0.3333 0.3333  plane waves:   26878
 k-point 13 :   0.2500 0.3333 0.3333  plane waves:   26884
 k-point 14 :   0.5000 0.3333 0.3333  plane waves:   26880
 k-point 15 :  -0.2500 0.3333 0.3333  plane waves:   26861
 k-point 16 :   0.0000-0.3333 0.3333  plane waves:   26878
 k-point 17 :   0.2500-0.3333 0.3333  plane waves:   26884
 k-point 18 :   0.5000-0.3333 0.3333  plane waves:   26880
 k-point 19 :  -0.2500-0.3333 0.3333  plane waves:   26861

 maximum and minimum number of plane-waves per node :     26910    26829

 maximum number of plane-waves:     26910
 maximum index in each direction: 
   IXMAX=   17   IYMAX=   20   IZMAX=   21
   IXMIN=  -17   IYMIN=  -20   IZMIN=  -22

 The following grids will avoid any aliasing or wrap around errors in the Hartre
 e energy
  - symmetry arguments have not been applied
  - exchange correlation energies might require even more grid points
  - we recommend to set PREC=Normal or Accurate and rely on VASP defaults
 NGX is ok and might be reduce to    70
 NGY is ok and might be reduce to    84
 NGZ is ok and might be reduce to    90

 serial   3D FFT for wavefunctions
 parallel 3D FFT for charge:
    minimum data exchange during FFTs selected (reduces bandwidth)


 total amount of memory used by VASP MPI-rank0   600211. kBytes
=======================================================================

   base      :      30000. kBytes
   nonlr-proj:      51271. kBytes
   fftplans  :      11362. kBytes
   grid      :      64490. kBytes
   one-center:       2488. kBytes
   wavefun   :     440600. kBytes
 
     INWAV:  cpu time    0.0000: real time    0.0000
 Broyden mixing: mesh for mixing (old mesh)
   NGX = 35   NGY = 41   NGZ = 43
  (NGX  =140   NGY  =168   NGZ  =180)
  gives a total of  61705 points

 initial charge density was supplied:
 charge density of overlapping atoms calculated
 number of electron     608.0000000 magnetization      80.0000000
 keeping initial charge density in first step


--------------------------------------------------------------------------------------------------------


 Maximum index for non-local projection operator         6537
 Maximum index for augmentation-charges         1147 (set IRDMAX)


--------------------------------------------------------------------------------------------------------


 First call to EWALD:  gamma=   0.174
 Maximum number of real-space cells 3x 3x 3
 Maximum number of reciprocal cells 3x 3x 3

    FEWALD:  cpu time    0.0039: real time    0.0039


--------------------------------------- Iteration      1(   1)  ---------------------------------------


    POTLOK:  cpu time    0.3507: real time    0.4017
    SETDIJ:  cpu time    0.0297: real time    0.0298
     EDDAV:  cpu time  166.7953: real time  167.1909
    --------------------------------------------
      LOOP:  cpu time  167.1789: real time  167.6257

 eigenvalue-minimisations  : 31616
 total energy-change (2. order) : 0.7270940E+04  (-0.2576886E+05)
 number of electron     608.0000000 magnetization      80.0000000
 augmentation part      608.0000000 magnetization      80.0000000

 Free energy of the ion-electron system (eV)
  ---------------------------------------------------
  alpha Z        PSCENC =      1575.65330513
  Ewald energy   TEWEN  =    -35636.15583847
  -Hartree energ DENC   =    -20046.65264310
  -exchange      EXHF   =         0.00000000
  -V(xc)+E(xc)   XCENC  =      2368.42842651
  PAW double counting   =     47387.14975297   -49597.44882166
  entropy T*S    EENTRO =        -0.01625356
  eigenvalues    EBANDS =      6082.76924065
  atomic energy  EATOM  =     55137.21312455
  Solvation  Ediel_sol  =         0.00000000
  ---------------------------------------------------
  free energy    TOTEN  =      7270.94029303 eV

  energy without entropy =     7270.95654659  energy(sigma->0) =     7270.94841981


--------------------------------------------------------------------------------------------------------




--------------------------------------- Iteration      1(   2)  ---------------------------------------


     EDDAV:  cpu time  166.1123: real time  166.5059
    --------------------------------------------
      LOOP:  cpu time  166.1123: real time  166.5060

 eigenvalue-minimisations  : 31632
 total energy-change (2. order) :-0.6218207E+04  (-0.5639429E+04)
 number of electron     608.0000000 magnetization      80.0000000
 augmentation part      608.0000000 magnetization      80.0000000

 Free energy of the ion-electron system (eV)
  ---------------------------------------------------
  alpha Z        PSCENC =      1575.65330513
  Ewald energy   TEWEN  =    -35636.15583847
  -Hartree energ DENC   =    -20046.65264310
  -exchange      EXHF   =         0.00000000
  -V(xc)+E(xc)   XCENC  =      2368.42842651
  PAW double counting   =     47387.14975297   -49597.44882166
  entropy T*S    EENTRO =        -0.04406186
  eigenvalues    EBANDS =      -135.40987302
  atomic energy  EATOM  =     55137.21312455
  Solvation  Ediel_sol  =         0.00000000
  ---------------------------------------------------
  free energy    TOTEN  =      1052.73337106 eV

  energy without entropy =     1052.77743292  energy(sigma->0) =     1052.75540199


--------------------------------------------------------------------------------------------------------




--------------------------------------- Iteration      1(   3)  ---------------------------------------


     EDDAV:  cpu time  177.5074: real time  177.9294
    --------------------------------------------
      LOOP:  cpu time  177.5090: real time  177.9311

 eigenvalue-minimisations  : 32544
 total energy-change (2. order) :-0.1532392E+04  (-0.1367015E+04)
 number of electron     608.0000000 magnetization      80.0000000
 augmentation part      608.0000000 magnetization      80.0000000

 Free energy of the ion-electron system (eV)
  ---------------------------------------------------
  alpha Z        PSCENC =      1575.65330513
  Ewald energy   TEWEN  =    -35636.15583847
  -Hartree energ DENC   =    -20046.65264310
  -exchange      EXHF   =         0.00000000
  -V(xc)+E(xc)   XCENC  =      2368.42842651
  PAW double counting   =     47387.14975297   -49597.44882166
  entropy T*S    EENTRO =        -0.11116163
  eigenvalues    EBANDS =     -1667.73445336
  atomic energy  EATOM  =     55137.21312455
  Solvation  Ediel_sol  =         0.00000000
  ---------------------------------------------------
  free energy    TOTEN  =      -479.65830906 eV

  energy without entropy =     -479.54714743  energy(sigma->0) =     -479.60272824


--------------------------------------------------------------------------------------------------------




--------------------------------------- Iteration      1(   4)  ---------------------------------------


     EDDAV:  cpu time  197.2874: real time  197.7740
    --------------------------------------------
      LOOP:  cpu time  197.2856: real time  197.7722

 eigenvalue-minimisations  : 35856
 total energy-change (2. order) :-0.1805941E+03  (-0.1743377E+03)
 number of electron     608.0000000 magnetization      80.0000000
 augmentation part      608.0000000 magnetization      80.0000000

 Free energy of the ion-electron system (eV)
  ---------------------------------------------------
  alpha Z        PSCENC =      1575.65330513
  Ewald energy   TEWEN  =    -35636.15583847
  -Hartree energ DENC   =    -20046.65264310
  -exchange      EXHF   =         0.00000000
  -V(xc)+E(xc)   XCENC  =      2368.42842651
  PAW double counting   =     47387.14975297   -49597.44882166
  entropy T*S    EENTRO =        -0.10667960
  eigenvalues    EBANDS =     -1848.33303508
  atomic energy  EATOM  =     55137.21312455
  Solvation  Ediel_sol  =         0.00000000
  ---------------------------------------------------
  free energy    TOTEN  =      -660.25240874 eV

  energy without entropy =     -660.14572914  energy(sigma->0) =     -660.19906894


--------------------------------------------------------------------------------------------------------




--------------------------------------- Iteration      1(   5)  ---------------------------------------


     EDDAV:  cpu time  187.4014: real time  187.8496
    CHARGE:  cpu time    8.4457: real time    8.4658
    MIXING:  cpu time    0.0063: real time    0.0064
    --------------------------------------------
      LOOP:  cpu time  195.8503: real time  196.3186

 eigenvalue-minimisations  : 35040
 total energy-change (2. order) :-0.5552459E+01  (-0.5509940E+01)
 number of electron     607.9999967 magnetization      86.1755727
 augmentation part      201.1756091 magnetization      60.5172285

 Broyden mixing:
  rms(total) = 0.13404E+02    rms(broyden)= 0.13402E+02
  rms(prec ) = 0.15696E+02
  weight for this iteration     100.00

 Free energy of the ion-electron system (eV)
  ---------------------------------------------------
  alpha Z        PSCENC =      1575.65330513
  Ewald energy   TEWEN  =    -35636.15583847
  -Hartree energ DENC   =    -20046.65264310
  -exchange      EXHF   =         0.00000000
  -V(xc)+E(xc)   XCENC  =      2368.42842651
  PAW double counting   =     47387.14975297   -49597.44882166
  entropy T*S    EENTRO =        -0.10738440
  eigenvalues    EBANDS =     -1853.88478895
  atomic energy  EATOM  =     55137.21312455
  Solvation  Ediel_sol  =         0.00000000
  ---------------------------------------------------
  free energy    TOTEN  =      -665.80486741 eV

  energy without entropy =     -665.69748301  energy(sigma->0) =     -665.75117521


--------------------------------------------------------------------------------------------------------




--------------------------------------- Iteration      1(   6)  ---------------------------------------


    POTLOK:  cpu time    0.3535: real time    0.3543
    SETDIJ:  cpu time    0.0333: real time    0.0334
     EDDAV:  cpu time  230.4787: real time  231.0342
    CHARGE:  cpu time    8.3466: real time    8.3665
    MIXING:  cpu time    0.0069: real time    0.0069
    --------------------------------------------
      LOOP:  cpu time  239.2191: real time  239.7954

 eigenvalue-minimisations  : 46288
 total energy-change (2. order) :-0.4247471E+02  (-0.1381003E+03)
 number of electron     607.9999952 magnetization      77.9168081
 augmentation part      262.2795550 magnetization      70.9638076

 Broyden mixing:
  rms(total) = 0.23850E+02    rms(broyden)= 0.23848E+02
  rms(prec ) = 0.26216E+02
  weight for this iteration     100.00

 eigenvalues of (default mixing * dielectric matrix)
  average eigenvalue GAMMA=   0.2351
  0.2351

 Free energy of the ion-electron system (eV)
  ---------------------------------------------------
  alpha Z        PSCENC =      1575.65330513
  Ewald energy   TEWEN  =    -35636.15583847
  -Hartree energ DENC   =    -19212.45408790
  -exchange      EXHF   =         0.00000000
  -V(xc)+E(xc)   XCENC  =      2388.14873433
  PAW double counting   =     51112.89932566   -53026.28157730
  entropy T*S    EENTRO =        -0.08490988
  eigenvalues    EBANDS =     -3047.21765016
  atomic energy  EATOM  =     55137.21312455
  Solvation  Ediel_sol  =         0.00000000
  ---------------------------------------------------
  free energy    TOTEN  =      -708.27957403 eV

  energy without entropy =     -708.19466415  energy(sigma->0) =     -708.23711909


--------------------------------------------------------------------------------------------------------




--------------------------------------- Iteration      1(   7)  ---------------------------------------


    POTLOK:  cpu time    0.3390: real time    0.3398
    SETDIJ:  cpu time    0.0331: real time    0.0332
     EDDAV:  cpu time  224.8142: real time  225.3469
    CHARGE:  cpu time    8.2706: real time    8.2902
    MIXING:  cpu time    0.0071: real time    0.0071
    --------------------------------------------
      LOOP:  cpu time  233.4640: real time  234.0172

 eigenvalue-minimisations  : 45376
 total energy-change (2. order) : 0.2172094E+03  (-0.3796488E+02)
 number of electron     607.9999962 magnetization      71.6524053
 augmentation part      232.3131168 magnetization      53.1638560

 Broyden mixing:
  rms(total) = 0.80702E+01    rms(broyden)= 0.80675E+01
  rms(prec ) = 0.90845E+01
  weight for this iteration     100.00

 eigenvalues of (default mixing * dielectric matrix)
  average eigenvalue GAMMA=   0.5654
  0.5654  0.5654

 Free energy of the ion-electron system (eV)
  ---------------------------------------------------
  alpha Z        PSCENC =      1575.65330513
  Ewald energy   TEWEN  =    -35636.15583847
  -Hartree energ DENC   =    -19597.08520549
  -exchange      EXHF   =         0.00000000
  -V(xc)+E(xc)   XCENC  =      2364.93994358
  PAW double counting   =     53080.71799946   -55223.01830998
  entropy T*S    EENTRO =        -0.10174295
  eigenvalues    EBANDS =     -2193.23344590
  atomic energy  EATOM  =     55137.21312455
  Solvation  Ediel_sol  =         0.00000000
  ---------------------------------------------------
  free energy    TOTEN  =      -491.07017006 eV

  energy without entropy =     -490.96842711  energy(sigma->0) =     -491.01929858


--------------------------------------------------------------------------------------------------------




--------------------------------------- Iteration      1(   8)  ---------------------------------------


    POTLOK:  cpu time    0.3365: real time    0.3373
    SETDIJ:  cpu time    0.0335: real time    0.0336
     EDDAV:  cpu time  266.0242: real time  266.6794
    CHARGE:  cpu time    8.3381: real time    8.3578
    MIXING:  cpu time    0.0072: real time    0.0072
    --------------------------------------------
      LOOP:  cpu time  274.7396: real time  275.4154

 eigenvalue-minimisations  : 54992
 total energy-change (2. order) :-0.5263960E+02  (-0.1940108E+02)
 number of electron     607.9999964 magnetization      65.9061552
 augmentation part      232.3161289 magnetization      55.7156844

 Broyden mixing:
  rms(total) = 0.11359E+02    rms(broyden)= 0.11357E+02
  rms(prec ) = 0.14589E+02
  weight for this iteration     100.00

 eigenvalues of (default mixing * dielectric matrix)
  average eigenvalue GAMMA=   0.4944
  0.6436  0.6436  0.1960

 Free energy of the ion-electron system (eV)
  ---------------------------------------------------
  alpha Z        PSCENC =      1575.65330513
  Ewald energy   TEWEN  =    -35636.15583847
  -Hartree energ DENC   =    -19516.27399380
  -exchange      EXHF   =         0.00000000
  -V(xc)+E(xc)   XCENC  =      2350.36601579
  PAW double counting   =     54924.79002694   -57142.15916334
  entropy T*S    EENTRO =        -0.07796473
  eigenvalues    EBANDS =     -2237.06528432
  atomic energy  EATOM  =     55137.21312455
  Solvation  Ediel_sol  =         0.00000000
  ---------------------------------------------------
  free energy    TOTEN  =      -543.70977225 eV

  energy without entropy =     -543.63180752  energy(sigma->0) =     -543.67078988


--------------------------------------------------------------------------------------------------------




--------------------------------------- Iteration      1(   9)  ---------------------------------------


    POTLOK:  cpu time    0.3449: real time    0.3457
    SETDIJ:  cpu time    0.0329: real time    0.0330
     EDDAV:  cpu time  222.0180: real time  222.7234
    CHARGE:  cpu time    8.2301: real time    8.2496
    MIXING:  cpu time    0.0077: real time    0.0077
    --------------------------------------------
      LOOP:  cpu time  230.6336: real time  231.3594

 eigenvalue-minimisations  : 42288
 total energy-change (2. order) : 0.9098808E+00  (-0.1481263E+02)
 number of electron     607.9999958 magnetization      60.7601968
 augmentation part      222.3619682 magnetization      46.8758657

 Broyden mixing:
  rms(total) = 0.11350E+02    rms(broyden)= 0.11349E+02
  rms(prec ) = 0.15015E+02
  weight for this iteration     100.00

 eigenvalues of (default mixing * dielectric matrix)
  average eigenvalue GAMMA=   0.4658
  0.9291  0.5386  0.2284  0.1671

 Free energy of the ion-electron system (eV)
  ---------------------------------------------------
  alpha Z        PSCENC =      1575.65330513
  Ewald energy   TEWEN  =    -35636.15583847
  -Hartree energ DENC   =    -19524.65137128
  -exchange      EXHF   =         0.00000000
  -V(xc)+E(xc)   XCENC  =      2346.57432749
  PAW double counting   =     56207.18037910   -58453.67273672
  entropy T*S    EENTRO =        -0.10550576
  eigenvalues    EBANDS =     -2194.83557549
  atomic energy  EATOM  =     55137.21312455
  Solvation  Ediel_sol  =         0.00000000
  ---------------------------------------------------
  free energy    TOTEN  =      -542.79989144 eV

  energy without entropy =     -542.69438568  energy(sigma->0) =     -542.74713856


--------------------------------------------------------------------------------------------------------




--------------------------------------- Iteration      1(  10)  ---------------------------------------


    POTLOK:  cpu time    0.3357: real time    0.3365
    SETDIJ:  cpu time    0.0335: real time    0.0336
     EDDAV:  cpu time  202.5407: real time  203.0201
    CHARGE:  cpu time    8.0440: real time    8.0631
    MIXING:  cpu time    0.0078: real time    0.0079
    --------------------------------------------
      LOOP:  cpu time  210.9618: real time  211.4611

 eigenvalue-minimisations  : 40768
 total energy-change (2. order) : 0.1982505E+02  (-0.1354808E+02)
 number of electron     607.9999960 magnetization      58.4518516
 augmentation part      220.9609045 magnetization      44.5488295

 Broyden mixing:
  rms(total) = 0.10702E+02    rms(broyden)= 0.10702E+02
  rms(prec ) = 0.14760E+02
  weight for this iteration     100.00

 eigenvalues of (default mixing * dielectric matrix)
  average eigenvalue GAMMA=   0.4184
  1.0363  0.5121  0.2226  0.2226  0.0985

 Free energy of the ion-electron system (eV)
  ---------------------------------------------------
  alpha Z        PSCENC =      1575.65330513
  Ewald energy   TEWEN  =    -35636.15583847
  -Hartree energ DENC   =    -19506.86869401
  -exchange      EXHF   =         0.00000000
  -V(xc)+E(xc)   XCENC  =      2344.27108737
  PAW double counting   =     57330.04855670   -59594.77466379
  entropy T*S    EENTRO =        -0.10137839
  eigenvalues    EBANDS =     -2172.26034463
  atomic energy  EATOM  =     55137.21312455
  Solvation  Ediel_sol  =         0.00000000
  ---------------------------------------------------
  free energy    TOTEN  =      -522.97484554 eV

  energy without entropy =     -522.87346715  energy(sigma->0) =     -522.92415634


--------------------------------------------------------------------------------------------------------




--------------------------------------- Iteration      1(  11)  ---------------------------------------


    POTLOK:  cpu time    0.3265: real time    0.3272
    SETDIJ:  cpu time    0.0322: real time    0.0322
     EDDAV:  cpu time  214.1272: real time  214.6337
    CHARGE:  cpu time    8.1806: real time    8.2000
    MIXING:  cpu time    0.0075: real time    0.0076
    --------------------------------------------
      LOOP:  cpu time  222.6739: real time  223.2007

 eigenvalue-minimisations  : 44192
 total energy-change (2. order) : 0.3387743E+02  (-0.5856014E+01)
 number of electron     607.9999966 magnetization      56.8355659
 augmentation part      224.6412708 magnetization      41.3381414

 Broyden mixing:
  rms(total) = 0.57752E+01    rms(broyden)= 0.57744E+01
  rms(prec ) = 0.77091E+01
  weight for this iteration     100.00

 eigenvalues of (default mixing * dielectric matrix)
  average eigenvalue GAMMA=   0.4225
  1.1830  0.4857  0.3248  0.3248  0.1311  0.0856

 Free energy of the ion-electron system (eV)
  ---------------------------------------------------
  alpha Z        PSCENC =      1575.65330513
  Ewald energy   TEWEN  =    -35636.15583847
  -Hartree energ DENC   =    -19493.84613682
  -exchange      EXHF   =         0.00000000
  -V(xc)+E(xc)   XCENC  =      2343.47850276
  PAW double counting   =     57784.71558770   -60055.58543172
  entropy T*S    EENTRO =        -0.11119198
  eigenvalues    EBANDS =     -2144.45933610
  atomic energy  EATOM  =     55137.21312455
  Solvation  Ediel_sol  =         0.00000000
  ---------------------------------------------------
  free energy    TOTEN  =      -489.09741494 eV

  energy without entropy =     -488.98622296  energy(sigma->0) =     -489.04181895


--------------------------------------------------------------------------------------------------------




--------------------------------------- Iteration      1(  12)  ---------------------------------------


    POTLOK:  cpu time    0.3238: real time    0.3246
    SETDIJ:  cpu time    0.0315: real time    0.0315
     EDDAV:  cpu time  212.7072: real time  213.2109
    CHARGE:  cpu time    8.1401: real time    8.1594
    MIXING:  cpu time    0.0084: real time    0.0085
    --------------------------------------------
      LOOP:  cpu time  221.2111: real time  221.7348

 eigenvalue-minimisations  : 43328
 total energy-change (2. order) : 0.7419083E+01  (-0.3070630E+01)
 number of electron     607.9999958 magnetization      53.6466184
 augmentation part      225.2749620 magnetization      37.7736101

 Broyden mixing:
  rms(total) = 0.46783E+01    rms(broyden)= 0.46775E+01
  rms(prec ) = 0.62534E+01
  weight for this iteration     100.00

 eigenvalues of (default mixing * dielectric matrix)
  average eigenvalue GAMMA=   0.4484
  1.4744  0.4468  0.4468  0.4346  0.1500  0.1094  0.0766

 Free energy of the ion-electron system (eV)
  ---------------------------------------------------
  alpha Z        PSCENC =      1575.65330513
  Ewald energy   TEWEN  =    -35636.15583847
  -Hartree energ DENC   =    -19494.15974893
  -exchange      EXHF   =         0.00000000
  -V(xc)+E(xc)   XCENC  =      2343.27934170
  PAW double counting   =     58066.05190557   -60342.06870179
  entropy T*S    EENTRO =        -0.11468731
  eigenvalues    EBANDS =     -2131.37703205
  atomic energy  EATOM  =     55137.21312455
  Solvation  Ediel_sol  =         0.00000000
  ---------------------------------------------------
  free energy    TOTEN  =      -481.67833160 eV

  energy without entropy =     -481.56364429  energy(sigma->0) =     -481.62098794


--------------------------------------------------------------------------------------------------------




--------------------------------------- Iteration      1(  13)  ---------------------------------------


    POTLOK:  cpu time    0.3317: real time    0.3325
    SETDIJ:  cpu time    0.0340: real time    0.0341
     EDDAV:  cpu time  228.5825: real time  229.1236
    CHARGE:  cpu time    8.1306: real time    8.1498
    MIXING:  cpu time    0.0084: real time    0.0084
    --------------------------------------------
      LOOP:  cpu time  237.0871: real time  237.6483

 eigenvalue-minimisations  : 47616
 total energy-change (2. order) : 0.4173543E+00  (-0.2415959E+01)
 number of electron     607.9999963 magnetization      52.0438044
 augmentation part      224.4888281 magnetization      36.4492435

 Broyden mixing:
  rms(total) = 0.44972E+01    rms(broyden)= 0.44967E+01
  rms(prec ) = 0.59124E+01
  weight for this iteration     100.00

 eigenvalues of (default mixing * dielectric matrix)
  average eigenvalue GAMMA=   0.4272
  1.5683  0.4682  0.4682  0.4286  0.1808  0.1133  0.1133  0.0773

 Free energy of the ion-electron system (eV)
  ---------------------------------------------------
  alpha Z        PSCENC =      1575.65330513
  Ewald energy   TEWEN  =    -35636.15583847
  -Hartree energ DENC   =    -19507.68964295
  -exchange      EXHF   =         0.00000000
  -V(xc)+E(xc)   XCENC  =      2343.28965885
  PAW double counting   =     58573.82813059   -60860.97512317
  entropy T*S    EENTRO =        -0.11680562
  eigenvalues    EBANDS =     -2106.30778619
  atomic energy  EATOM  =     55137.21312455
  Solvation  Ediel_sol  =         0.00000000
  ---------------------------------------------------
  free energy    TOTEN  =      -481.26097727 eV

  energy without entropy =     -481.14417165  energy(sigma->0) =     -481.20257446


--------------------------------------------------------------------------------------------------------




--------------------------------------- Iteration      1(  14)  ---------------------------------------


    POTLOK:  cpu time    0.3265: real time    0.3273
    SETDIJ:  cpu time    0.0312: real time    0.0313
     EDDAV:  cpu time  213.7259: real time  214.2319
    CHARGE:  cpu time    8.2785: real time    8.2980
    MIXING:  cpu time    0.0094: real time    0.0094
    --------------------------------------------
      LOOP:  cpu time  222.3716: real time  222.8981

 eigenvalue-minimisations  : 43600
 total energy-change (2. order) : 0.3040787E+01  (-0.1847832E+01)
 number of electron     607.9999964 magnetization      50.3336858
 augmentation part      224.6325452 magnetization      34.5876294

 Broyden mixing:
  rms(total) = 0.28764E+01    rms(broyden)= 0.28758E+01
  rms(prec ) = 0.38202E+01
  weight for this iteration     100.00

 eigenvalues of (default mixing * dielectric matrix)
  average eigenvalue GAMMA=   0.4209
  1.6370  0.5149  0.5149  0.4176  0.2738  0.1576  0.0979  0.0979  0.0765

 Free energy of the ion-electron system (eV)
  ---------------------------------------------------
  alpha Z        PSCENC =      1575.65330513
  Ewald energy   TEWEN  =    -35636.15583847
  -Hartree energ DENC   =    -19515.17066375
  -exchange      EXHF   =         0.00000000
  -V(xc)+E(xc)   XCENC  =      2343.33597517
  PAW double counting   =     58803.89156839   -61095.88674243
  entropy T*S    EENTRO =        -0.11331412
  eigenvalues    EBANDS =     -2090.98760472
  atomic energy  EATOM  =     55137.21312455
  Solvation  Ediel_sol  =         0.00000000
  ---------------------------------------------------
  free energy    TOTEN  =      -478.22019025 eV

  energy without entropy =     -478.10687613  energy(sigma->0) =     -478.16353319


--------------------------------------------------------------------------------------------------------




--------------------------------------- Iteration      1(  15)  ---------------------------------------


    POTLOK:  cpu time    0.3337: real time    0.3345
    SETDIJ:  cpu time    0.0326: real time    0.0327
     EDDAV:  cpu time  218.7540: real time  219.2719
    CHARGE:  cpu time    8.3279: real time    8.3476
    MIXING:  cpu time    0.0098: real time    0.0098
    --------------------------------------------
      LOOP:  cpu time  227.4580: real time  227.9965

 eigenvalue-minimisations  : 44656
 total energy-change (2. order) : 0.4080351E+00  (-0.8931109E+00)
 number of electron     607.9999962 magnetization      48.9605614
 augmentation part      224.2285442 magnetization      33.5117990

 Broyden mixing:
  rms(total) = 0.30601E+01    rms(broyden)= 0.30598E+01
  rms(prec ) = 0.40547E+01
  weight for this iteration     100.00

 eigenvalues of (default mixing * dielectric matrix)
  average eigenvalue GAMMA=   0.4132
  1.7257  0.5677  0.5677  0.3464  0.3464  0.2025  0.1033  0.1033  0.0924  0.0766

 Free energy of the ion-electron system (eV)
  ---------------------------------------------------
  alpha Z        PSCENC =      1575.65330513
  Ewald energy   TEWEN  =    -35636.15583847
  -Hartree energ DENC   =    -19524.00189784
  -exchange      EXHF   =         0.00000000
  -V(xc)+E(xc)   XCENC  =      2343.52061219
  PAW double counting   =     59024.79941767   -61321.41463599
  entropy T*S    EENTRO =        -0.12056673
  eigenvalues    EBANDS =     -2077.30567563
  atomic energy  EATOM  =     55137.21312455
  Solvation  Ediel_sol  =         0.00000000
  ---------------------------------------------------
  free energy    TOTEN  =      -477.81215511 eV

  energy without entropy =     -477.69158838  energy(sigma->0) =     -477.75187174


--------------------------------------------------------------------------------------------------------




--------------------------------------- Iteration      1(  16)  ---------------------------------------


    POTLOK:  cpu time    0.3260: real time    0.3267
    SETDIJ:  cpu time    0.0313: real time    0.0314
     EDDAV:  cpu time  207.6620: real time  208.1536
    CHARGE:  cpu time    8.3253: real time    8.3450
    MIXING:  cpu time    0.0103: real time    0.0103
    --------------------------------------------
      LOOP:  cpu time  216.3548: real time  216.8670

 eigenvalue-minimisations  : 41904
 total energy-change (2. order) : 0.1146095E+01  (-0.6891073E+00)
 number of electron     607.9999965 magnetization      46.6793583
 augmentation part      224.3425536 magnetization      31.3337550

 Broyden mixing:
  rms(total) = 0.19452E+01    rms(broyden)= 0.19449E+01
  rms(prec ) = 0.26170E+01
  weight for this iteration     100.00

 eigenvalues of (default mixing * dielectric matrix)
  average eigenvalue GAMMA=   0.4305
  1.8828  0.6407  0.6407  0.3878  0.3878  0.3075  0.1352  0.0976  0.0976  0.0805
  0.0769

 Free energy of the ion-electron system (eV)
  ---------------------------------------------------
  alpha Z        PSCENC =      1575.65330513
  Ewald energy   TEWEN  =    -35636.15583847
  -Hartree energ DENC   =    -19527.02051621
  -exchange      EXHF   =         0.00000000
  -V(xc)+E(xc)   XCENC  =      2343.54901991
  PAW double counting   =     59204.73157211   -61504.53966670
  entropy T*S    EENTRO =        -0.12222601
  eigenvalues    EBANDS =     -2069.97483402
  atomic energy  EATOM  =     55137.21312455
  Solvation  Ediel_sol  =         0.00000000
  ---------------------------------------------------
  free energy    TOTEN  =      -476.66605970 eV

  energy without entropy =     -476.54383369  energy(sigma->0) =     -476.60494670


--------------------------------------------------------------------------------------------------------




--------------------------------------- Iteration      1(  17)  ---------------------------------------


    POTLOK:  cpu time    0.3336: real time    0.3344
    SETDIJ:  cpu time    0.0328: real time    0.0328
     EDDAV:  cpu time  210.0804: real time  210.5777
    CHARGE:  cpu time    8.3417: real time    8.3615
    MIXING:  cpu time    0.0100: real time    0.0100
    --------------------------------------------
      LOOP:  cpu time  218.7985: real time  219.3165

 eigenvalue-minimisations  : 42496
 total energy-change (2. order) : 0.2899953E-01  (-0.3203551E+00)
 number of electron     607.9999961 magnetization      45.7074180
 augmentation part      224.7876000 magnetization      30.6532929

 Broyden mixing:
  rms(total) = 0.14642E+01    rms(broyden)= 0.14640E+01
  rms(prec ) = 0.19384E+01
  weight for this iteration     100.00

 eigenvalues of (default mixing * dielectric matrix)
  average eigenvalue GAMMA=   0.4249
  1.9238  0.6770  0.6770  0.4147  0.4147  0.3390  0.1787  0.1101  0.1101  0.0965
  0.0806  0.0760

 Free energy of the ion-electron system (eV)
  ---------------------------------------------------
  alpha Z        PSCENC =      1575.65330513
  Ewald energy   TEWEN  =    -35636.15583847
  -Hartree energ DENC   =    -19526.38904347
  -exchange      EXHF   =         0.00000000
  -V(xc)+E(xc)   XCENC  =      2343.41375209
  PAW double counting   =     59497.61343016   -61801.69879692
  entropy T*S    EENTRO =        -0.12235523
  eigenvalues    EBANDS =     -2066.16463801
  atomic energy  EATOM  =     55137.21312455
  Solvation  Ediel_sol  =         0.00000000
  ---------------------------------------------------
  free energy    TOTEN  =      -476.63706017 eV

  energy without entropy =     -476.51470494  energy(sigma->0) =     -476.57588256


--------------------------------------------------------------------------------------------------------




--------------------------------------- Iteration      1(  18)  ---------------------------------------


    POTLOK:  cpu time    0.3318: real time    0.3326
    SETDIJ:  cpu time    0.0332: real time    0.0333
     EDDAV:  cpu time  211.3784: real time  211.8787
    CHARGE:  cpu time    8.2728: real time    8.2924
    MIXING:  cpu time    0.0109: real time    0.0110
    --------------------------------------------
      LOOP:  cpu time  220.0272: real time  220.5480

 eigenvalue-minimisations  : 42832
 total energy-change (2. order) : 0.1122515E+00  (-0.1853406E+00)
 number of electron     607.9999964 magnetization      44.3083886
 augmentation part      224.7677355 magnetization      29.4324410

 Broyden mixing:
  rms(total) = 0.11020E+01    rms(broyden)= 0.11018E+01
  rms(prec ) = 0.14212E+01
  weight for this iteration     100.00

 eigenvalues of (default mixing * dielectric matrix)
  average eigenvalue GAMMA=   0.4323
  1.9490  0.7350  0.7350  0.5719  0.3928  0.3928  0.2743  0.1321  0.0972  0.0951
  0.0910  0.0769  0.0769

 Free energy of the ion-electron system (eV)
  ---------------------------------------------------
  alpha Z        PSCENC =      1575.65330513
  Ewald energy   TEWEN  =    -35636.15583847
  -Hartree energ DENC   =    -19528.37718173
  -exchange      EXHF   =         0.00000000
  -V(xc)+E(xc)   XCENC  =      2343.40794879
  PAW double counting   =     59588.45430850   -61893.97092233
  entropy T*S    EENTRO =        -0.12261177
  eigenvalues    EBANDS =     -2062.62694135
  atomic energy  EATOM  =     55137.21312455
  Solvation  Ediel_sol  =         0.00000000
  ---------------------------------------------------
  free energy    TOTEN  =      -476.52480868 eV

  energy without entropy =     -476.40219691  energy(sigma->0) =     -476.46350279


--------------------------------------------------------------------------------------------------------




--------------------------------------- Iteration      1(  19)  ---------------------------------------


    POTLOK:  cpu time    0.3328: real time    0.3336
    SETDIJ:  cpu time    0.0338: real time    0.0339
     EDDAV:  cpu time  214.6191: real time  215.1271
    CHARGE:  cpu time    8.2840: real time    8.3036
    MIXING:  cpu time    0.0111: real time    0.0112
    --------------------------------------------
      LOOP:  cpu time  223.2808: real time  223.8093

 eigenvalue-minimisations  : 43632
 total energy-change (2. order) : 0.9750178E-01  (-0.8079638E-01)
 number of electron     607.9999963 magnetization      43.5241343
 augmentation part      224.4133199 magnetization      28.9727725

 Broyden mixing:
  rms(total) = 0.70200E+00    rms(broyden)= 0.70186E+00
  rms(prec ) = 0.88594E+00
  weight for this iteration     100.00

 eigenvalues of (default mixing * dielectric matrix)
  average eigenvalue GAMMA=   0.4281
  1.9853  0.7743  0.7743  0.5336  0.4158  0.4158  0.2864  0.2407  0.1248  0.0991
  0.0991  0.0907  0.0766  0.0766

 Free energy of the ion-electron system (eV)
  ---------------------------------------------------
  alpha Z        PSCENC =      1575.65330513
  Ewald energy   TEWEN  =    -35636.15583847
  -Hartree energ DENC   =    -19535.36108359
  -exchange      EXHF   =         0.00000000
  -V(xc)+E(xc)   XCENC  =      2343.47782836
  PAW double counting   =     59656.98436799   -61963.92308998
  entropy T*S    EENTRO =        -0.12566236
  eigenvalues    EBANDS =     -2054.19025854
  atomic energy  EATOM  =     55137.21312455
  Solvation  Ediel_sol  =         0.00000000
  ---------------------------------------------------
  free energy    TOTEN  =      -476.42730690 eV

  energy without entropy =     -476.30164453  energy(sigma->0) =     -476.36447572


--------------------------------------------------------------------------------------------------------




--------------------------------------- Iteration      1(  20)  ---------------------------------------


    POTLOK:  cpu time    0.3368: real time    0.3376
    SETDIJ:  cpu time    0.0335: real time    0.0335
     EDDAV:  cpu time  215.3446: real time  215.8544
    CHARGE:  cpu time    8.3017: real time    8.3214
    MIXING:  cpu time    0.0116: real time    0.0116
    --------------------------------------------
      LOOP:  cpu time  224.0282: real time  224.5586

 eigenvalue-minimisations  : 43824
 total energy-change (2. order) :-0.2029129E+00  (-0.7337443E-01)
 number of electron     607.9999963 magnetization      41.7371435
 augmentation part      224.3384774 magnetization      27.4257354

 Broyden mixing:
  rms(total) = 0.10077E+01    rms(broyden)= 0.10076E+01
  rms(prec ) = 0.12940E+01
  weight for this iteration     100.00

 eigenvalues of (default mixing * dielectric matrix)
  average eigenvalue GAMMA=   0.4408
  2.0087  0.9238  0.9238  0.5455  0.5455  0.3679  0.3679  0.2738  0.1264  0.1056
  0.0953  0.0953  0.0790  0.0790  0.0748

 Free energy of the ion-electron system (eV)
  ---------------------------------------------------
  alpha Z        PSCENC =      1575.65330513
  Ewald energy   TEWEN  =    -35636.15583847
  -Hartree energ DENC   =    -19537.12408509
  -exchange      EXHF   =         0.00000000
  -V(xc)+E(xc)   XCENC  =      2343.44048810
  PAW double counting   =     59700.17906131   -62007.66100059
  entropy T*S    EENTRO =        -0.12423616
  eigenvalues    EBANDS =     -2052.05103857
  atomic energy  EATOM  =     55137.21312455
  Solvation  Ediel_sol  =         0.00000000
  ---------------------------------------------------
  free energy    TOTEN  =      -476.63021977 eV

  energy without entropy =     -476.50598362  energy(sigma->0) =     -476.56810170


--------------------------------------------------------------------------------------------------------




--------------------------------------- Iteration      1(  21)  ---------------------------------------


    POTLOK:  cpu time    0.3327: real time    0.3335
    SETDIJ:  cpu time    0.0321: real time    0.0322
     EDDAV:  cpu time  204.4050: real time  204.8889
    CHARGE:  cpu time    8.2111: real time    8.2403
    MIXING:  cpu time    0.0125: real time    0.0125
    --------------------------------------------
      LOOP:  cpu time  212.9935: real time  213.5074

 eigenvalue-minimisations  : 41136
 total energy-change (2. order) : 0.7627877E-01  (-0.4003381E-01)
 number of electron     607.9999963 magnetization      40.8274126
 augmentation part      224.3860239 magnetization      26.8149897

 Broyden mixing:
  rms(total) = 0.54609E+00    rms(broyden)= 0.54601E+00
  rms(prec ) = 0.68528E+00
  weight for this iteration     100.00

 eigenvalues of (default mixing * dielectric matrix)
  average eigenvalue GAMMA=   0.4602
  2.0227  1.0705  1.0705  0.5597  0.5597  0.4118  0.3743  0.3743  0.2648  0.1298
  0.1017  0.0948  0.0948  0.0793  0.0793  0.0755

 Free energy of the ion-electron system (eV)
  ---------------------------------------------------
  alpha Z        PSCENC =      1575.65330513
  Ewald energy   TEWEN  =    -35636.15583847
  -Hartree energ DENC   =    -19537.54916455
  -exchange      EXHF   =         0.00000000
  -V(xc)+E(xc)   XCENC  =      2343.18605760
  PAW double counting   =     59786.64025299   -62094.15068425
  entropy T*S    EENTRO =        -0.12520198
  eigenvalues    EBANDS =     -2051.26579202
  atomic energy  EATOM  =     55137.21312455
  Solvation  Ediel_sol  =         0.00000000
  ---------------------------------------------------
  free energy    TOTEN  =      -476.55394101 eV

  energy without entropy =     -476.42873902  energy(sigma->0) =     -476.49134001


--------------------------------------------------------------------------------------------------------




--------------------------------------- Iteration      1(  22)  ---------------------------------------


    POTLOK:  cpu time    0.3339: real time    0.3347
    SETDIJ:  cpu time    0.0332: real time    0.0333
     EDDAV:  cpu time  203.4649: real time  203.9465
    CHARGE:  cpu time    8.3128: real time    8.3326
    MIXING:  cpu time    0.0126: real time    0.0126
    --------------------------------------------
      LOOP:  cpu time  212.1574: real time  212.6596

 eigenvalue-minimisations  : 41184
 total energy-change (2. order) :-0.2181857E+00  (-0.4032975E-01)
 number of electron     607.9999964 magnetization      38.8783942
 augmentation part      224.4035943 magnetization      25.1418747

 Broyden mixing:
  rms(total) = 0.89674E+00    rms(broyden)= 0.89667E+00
  rms(prec ) = 0.11956E+01
  weight for this iteration     100.00

 eigenvalues of (default mixing * dielectric matrix)
  average eigenvalue GAMMA=   0.4753
  2.1128  1.2169  1.2169  0.6083  0.6083  0.5497  0.3778  0.3778  0.2664  0.1298
  0.0991  0.0991  0.0946  0.0907  0.0750  0.0785  0.0785

 Free energy of the ion-electron system (eV)
  ---------------------------------------------------
  alpha Z        PSCENC =      1575.65330513
  Ewald energy   TEWEN  =    -35636.15583847
  -Hartree energ DENC   =    -19537.92747571
  -exchange      EXHF   =         0.00000000
  -V(xc)+E(xc)   XCENC  =      2343.09072218
  PAW double counting   =     59817.29347155   -62124.55046967
  entropy T*S    EENTRO =        -0.12328471
  eigenvalues    EBANDS =     -2051.26568154
  atomic energy  EATOM  =     55137.21312455
  Solvation  Ediel_sol  =         0.00000000
  ---------------------------------------------------
  free energy    TOTEN  =      -476.77212667 eV

  energy without entropy =     -476.64884196  energy(sigma->0) =     -476.71048432


--------------------------------------------------------------------------------------------------------




--------------------------------------- Iteration      1(  23)  ---------------------------------------


    POTLOK:  cpu time    0.3315: real time    0.3323
    SETDIJ:  cpu time    0.0325: real time    0.0326
     EDDAV:  cpu time  206.3619: real time  206.8506
    CHARGE:  cpu time    8.1601: real time    8.1795
    MIXING:  cpu time    0.0128: real time    0.0128
    --------------------------------------------
      LOOP:  cpu time  214.8989: real time  215.4078

 eigenvalue-minimisations  : 41920
 total energy-change (2. order) : 0.9217778E-01  (-0.3777114E-01)
 number of electron     607.9999963 magnetization      38.2893213
 augmentation part      224.5381039 magnetization      24.9287162

 Broyden mixing:
  rms(total) = 0.39498E+00    rms(broyden)= 0.39485E+00
  rms(prec ) = 0.51052E+00
  weight for this iteration     100.00

 eigenvalues of (default mixing * dielectric matrix)
  average eigenvalue GAMMA=   0.4840
  2.1375  1.4390  0.9512  0.9512  0.5798  0.5798  0.3684  0.3684  0.3097  0.2871
  0.1291  0.1021  0.0938  0.0938  0.0899  0.0750  0.0785  0.0785

 Free energy of the ion-electron system (eV)
  ---------------------------------------------------
  alpha Z        PSCENC =      1575.65330513
  Ewald energy   TEWEN  =    -35636.15583847
  -Hartree energ DENC   =    -19538.78764972
  -exchange      EXHF   =         0.00000000
  -V(xc)+E(xc)   XCENC  =      2342.93770922
  PAW double counting   =     59880.61103856   -62187.35422033
  entropy T*S    EENTRO =        -0.12532987
  eigenvalues    EBANDS =     -2050.67208797
  atomic energy  EATOM  =     55137.21312455
  Solvation  Ediel_sol  =         0.00000000
  ---------------------------------------------------
  free energy    TOTEN  =      -476.67994889 eV

  energy without entropy =     -476.55461902  energy(sigma->0) =     -476.61728396


--------------------------------------------------------------------------------------------------------




--------------------------------------- Iteration      1(  24)  ---------------------------------------


    POTLOK:  cpu time    0.3332: real time    0.3340
    SETDIJ:  cpu time    0.0321: real time    0.0322
     EDDAV:  cpu time  217.0212: real time  217.5349
    CHARGE:  cpu time    8.1614: real time    8.1808
    MIXING:  cpu time    0.0127: real time    0.0127
    --------------------------------------------
      LOOP:  cpu time  225.5606: real time  226.0946

 eigenvalue-minimisations  : 44560
 total energy-change (2. order) :-0.7471113E-01  (-0.2119657E-01)
 number of electron     607.9999962 magnetization      37.2355714
 augmentation part      224.5308849 magnetization      24.0616928

 Broyden mixing:
  rms(total) = 0.56729E+00    rms(broyden)= 0.56723E+00
  rms(prec ) = 0.75948E+00
  weight for this iteration     100.00

 eigenvalues of (default mixing * dielectric matrix)
  average eigenvalue GAMMA=   0.5093
  2.0962  2.0962  1.0122  1.0122  0.6108  0.6108  0.3969  0.3708  0.3708  0.2737
  0.1293  0.1016  0.0962  0.0940  0.0940  0.0749  0.0782  0.0782  0.0800

 Free energy of the ion-electron system (eV)
  ---------------------------------------------------
  alpha Z        PSCENC =      1575.65330513
  Ewald energy   TEWEN  =    -35636.15583847
  -Hartree energ DENC   =    -19539.83146924
  -exchange      EXHF   =         0.00000000
  -V(xc)+E(xc)   XCENC  =      2342.92470120
  PAW double counting   =     59886.41612241   -62193.01465552
  entropy T*S    EENTRO =        -0.12090964
  eigenvalues    EBANDS =     -2049.83904046
  atomic energy  EATOM  =     55137.21312455
  Solvation  Ediel_sol  =         0.00000000
  ---------------------------------------------------
  free energy    TOTEN  =      -476.75466003 eV

  energy without entropy =     -476.63375039  energy(sigma->0) =     -476.69420521


--------------------------------------------------------------------------------------------------------




--------------------------------------- Iteration      1(  25)  ---------------------------------------


    POTLOK:  cpu time    0.3345: real time    0.3353
    SETDIJ:  cpu time    0.0329: real time    0.0329
     EDDAV:  cpu time  223.0281: real time  223.5561
    CHARGE:  cpu time    8.1661: real time    8.1855
    MIXING:  cpu time    0.0140: real time    0.0141
    --------------------------------------------
      LOOP:  cpu time  231.5757: real time  232.1239

 eigenvalue-minimisations  : 46064
 total energy-change (2. order) : 0.2954161E-01  (-0.1424007E-01)
 number of electron     607.9999963 magnetization      36.8364088
 augmentation part      224.5009197 magnetization      23.8973375

 Broyden mixing:
  rms(total) = 0.28272E+00    rms(broyden)= 0.28265E+00
  rms(prec ) = 0.33850E+00
  weight for this iteration     100.00

 eigenvalues of (default mixing * dielectric matrix)
  average eigenvalue GAMMA=   0.5143
  2.2058  2.2058  1.0716  1.0716  0.6182  0.6182  0.3717  0.3717  0.3804  0.2977
  0.2499  0.1291  0.0995  0.0995  0.0924  0.0924  0.0749  0.0789  0.0789  0.0781

[...]
   0.101E+03 0.907E+02 0.726E+02   -.110E+03 -.994E+02 -.774E+02   0.980E+01 0.852E+01 0.555E+01   -.284E+00 -.243E+00 -.128E+00
   0.269E+02 -.145E+03 0.289E+02   -.286E+02 0.159E+03 -.330E+02   0.926E+00 -.140E+02 0.404E+01   0.928E-01 -.379E+00 0.528E+00
   -.182E+03 0.733E+02 -.137E+03   0.197E+03 -.789E+02 0.148E+03   -.155E+02 0.741E+01 -.109E+02   -.663E-02 -.629E+00 -.543E+00
   0.885E+02 -.474E+02 0.107E+03   -.959E+02 0.514E+02 -.114E+03   0.833E+01 -.426E+01 0.687E+01   -.218E+00 -.277E+00 -.449E-01
   0.224E+02 0.141E+03 0.949E+02   -.249E+02 -.152E+03 -.105E+03   0.217E+01 0.119E+02 0.931E+01   0.461E+00 -.113E+00 -.467E+00
   -.162E+03 -.781E+02 -.156E+03   0.177E+03 0.867E+02 0.169E+03   -.143E+02 -.758E+01 -.125E+02   -.156E+00 -.176E+01 -.611E+00
   0.112E+03 0.713E+02 0.895E+02   -.121E+03 -.774E+02 -.958E+02   0.912E+01 0.586E+01 0.619E+01   0.836E-01 0.643E+00 0.325E-01
   0.292E+02 -.108E+03 0.612E+02   -.311E+02 0.118E+03 -.681E+02   0.986E+00 -.951E+01 0.660E+01   0.263E+00 -.533E+00 -.403E+00
   -.170E+03 0.631E+02 -.135E+03   0.185E+03 -.679E+02 0.146E+03   -.157E+02 0.661E+01 -.120E+02   -.581E+00 -.610E+00 0.248E-01
   0.925E+02 -.946E+02 0.103E+03   -.101E+03 0.104E+03 -.111E+03   0.861E+01 -.947E+01 0.762E+01   0.114E+01 0.563E+00 0.131E+00
   0.285E+02 0.155E+03 0.199E+02   -.300E+02 -.169E+03 -.240E+02   0.228E+01 0.140E+02 0.418E+01   -.143E+01 0.663E+00 0.514E+00
   -.162E+03 -.844E+02 -.119E+03   0.176E+03 0.909E+02 0.128E+03   -.150E+02 -.755E+01 -.106E+02   0.317E-01 0.344E-01 0.563E+00
   0.124E+03 0.673E+02 0.498E+02   -.136E+03 -.715E+02 -.537E+02   0.129E+02 0.543E+01 0.446E+01   0.333E+00 -.565E+00 0.113E+00
   -.449E+01 -.130E+03 0.568E+02   0.556E+01 0.141E+03 -.651E+02   -.976E+00 -.114E+02 0.855E+01   -.255E+00 -.329E-01 -.390E+00
   -.175E+03 0.434E+02 -.164E+03   0.190E+03 -.477E+02 0.177E+03   -.156E+02 0.497E+01 -.128E+02   -.295E-02 0.597E+00 -.342E+00
   0.122E+03 -.567E+02 0.762E+02   -.131E+03 0.623E+02 -.814E+02   0.103E+02 -.519E+01 0.546E+01   -.411E-01 -.733E+00 -.146E+00
   0.112E+02 0.157E+03 0.230E+02   -.153E+02 -.171E+03 -.249E+02   0.135E+01 0.137E+02 0.346E+01   0.227E+01 0.577E+00 -.768E+00
   -.136E+03 -.146E+03 -.144E+03   0.149E+03 0.161E+03 0.156E+03   -.127E+02 -.131E+02 -.111E+02   -.181E+01 0.845E+00 -.576E+00
   0.109E+03 0.437E+02 0.647E+02   -.121E+03 -.473E+02 -.667E+02   0.106E+02 0.493E+01 0.300E+01   0.785E+00 -.705E+00 -.195E+00
   0.138E+02 -.155E+03 0.307E+02   -.161E+02 0.168E+03 -.348E+02   0.197E+01 -.131E+02 0.464E+01   -.676E+00 0.439E+00 0.165E+00
   -.130E+03 0.107E+03 -.125E+03   0.141E+03 -.117E+03 0.133E+03   -.126E+02 0.952E+01 -.861E+01   0.698E+00 0.284E+00 0.797E-01
   0.103E+03 -.652E+02 0.876E+02   -.112E+03 0.699E+02 -.933E+02   0.975E+01 -.594E+01 0.658E+01   -.128E+00 0.627E+00 -.479E+00
   -.821E+01 0.146E+03 0.587E+02   0.876E+01 -.158E+03 -.636E+02   -.874E+00 0.134E+02 0.602E+01   0.335E+00 0.252E+00 -.104E+01
   -.149E+03 -.813E+02 -.155E+03   0.163E+03 0.893E+02 0.166E+03   -.144E+02 -.809E+01 -.105E+02   -.214E+00 -.306E+00 -.710E+00
   0.115E+03 0.757E+02 0.106E+03   -.124E+03 -.815E+02 -.115E+03   0.957E+01 0.634E+01 0.770E+01   -.302E+00 0.143E+00 0.159E+01
   0.215E+02 -.143E+03 0.214E+02   -.231E+02 0.154E+03 -.241E+02   0.184E+01 -.118E+02 0.329E+01   -.731E+00 0.275E+00 0.984E-01
   -.129E+03 0.121E+03 -.138E+03   0.141E+03 -.133E+03 0.149E+03   -.131E+02 0.104E+02 -.115E+02   -.778E-01 0.479E+00 0.292E+00
 -----------------------------------------------------------------------------------------------
   0.577E+02 0.694E+01 0.187E+02   -.597E-12 -.168E-11 0.455E-12   -.572E+02 -.817E+01 -.184E+02   -.530E+00 0.119E+01 -.300E+00
 
 
 POSITION                                       TOTAL-FORCE (eV/Angst)
 -----------------------------------------------------------------------------------
      7.00146      4.97470      2.47954         0.052330      0.592448      0.709976
      5.48197      2.25774      2.52396         0.172450      0.602699     -0.322907
     -2.68749      3.33144      9.99652         0.207996     -1.214268     -0.185943
      2.38603      0.42851      0.07083        -0.359170      0.474599     -0.153286
      2.21964      2.21450      2.49214         0.534632      0.084574      0.701042
      0.83943      5.09185      2.48244        -0.270364     -0.058439      0.198388
      2.03640      0.64888     10.02485         0.191935     -1.849203     -0.208540
      7.10907      3.26605      0.12678         1.628017      0.032738     -0.576926
      3.67824      5.02929      7.51692         0.929840     -0.041172     -0.101555
      2.16550      2.39719      7.59951         1.141483      0.246466     -0.426713
      0.51404      3.25621      5.06173         2.380917      1.680557     -1.061397
     -0.91637      0.47460      5.07659         1.073627     -0.262617     -0.519954
     -0.99997      2.23194      7.52547         0.110532     -0.115295      0.582113
     -2.51945      5.06353      7.58987         0.639652      1.100702     -0.488948
      5.36552      0.53693      5.05420         0.323034     -0.275149     -0.035899
      3.83853      3.20065      5.10957         1.492412     -0.265309     -0.726790
      6.95797     10.62438      2.52990         0.697843     -0.670102      0.289987
      5.51004      7.89682      2.50494         0.636392     -0.050748      0.262971
     -2.55684      8.97128      9.99569        -0.270541     -0.190337      0.294790
      2.36344      6.15086      0.12011         0.755098     -1.324125     -0.741248
      2.27264      7.87317      2.44120         0.016084     -0.316682      0.844774
      0.74426     10.74013      2.45867         0.207582     -0.442955      1.242241
      8.65877      6.04101      0.09096        -0.125562      1.510004     -0.733396
      7.05737      8.76338      0.01503         1.686094      0.338936      0.152590
      3.79698     10.66455      7.53304        -0.246190     -0.061019      0.232962
      2.15473      7.86992      7.62536         1.970403      0.227765     -0.570411
      0.67682      9.01229      5.06242         0.348620     -2.684892     -0.860560
     -0.88216      6.03858      4.97417         0.942492     -0.204482      0.388685
     -0.96604      7.75286      7.52304        -0.044413      0.907481     -0.556098
     -2.54135     10.70311      7.60811         0.573592     -0.533614     -0.643100
      5.40341      6.12789      5.02517        -0.134913     -0.327556      0.036059
      3.88148      8.84760      5.02544        -0.008531     -0.331734      0.552601
      7.27477      5.06032      0.65612         0.180688     -0.664732      0.385466
      0.73108      5.32513      0.65736         0.475376      0.521190      0.435709
      3.75661      4.90707      0.57890        -1.264508      1.385940     -0.276653
      5.65807      0.57678      3.18227         0.202506      0.192538      0.564034
      3.86954      2.98556      3.12405        -0.089742     -0.927027      0.621054
      6.89025      3.29430      2.98198        -0.859497      0.233898     -0.503950
      2.43862      2.27050      0.67240         0.713162     -0.603564     -0.355090
      5.56990      2.61597      0.64232        -1.506194      0.167094      0.747588
      8.58773      2.24137      0.53067        -1.186550      1.225700     -0.094618
      0.97116      3.41397      3.17961         0.135308     -0.015920      0.531425
     -0.82422      0.28539      3.17456        -0.487028     -0.802173      0.635561
      2.18091      0.50388      3.10014        -0.865849      0.600675     -0.844480
      3.99467      4.97497      5.60964         0.767958     -0.041380      0.679720
     -2.49038      5.35062      5.61156        -0.165281      0.666647      0.732045
      0.54078      5.00394      5.52277        -1.410849     -0.262867     -0.728150
      2.36173      0.63464      8.13111         0.636417     -0.063164      0.612355
      0.66778      3.09458      8.31510        -0.820636     -0.857671     -0.073195
      3.66162      3.34353      8.09526        -1.217926      0.466466     -0.844003
     -0.74133      2.33275      5.68911        -1.131187     -2.068750      0.870133
      2.27862      2.56253      5.65850        -1.193564      0.373889      0.757968
      5.33765      2.22463      5.53932        -1.443652      0.147564     -0.568796
     -2.40127      3.36125      8.11019         0.691660     -0.443089      0.651012
     -4.07992      0.29915      8.20945        -0.696186     -0.629897      0.550445
     -1.12209      0.48805      8.02957        -0.350460      1.217902     -0.556249
      7.20520     10.61129      0.70814         0.708201     -0.548281     -0.290784
      0.69582     10.86853      0.69696         0.126152      1.073797     -0.873914
      3.77625     10.63627      0.53731        -0.331343     -0.718654     -0.436513
      5.62767      6.11569      3.18971         0.653574      0.429791     -0.049611
      3.92486      8.60730      3.24483        -0.581044     -0.805016     -0.671471
      6.93651      8.81942      3.09207        -1.061451      1.205066     -1.040406
      2.52473      7.88186      0.62859         0.827912      0.157035      0.080963
      5.50041      8.08371      0.61235        -0.719876      0.498161      0.616250
      8.57858      7.90029      0.53012        -1.207578     -1.062402     -0.984976
      0.86121      8.87530      3.09538         0.757479      0.658617      0.648049
     -0.85831      5.86106      3.16889        -0.159350     -0.946763     -0.121271
      2.17553      6.08462      2.97715        -0.324343      1.329160     -0.698703
      4.00750     10.58567      5.68800         0.534833     -0.313869      0.183518
     -2.46940     10.87482      5.64514        -0.425117      0.751214      0.739615
      0.60864     10.58853      5.53211        -1.547264      2.117203     -0.068694
      2.37921      6.08736      8.17566         0.161817      0.586303      0.718657
      0.61085      8.55913      8.16303        -0.969228     -0.306418      0.673800
      3.65267      8.94358      7.95693        -1.377297      0.138822     -0.442208
     -0.73325      7.85262      5.63592         0.583311     -0.530685      0.408481
      2.21226      8.01934      5.72580         0.004574      1.281603      0.054731
      5.25704      7.82718      5.46709        -0.771014     -0.459046     -0.297413
     -2.35494      8.86733      8.16401         0.644132      0.614544      0.070041
     -4.10957      5.83190      8.15374        -0.537681     -0.742254      0.663141
     -1.08000      6.13168      8.03625        -1.356736     -0.806471     -0.386120
 -----------------------------------------------------------------------------------
    total drift:                                0.003402     -0.038230      0.006277


--------------------------------------------------------------------------------------------------------



  FREE ENERGIE OF THE ION-ELECTRON SYSTEM (eV)
  ---------------------------------------------------
  free  energy   TOTEN  =      -476.8786283785 eV

  energy  without entropy=     -476.7620776208  energy(sigma->0) =     -476.82035300
 


--------------------------------------------------------------------------------------------------------


    POTLOK:  cpu time    0.3726: real time    0.3735


--------------------------------------------------------------------------------------------------------


     LOOP+:  cpu time18382.6926: real time18426.9905
    4ORBIT:  cpu time    0.0000: real time    0.0000

volume of typ            1:    19.3 %

volume of typ            2:     7.4 %
 
total charge     
 
# of ion       s       p       d       tot
------------------------------------------
    1        0.263   0.298   7.821   8.382
    2        0.266   0.304   7.856   8.425
    3        0.268   0.301   7.858   8.426
    4        0.258   0.287   7.842   8.388
    5        0.266   0.303   7.834   8.403
    6        0.277   0.320   7.832   8.428
    7        0.269   0.302   7.841   8.412
    8        0.276   0.325   7.852   8.453
    9        0.264   0.297   7.811   8.372
   10        0.266   0.305   7.857   8.428
   11        0.281   0.323   7.848   8.451
   12        0.243   0.264   7.775   8.282
   13        0.245   0.267   7.881   8.394
   14        0.263   0.295   7.857   8.414
   15        0.266   0.304   7.868   8.438
   16        0.267   0.303   7.827   8.397
   17        0.255   0.284   7.854   8.392
   18        0.257   0.288   7.812   8.357
   19        0.264   0.303   7.786   8.353
   20        0.242   0.257   7.835   8.334
   21        0.255   0.281   7.828   8.364
   22        0.274   0.316   7.849   8.438
   23        0.263   0.298   7.868   8.429
   24        0.260   0.292   7.836   8.389
   25        0.261   0.296   7.846   8.404
   26        0.265   0.302   7.853   8.420
   27        0.281   0.323   7.826   8.429
   28        0.264   0.298   7.822   8.384
   29        0.275   0.321   7.853   8.449
   30        0.267   0.304   7.861   8.433
   31        0.271   0.314   7.819   8.403
   32        0.268   0.307   7.824   8.398
   33        1.268   2.754   0.009   4.032
   34        1.270   2.748   0.009   4.027
   35        1.283   2.705   0.008   3.995
   36        1.268   2.756   0.009   4.033
   37        1.276   2.707   0.006   3.990
   38        1.282   2.710   0.008   4.000
   39        1.268   2.735   0.007   4.010
   40        1.273   2.743   0.008   4.024
   41        1.283   2.714   0.009   4.007
   42        1.266   2.742   0.007   4.016
   43        1.275   2.714   0.007   3.995
   44        1.283   2.702   0.007   3.992
   45        1.270   2.723   0.007   3.999
   46        1.274   2.724   0.007   4.005
   47        1.284   2.696   0.006   3.986
   48        1.268   2.729   0.007   4.004
   49        1.274   2.732   0.008   4.013
   50        1.285   2.690   0.007   3.983
   51        1.268   2.763   0.011   4.042
   52        1.273   2.730   0.007   4.010
   53        1.283   2.706   0.007   3.997
   54        1.267   2.748   0.008   4.024
   55        1.271   2.737   0.008   4.016
   56        1.281   2.705   0.008   3.994
   57        1.268   2.724   0.006   3.998
   58        1.272   2.733   0.008   4.014
   59        1.281   2.720   0.009   4.010
   60        1.270   2.722   0.007   3.998
   61        1.272   2.731   0.008   4.011
   62        1.286   2.670   0.006   3.963
   63        1.266   2.749   0.008   4.023
   64        1.268   2.754   0.008   4.030
   65        1.286   2.671   0.006   3.963
   66        1.273   2.709   0.006   3.988
   67        1.275   2.714   0.007   3.995
   68        1.286   2.694   0.008   3.988
   69        1.268   2.747   0.008   4.023
   70        1.274   2.720   0.007   4.001
   71        1.284   2.714   0.010   4.007
   72        1.269   2.738   0.008   4.014
   73        1.271   2.751   0.009   4.030
   74        1.283   2.695   0.007   3.985
   75        1.270   2.718   0.006   3.994
   76        1.276   2.702   0.006   3.984
   77        1.284   2.714   0.008   4.007
   78        1.270   2.734   0.007   4.011
   79        1.275   2.701   0.006   3.981
   80        1.283   2.714   0.009   4.006
--------------------------------------------------
tot          69.66  140.23  251.19  461.09
 
magnetization (x)
 
# of ion       s       p       d       tot
------------------------------------------
    1        0.002   0.012   0.851   0.865
    2        0.000  -0.006  -0.314  -0.320
    3        0.004   0.016   0.882   0.902
    4        0.001   0.011   0.584   0.597
    5        0.002   0.021   0.949   0.971
    6        0.002   0.012   0.683   0.697
    7        0.004   0.018   0.902   0.923
    8        0.000  -0.003  -0.185  -0.188
    9        0.002   0.009   0.564   0.575
   10        0.000   0.013   0.746   0.759
   11       -0.003  -0.006  -0.562  -0.571
   12        0.000  -0.003  -0.193  -0.195
   13        0.001   0.002   0.159   0.162
   14        0.002   0.009   0.539   0.550
   15        0.001  -0.002   0.026   0.025
   16        0.002   0.013   0.863   0.878
   17        0.000   0.010   0.558   0.567
   18        0.002   0.016   0.885   0.903
   19        0.003   0.015   0.748   0.766
   20        0.003   0.017   1.033   1.053
   21        0.001   0.011   0.573   0.585
   22        0.001   0.020   0.861   0.882
   23        0.001   0.003   0.108   0.112
   24        0.002   0.018   0.956   0.976
   25        0.002   0.004   0.335   0.341
   26        0.001   0.015   0.805   0.822
   27        0.006   0.020   1.032   1.058
   28        0.002   0.018   0.871   0.890
   29        0.002   0.010   0.515   0.526
   30        0.002   0.009   0.603   0.614
   31        0.002   0.005   0.222   0.229
   32        0.001   0.010   0.639   0.650
   33        0.003   0.019   0.000   0.022
   34        0.006   0.111   0.000   0.117
   35        0.009   0.404   0.000   0.413
   36        0.002  -0.017   0.000  -0.016
   37        0.005   0.120   0.000   0.125
   38        0.005   0.197  -0.000   0.202
   39        0.008   0.158   0.000   0.165
   40        0.001  -0.022  -0.000  -0.021
   41        0.005   0.218   0.000   0.223
   42        0.002   0.045   0.000   0.047
   43        0.003   0.074   0.000   0.078
   44        0.008   0.364   0.000   0.372
   45        0.006   0.088   0.000   0.094
   46        0.006   0.142   0.000   0.148
   47        0.002   0.052   0.000   0.054
   48        0.007   0.129   0.000   0.136
   49        0.003   0.072   0.000   0.075
   50        0.007   0.287   0.000   0.293
   51       -0.000  -0.075  -0.000  -0.075
   52        0.003   0.114   0.000   0.118
   53        0.005   0.200  -0.000   0.205
   54        0.005   0.075   0.000   0.080
   55        0.005   0.108   0.000   0.113
   56        0.005   0.196   0.000   0.201
   57        0.006   0.157   0.000   0.164
   58        0.008   0.208   0.000   0.216
   59        0.007   0.252   0.000   0.259
   60        0.006   0.102   0.000   0.108
   61        0.007   0.156   0.000   0.163
   62        0.008   0.368   0.000   0.376
   63        0.008   0.132   0.000   0.140
   64        0.008   0.177   0.000   0.185
   65        0.008   0.353   0.000   0.361
   66        0.008   0.174   0.000   0.182
   67        0.008   0.237   0.000   0.246
   68        0.008   0.321   0.000   0.329
   69        0.003   0.034   0.000   0.037
   70        0.002   0.018  -0.000   0.020
   71        0.006   0.273   0.000   0.279
   72        0.004   0.074   0.000   0.079
   73        0.007   0.161   0.000   0.169
   74        0.006   0.260   0.000   0.266
   75        0.009   0.181   0.000   0.190
   76        0.009   0.256   0.000   0.265
   77        0.005   0.181   0.000   0.186
   78        0.006   0.109   0.000   0.115
   79        0.007   0.204   0.000   0.211
   80        0.005   0.227   0.000   0.232
--------------------------------------------------
tot           0.32    7.99   17.25   25.55
 

 total amount of memory used by VASP MPI-rank0   600211. kBytes
=======================================================================

   base      :      30000. kBytes
   nonlr-proj:      51271. kBytes
   fftplans  :      11362. kBytes
   grid      :      64490. kBytes
   one-center:       2488. kBytes
   wavefun   :     440600. kBytes
 
  
  
 General timing and accounting informations for this job:
 ========================================================
  
                  Total CPU time used (sec):    18523.770
                            User time (sec):    18504.856
                          System time (sec):       18.913
                         Elapsed time (sec):    18572.871
  
                   Maximum memory used (kb):      710300.
                   Average memory used (kb):           0.
  
                          Minor page faults:        47137
                          Major page faults:           19
                 Voluntary context switches:         1166
