 vasp.5.4.4.18Apr17-6-g9f103f2a35 (build May 12 2020 04:58:55) complex          
  
 MD_VERSION_INFO: Compiled 2020-05-12T11:58:55-UTC in devlin.sd.materialsdesign.
 com:/home/medea2/data/build/wwolf/vasp-gpu5.4.4/13047/x86_64/src/src/build/std 
 from svn 13047
 
 This VASP executable licensed from Materials Design, Inc.
 
 executed on                        Lin64 date 2023.03.25  20:08:03
 running on   16 total cores
 distrk:  each k-point on   16 cores,    1 groups
 distr:  one band on NCORES_PER_BAND=   1 cores,   16 groups


--------------------------------------------------------------------------------------------------------


 INCAR:
 POTCAR:    PAW_PBE Ni 02Aug2007                  
 POTCAR:    PAW_PBE O 08Apr2002                   

 ----------------------------------------------------------------------------- 
|                                                                             |
|           W    W    AA    RRRRR   N    N  II  N    N   GGGG   !!!           |
|           W    W   A  A   R    R  NN   N  II  NN   N  G    G  !!!           |
|           W    W  A    A  R    R  N N  N  II  N N  N  G       !!!           |
|           W WW W  AAAAAA  RRRRR   N  N N  II  N  N N  G  GGG   !            |
|           WW  WW  A    A  R   R   N   NN  II  N   NN  G    G                |
|           W    W  A    A  R    R  N    N  II  N    N   GGGG   !!!           |
|                                                                             |
|      For optimal performance we recommend to set                            |
|        NCORE= 4 - approx SQRT( number of cores)                             |
|      NCORE specifies how many cores store one orbital (NPAR=cpu/NCORE).     |
|      This setting can  greatly improve the performance of VASP for DFT.     |
|      The default,   NCORE=1            might be grossly inefficient         |
|      on modern multi-core architectures or massively parallel machines.     |
|      Do your own testing !!!!                                               |
|      Unfortunately you need to use the default for GW and RPA calculations. |
|      (for HF NCORE is supported but not extensively tested yet)             |
|                                                                             |
 ----------------------------------------------------------------------------- 

 POTCAR:    PAW_PBE Ni 02Aug2007                  
  local pseudopotential read in
  partial core-charges read in
  partial kinetic energy density read in
  atomic valenz-charges read in
  non local Contribution for L=           2  read in
    real space projection operators read in
  non local Contribution for L=           2  read in
    real space projection operators read in
  non local Contribution for L=           0  read in
    real space projection operators read in
  non local Contribution for L=           0  read in
    real space projection operators read in
  non local Contribution for L=           1  read in
    real space projection operators read in
  non local Contribution for L=           1  read in
    real space projection operators read in
    PAW grid and wavefunctions read in
 
   number of l-projection  operators is LMAX  =           6
   number of lm-projection operators is LMMAX =          18
 
 POTCAR:    PAW_PBE O 08Apr2002                   
  local pseudopotential read in
  partial core-charges read in
  partial kinetic energy density read in
  kinetic energy density of atom read in
  atomic valenz-charges read in
  non local Contribution for L=           0  read in
    real space projection operators read in
  non local Contribution for L=           0  read in
    real space projection operators read in
  non local Contribution for L=           1  read in
    real space projection operators read in
  non local Contribution for L=           1  read in
    real space projection operators read in
    PAW grid and wavefunctions read in
 
   number of l-projection  operators is LMAX  =           4
   number of lm-projection operators is LMMAX =           8
 
 Optimization of the real space projectors (new method)

 maximal supplied QI-value         = 16.25
 optimisation between [QCUT,QGAM] = [ 11.38, 22.75] = [ 36.24,144.96] Ry 
 Optimized for a Real-space Cutoff    1.47 Angstroem

   l    n(q)    QCUT    max X(q) W(low)/X(q) W(high)/X(q)  e(spline) 
   2      9    11.376    60.317    0.17E-03    0.16E-04    0.16E-06
   2      9    11.376    55.921    0.17E-03    0.16E-04    0.17E-06
   0     10    11.376    51.690    0.45E-04    0.60E-04    0.21E-06
   0     10    11.376    30.015    0.37E-04    0.55E-04    0.19E-06
   1     10    11.376    18.849    0.83E-04    0.11E-03    0.92E-07
   1     10    11.376    14.624    0.69E-04    0.92E-04    0.82E-07
 Optimization of the real space projectors (new method)

 maximal supplied QI-value         = 24.76
 optimisation between [QCUT,QGAM] = [ 11.39, 22.77] = [ 36.31,145.25] Ry 
 Optimized for a Real-space Cutoff    1.10 Angstroem

   l    n(q)    QCUT    max X(q) W(low)/X(q) W(high)/X(q)  e(spline) 
   0      7    11.387    20.381    0.22E-03    0.48E-03    0.18E-06
   0      7    11.387    15.268    0.22E-03    0.52E-03    0.19E-06
   1      7    11.387     5.964    0.22E-03    0.73E-03    0.24E-06
   1      7    11.387     5.382    0.19E-03    0.60E-03    0.21E-06

 ----------------------------------------------------------------------------- 
|                                                                             |
|  ADVICE TO THIS USER RUNNING 'VASP/VAMP'   (HEAR YOUR MASTER'S VOICE ...):  |
|                                                                             |
|      You enforced a specific xc-type in the INCAR file,                     |
|      a different type was found on the POTCAR file                          |
|          I HOPE YOU KNOW, WHAT YOU ARE  DOING                               |
|                                                                             |
 ----------------------------------------------------------------------------- 

  PAW_PBE Ni 02Aug2007                  :
 energy of atom  1       EATOM=-1077.6739
 kinetic energy error for atom=    0.0030 (will be added to EATOM!!)
  PAW_PBE O 08Apr2002                   :
 energy of atom  2       EATOM= -432.3788
 kinetic energy error for atom=    0.0224 (will be added to EATOM!!)
 
 
 POSCAR: Ni2O3_Cc_scale_0_975_disp_0_15_round_2  
  positions in direct lattice
  No initial velocities read in
 exchange correlation table for  LEXCH =       14
   RHO(1)=    0.500       N(1)  =     2000
   RHO(2)=  100.500       N(2)  =     4000
 


--------------------------------------------------------------------------------------------------------


 ion  position               nearest neighbor table
   1  0.962  0.466  0.259-  67 1.42  33 1.76  38 1.88  60 2.32  28 2.71   8 2.83   6 2.85  18 3.04

   2  0.774  0.186  0.263-  36 1.64  40 1.84  37 1.90  38 1.90  17 2.76  15 2.89
   3  0.392  0.307  0.991-  54 1.65  35 1.84  39 1.97  40 2.11  20 2.68  14 2.79
   4  0.279  0.040  0.005-  59 1.55  58 1.76  39 1.86  55 2.18  30 2.76  19 2.79  25 3.01
   5  0.403  0.217  0.254-  39 1.66  42 1.86  37 1.86  44 2.10  22 2.56  16 3.09
   6  0.279  0.481  0.273-  68 1.73  34 2.00  42 2.02  67 2.22  28 2.67   1 2.85  21 2.96
   7  0.919  0.022  0.982-  48 1.64  57 1.86  41 1.87  58 1.88  24 2.68  10 2.74  25 2.74
   8  0.801  0.313  0.025-  33 1.58  41 1.89  49 1.94  40 2.02  10 2.73   1 2.83
   9  0.920  0.431  0.771-  50 1.50  72 1.64  45 1.80  79 2.22  10 2.81  16 3.01
  10  0.779  0.214  0.801-  49 1.46  50 1.55  48 1.91  52 2.12  41 2.16   8 2.73   7 2.74   9 2.81
                            13 2.91  11 3.08
  11  0.440  0.292  0.537-  52 1.57  51 1.69  47 1.94  42 2.08  13 2.75  28 2.85  10 3.08
  12  0.240  0.026  0.538-  70 1.32  43 1.70  71 1.83  51 2.15  30 2.72  15 2.76  27 2.78  13 2.92
                            17 3.04
  13  0.438  0.204  0.757-  51 1.72  49 1.91  56 2.01  54 2.13  11 2.75  10 2.91  12 2.92
  14  0.266  0.473  0.775-  79 1.50  80 1.88  54 2.10  46 2.12  20 2.67   3 2.79  31 2.81  29 2.88

  15  0.917  0.029  0.500-  69 1.51  70 1.76  36 1.78  53 2.03  32 2.57  12 2.76   2 2.89  17 2.96
                            25 3.01
  16  0.757  0.292  0.506-  45 1.78  37 1.88  53 1.95  52 1.96   9 3.01   5 3.09
  17  0.924  0.969  0.256-  62 1.75  36 1.76  43 1.80  57 2.15   2 2.76  15 2.96  12 3.04
  18  0.765  0.698  0.240-  60 1.45  64 1.78  61 1.91  62 1.91   1 3.04
  19  0.429  0.820  0.998-  64 1.74  78 1.75  59 1.77  63 2.01  30 2.69   4 2.79  29 2.98
  20  0.283  0.532  0.004-  35 1.46  79 1.64  34 1.87  63 2.07  14 2.67   3 2.68
  21  0.403  0.723  0.243-  63 1.86  66 1.86  68 1.96  61 2.22   6 2.96
  22  0.269  0.017  0.269-  44 1.55  58 1.90  43 2.00  66 2.28   5 2.56  27 3.05
  23  0.944  0.582  0.010-  65 1.58  34 1.87  72 1.89  33 2.19  24 2.67
  24  0.797  0.800  0.988-  65 1.43  57 1.90  73 2.02  64 2.29  23 2.67   7 2.68  26 2.69
  25  0.932  0.970  0.758-  55 1.38  48 1.62  74 1.76  69 1.93   7 2.74  32 2.87  26 2.94  30 3.00
                            15 3.01   4 3.01
  26  0.747  0.744  0.744-  73 1.55  74 1.59  76 1.66  24 2.69  25 2.94  27 2.97  32 3.02
  27  0.413  0.834  0.505-  66 1.68  76 1.83  71 1.85  75 2.00  12 2.78  26 2.97  22 3.05
  28  0.266  0.521  0.493-  47 1.56  46 1.81  67 1.84  75 2.25   6 2.67   1 2.71  11 2.85
  29  0.400  0.706  0.754-  80 1.53  78 1.87  75 1.93  73 1.97  14 2.88  19 2.98
  30  0.267  0.963  0.775-  56 1.65  78 1.68  70 1.90  55 1.91  19 2.69  12 2.72   4 2.76  25 3.00

  31  0.956  0.554  0.542-  46 1.76  77 1.86  45 1.98  60 2.23  14 2.81
  32  0.755  0.838  0.504-  69 1.64  77 1.94  76 1.99  61 2.03  15 2.57  25 2.87  26 3.02
  33  0.831  0.449  0.080-   8 1.58   1 1.76  23 2.19
  34  0.144  0.490  0.069-  23 1.87  20 1.87   6 2.00
  35  0.443  0.460  0.073-  20 1.46   3 1.84
  36  0.813  0.044  0.320-   2 1.64  17 1.76  15 1.78
  37  0.632  0.255  0.318-   5 1.86  16 1.88   2 1.90
  38  0.950  0.302  0.303-   1 1.88   2 1.90
  39  0.335  0.193  0.092-   5 1.66   4 1.86   3 1.97
  40  0.653  0.253  0.091-   2 1.84   8 2.02   3 2.11
  41  0.943  0.190  0.019-   7 1.87   8 1.89  10 2.16
  42  0.294  0.302  0.325-   5 1.86   6 2.02  11 2.08
  43  0.146  0.016  0.367-  12 1.70  17 1.80  22 2.00
  44  0.462  0.033  0.318-  22 1.55   5 2.10
  45  0.834  0.436  0.591-  16 1.78   9 1.80  31 1.98
  46  0.135  0.480  0.559-  31 1.76  28 1.81  14 2.12
  47  0.453  0.469  0.562-  28 1.56  11 1.94
  48  0.833  0.042  0.818-  25 1.62   7 1.64  10 1.91
  49  0.662  0.273  0.831-  10 1.46  13 1.91   8 1.94
  50  0.919  0.301  0.812-   9 1.50  10 1.55
  51  0.318  0.216  0.582-  11 1.69  13 1.72  12 2.15
  52  0.627  0.247  0.587-  11 1.57  16 1.96  10 2.12
  53  0.973  0.206  0.567-  16 1.95  15 2.03
  54  0.287  0.285  0.825-   3 1.65  14 2.10  13 2.13
  55  0.082  0.026  0.786-  25 1.38  30 1.91   4 2.18
  56  0.452  0.037  0.838-  30 1.65  13 2.01
  57  0.776  0.962  0.036-   7 1.86  24 1.90  17 2.15
  58  0.160  0.004  0.077-   4 1.76   7 1.88  22 1.90
  59  0.451  0.976  0.049-   4 1.55  19 1.77
  60  0.801  0.584  0.316-  18 1.45  31 2.23   1 2.32
  61  0.657  0.802  0.304-  18 1.91  32 2.03  21 2.22
  62  0.950  0.813  0.299-  17 1.75  18 1.91
  63  0.298  0.717  0.055-  21 1.86  19 2.01  20 2.07
  64  0.628  0.746  0.067-  19 1.74  18 1.78  24 2.29
  65  0.947  0.724  0.044-  24 1.43  23 1.58
  66  0.332  0.817  0.338-  27 1.68  21 1.86  22 2.28
  67  0.092  0.558  0.316-   1 1.42  28 1.84   6 2.22
  68  0.465  0.552  0.304-   6 1.73  21 1.96
  69  0.824  0.977  0.563-  15 1.51  32 1.64  25 1.93
  70  0.144  0.017  0.590-  12 1.32  15 1.76  30 1.90
  71  0.455  0.993  0.574-  12 1.83  27 1.85
  72  0.829  0.519  0.829-   9 1.64  23 1.89
  73  0.618  0.773  0.787-  26 1.55  29 1.97  24 2.02
  74  0.923  0.812  0.791-  26 1.59  25 1.76
  75  0.291  0.719  0.559-  29 1.93  27 2.00  28 2.25
  76  0.623  0.761  0.575-  26 1.66  27 1.83  32 1.99
  77  0.944  0.722  0.571-  31 1.86  32 1.94
  78  0.303  0.815  0.820-  30 1.68  19 1.75  29 1.87
  79  0.171  0.520  0.837-  14 1.50  20 1.64   9 2.22
  80  0.452  0.576  0.814-  29 1.53  14 1.88
 
  LATTYP: Found a simple monoclinic cell.
 ALAT       =    15.5489632352
 B/A-ratio  =     0.6987547874
 C/A-ratio  =     1.5833429408
 COS(beta)  =    -0.9717709890
  
  Lattice vectors:
  
 A1 = ( -12.0843842100,   0.0000000000,  -9.7845754100)
 A2 = (   0.0000000000, -10.8649125000,   0.0000000000)
 A3 = (  14.9385506700,   0.0000000000,  19.5691508200)


Analysis of symmetry for initial positions (statically):
=====================================================================
 Subroutine PRICEL returns:
 Original cell was already a primitive cell.
 

 Routine SETGRP: Setting up the symmetry group for a 
 simple monoclinic supercell.


 Subroutine GETGRP returns: Found  1 space group operations
 (whereof  1 operations were pure point group operations)
 out of a pool of  4 trial point group operations.


The static configuration has the point symmetry C_1 .


Analysis of symmetry for dynamics (positions and initial velocities):
=====================================================================
 Subroutine PRICEL returns:
 Original cell was already a primitive cell.
 

 Routine SETGRP: Setting up the symmetry group for a 
 simple monoclinic supercell.


 Subroutine GETGRP returns: Found  1 space group operations
 (whereof  1 operations were pure point group operations)
 out of a pool of  4 trial point group operations.


The dynamic configuration has the point symmetry C_1 .


Analysis of structural, dynamic, and magnetic symmetry:
=====================================================================
 Subroutine PRICEL returns:
 Original cell was already a primitive cell.
 

 Routine SETGRP: Setting up the symmetry group for a 
 simple monoclinic supercell.


 Subroutine GETGRP returns: Found  1 space group operations
 (whereof  1 operations were pure point group operations)
 out of a pool of  4 trial point group operations.


The magnetic configuration has the point symmetry C_1 .


 Subroutine INISYM returns: Found  1 space group operations
 (whereof  1 operations are pure point group operations),
 and found     1 'primitive' translations

 
 
 KPOINTS: Automatic mesh                          

Automatic generation of k-mesh.
Space group operators:
 irot       det(A)        alpha          n_x          n_y          n_z        tau_x        tau_y        tau_z
    1     1.000000     0.000000     1.000000     0.000000     0.000000     0.000000     0.000000     0.000000
 
 Subroutine IBZKPT returns following result:
 ===========================================
 
 Found     19 irreducible k-points:
 
 Following reciprocal coordinates:
            Coordinates               Weight
  0.000000  0.000000  0.000000      1.000000
  0.250000  0.000000  0.000000      2.000000
  0.500000  0.000000  0.000000      1.000000
  0.000000  0.333333  0.000000      2.000000
  0.250000  0.333333  0.000000      2.000000
  0.500000  0.333333  0.000000      2.000000
 -0.250000  0.333333 -0.000000      2.000000
  0.000000  0.000000  0.333333      2.000000
  0.250000  0.000000  0.333333      2.000000
  0.500000  0.000000  0.333333      2.000000
 -0.250000  0.000000  0.333333      2.000000
  0.000000  0.333333  0.333333      2.000000
  0.250000  0.333333  0.333333      2.000000
  0.500000  0.333333  0.333333      2.000000
 -0.250000  0.333333  0.333333      2.000000
  0.000000 -0.333333  0.333333      2.000000
  0.250000 -0.333333  0.333333      2.000000
  0.500000 -0.333333  0.333333      2.000000
 -0.250000 -0.333333  0.333333      2.000000
 
 Following cartesian coordinates:
            Coordinates               Weight
  0.000000  0.000000  0.000000      1.000000
  0.027085  0.000000  0.017650      2.000000
  0.054170  0.000000  0.035299      1.000000
  0.000000  0.030680  0.000000      2.000000
  0.027085  0.030680  0.017650      2.000000
  0.054170  0.030680  0.035299      2.000000
 -0.027085  0.030680 -0.017650      2.000000
  0.000000  0.000000  0.034067      2.000000
  0.027085  0.000000  0.051717      2.000000
  0.054170  0.000000  0.069367      2.000000
 -0.027085  0.000000  0.016418      2.000000
  0.000000  0.030680  0.034067      2.000000
  0.027085  0.030680  0.051717      2.000000
  0.054170  0.030680  0.069367      2.000000
 -0.027085  0.030680  0.016418      2.000000
  0.000000 -0.030680  0.034067      2.000000
  0.027085 -0.030680  0.051717      2.000000
  0.054170 -0.030680  0.069367      2.000000
 -0.027085 -0.030680  0.016418      2.000000
 


--------------------------------------------------------------------------------------------------------




 Dimension of arrays:
   k-points           NKPTS =     19   k-points in BZ     NKDIM =     19   number of bands    NBANDS=    416
   number of dos      NEDOS =    301   number of ions     NIONS =     80
   non local maximal  LDIM  =      6   non local SUM 2l+1 LMDIM =     18
   total plane-waves  NPLWV = 504000
   max r-space proj   IRMAX =   6945   max aug-charges    IRDMAX=  16847
   dimension x,y,z NGX =    70 NGY =   80 NGZ =   90
   dimension x,y,z NGXF=   140 NGYF=  160 NGZF=  180
   support grid    NGXF=   140 NGYF=  160 NGZF=  180
   ions per type =              32  48
   NGX,Y,Z   is equivalent  to a cutoff of  12.61, 12.24, 12.81 a.u.
   NGXF,Y,Z  is equivalent  to a cutoff of  25.22, 24.48, 25.62 a.u.

 SYSTEM =  unknown system                          
 POSCAR =  Ni2O3_Cc_scale_0_975_disp_0_15_round_2  

 Startparameter for this run:
   NWRITE =      1    write-flag & timer
   PREC   = accura    normal or accurate (medium, high low for compatibility)
   ISTART =      0    job   : 0-new  1-cont  2-samecut
   ICHARG =      2    charge: 1-file 2-atom 10-const
   ISPIN  =      2    spin polarized calculation?
   LNONCOLLINEAR =      F non collinear calculations
   LSORBIT =      F    spin-orbit coupling
   INIWAV =      1    electr: 0-lowe 1-rand  2-diag
   LASPH  =      F    aspherical Exc in radial PAW
   METAGGA=      F    non-selfconsistent MetaGGA calc.

 Electronic Relaxation 1
   ENCUT  =  500.0 eV  36.75 Ry    6.06 a.u.  16.83 19.81 21.29*2*pi/ulx,y,z
   ENINI  =  500.0     initial cutoff
   ENAUG  =  605.4 eV  augmentation charge cutoff
   NELM   =     80;   NELMIN=  2; NELMDL= -5     # of ELM steps 
   EDIFF  = 0.1E-04   stopping-criterion for ELM
   LREAL  =      T    real-space projection
   NLSPLINE    = F    spline interpolate recip. space projectors
   LCOMPAT=      F    compatible to vasp.4.4
   GGA_COMPAT  = T    GGA compatible to vasp.4.4-vasp.4.6
   LMAXPAW     = -100 max onsite density
   LMAXMIX     =    2 max onsite mixed and CHGCAR
   VOSKOWN=      1    Vosko Wilk Nusair interpolation
   ROPT   =   -0.00025  -0.00025
 Ionic relaxation
   EDIFFG = 0.1E-03   stopping-criterion for IOM
   NSW    =      0    number of steps for IOM
   NBLOCK =      1;   KBLOCK =      1    inner block; outer block 
   IBRION =     -1    ionic relax: 0-MD 1-quasi-New 2-CG
   NFREE  =      0    steps in history (QN), initial steepest desc. (CG)
   ISIF   =      2    stress and relaxation
   IWAVPR =     10    prediction:  0-non 1-charg 2-wave 3-comb
   ISYM   =      2    0-nonsym 1-usesym 2-fastsym
   LCORR  =      T    Harris-Foulkes like correction to forces

   POTIM  = 0.5000    time-step for ionic-motion
   TEIN   =    0.0    initial temperature
   TEBEG  =    0.0;   TEEND  =   0.0 temperature during run
   SMASS  =  -3.00    Nose mass-parameter (am)
   estimated Nose-frequenzy (Omega)   =  0.10E-29 period in steps =****** mass=  -0.195E-26a.u.
   SCALEE = 1.0000    scale energy and forces
   NPACO  =    256;   APACO  = 16.0  distance and # of slots for P.C.
   PSTRESS=    0.0 pullay stress

  Mass of Ions in am
   POMASS =  58.69 16.00
  Ionic Valenz
   ZVAL   =  10.00  6.00
  Atomic Wigner-Seitz radii
   RWIGS  =   1.15  0.73
  virtual crystal weights 
   VCA    =   1.00  1.00
   NELECT =     608.0000    total number of electrons
   NUPDOWN=      -1.0000    fix difference up-down

 DOS related values:
   EMIN   =  10.00;   EMAX   =-10.00  energy-range for DOS
   EFERMI =   0.00
   ISMEAR =     0;   SIGMA  =   0.05  broadening in eV -4-tet -1-fermi 0-gaus

 Electronic relaxation 2 (details)
   IALGO  =     38    algorithm
   LDIAG  =      T    sub-space diagonalisation (order eigenvalues)
   LSUBROT=      F    optimize rotation matrix (better conditioning)
   TURBO    =      0    0=normal 1=particle mesh
   IRESTART =      0    0=no restart 2=restart with 2 vectors
   NREBOOT  =      0    no. of reboots
   NMIN     =      0    reboot dimension
   EREF     =   0.00    reference energy to select bands
   IMIX   =      4    mixing-type and parameters
     AMIX     =   0.40;   BMIX     =  1.00
     AMIX_MAG =   1.60;   BMIX_MAG =  1.00
     AMIN     =   0.10
     WC   =   100.;   INIMIX=   1;  MIXPRE=   1;  MAXMIX= -45

 Intra band minimization:
   WEIMIN = 0.0000     energy-eigenvalue tresh-hold
   EBREAK =  0.60E-08  absolut break condition
   DEPER  =   0.30     relativ break condition  

   TIME   =   0.40     timestep for ELM

  volume/ion in A,a.u.               =      12.27        82.77
  Fermi-wavevector in a.u.,A,eV,Ry     =   1.395670  2.637433 26.502704  1.947894
  Thomas-Fermi vector in A             =   2.519099
 
 Write flags
   LWAVE        =      F    write WAVECAR
   LDOWNSAMPLE  =      F    k-point downsampling of WAVECAR
   LCHARG       =      T    write CHGCAR
   LVTOT        =      F    write LOCPOT, total local potential
   LVHAR        =      F    write LOCPOT, Hartree potential only
   LELF         =      F    write electronic localiz. function (ELF)
   LORBIT       =      0    0 simple, 1 ext, 2 COOP (PROOUT), +10 PAW based schemes


 Dipole corrections
   LMONO  =      F    monopole corrections only (constant potential shift)
   LDIPOL =      F    correct potential (dipole corrections)
   IDIPOL =      0    1-x, 2-y, 3-z, 4-all directions 
   EPSILON=  1.0000000 bulk dielectric constant

 Exchange correlation treatment:
   GGA     =    PS    GGA type
   LEXCH   =    14    internal setting for exchange type
   VOSKOWN=      1    Vosko Wilk Nusair interpolation
   LHFCALC =     F    Hartree Fock is set to
   LHFONE  =     F    Hartree Fock one center treatment
   AEXX    =    0.0000 exact exchange contribution

 Linear response parameters
   LEPSILON=     F    determine dielectric tensor
   LRPA    =     F    only Hartree local field effects (RPA)
   LNABLA  =     F    use nabla operator in PAW spheres
   LVEL    =     F    velocity operator in full k-point grid
   LINTERFAST=   F  fast interpolation
   KINTER  =     0    interpolate to denser k-point grid
   CSHIFT  =0.1000    complex shift for real part using Kramers Kronig
   OMEGAMAX=  -1.0    maximum frequency
   DEG_THRESHOLD= 0.2000000E-02 threshold for treating states as degnerate
   RTIME   =   -0.100 relaxation time in fs
  (WPLASMAI=    0.000 imaginary part of plasma frequency in eV, 0.658/RTIME)
   DFIELD  = 0.0000000 0.0000000 0.0000000 field for delta impulse in time
 
 Orbital magnetization related:
   ORBITALMAG=     F  switch on orbital magnetization
   LCHIMAG   =     F  perturbation theory with respect to B field
   DQ        =  0.001000  dq finite difference perturbation B field
   LLRAUG    =     F  two centre corrections for induced B field



--------------------------------------------------------------------------------------------------------


 Static calculation
 charge density and potential will be updated during run
 spin polarized calculation
 Variant of blocked Davidson
 Davidson routine will perform the subspace rotation
 perform sub-space diagonalisation
    after iterative eigenvector-optimisation
 modified Broyden-mixing scheme, WC =      100.0
 initial mixing is a Kerker type mixing with AMIX =  0.4000 and BMIX =      1.0000
 Hartree-type preconditioning will be used
 using additional bands          112
 real space projection scheme for non local part
 use partial core corrections
 calculate Harris-corrections to forces 
   (improved forces if not selfconsistent)
 use gradient corrections 
 use of overlap-Matrix (Vanderbilt PP)
 Gauss-broadening in eV      SIGMA  =   0.05


--------------------------------------------------------------------------------------------------------


  energy-cutoff  :      500.00
  volume of cell :      981.25
      direct lattice vectors                 reciprocal lattice vectors
     9.230217750  0.000000000  0.000000000     0.108339806  0.000000000  0.070598890
     0.000000000 10.864912500  0.000000000     0.000000000  0.092039397  0.000000000
    -6.376051290  0.000000000  9.784575410     0.000000000  0.000000000  0.102201675

  length of vectors
     9.230217750 10.864912500 11.678696246     0.129312477  0.092039397  0.102201675


 
 k-points in units of 2pi/SCALE and weight: Automatic mesh                          
   0.00000000  0.00000000  0.00000000       0.028
   0.02708495  0.00000000  0.01764972       0.056
   0.05416990  0.00000000  0.03529944       0.028
   0.00000000  0.03067980  0.00000000       0.056
   0.02708495  0.03067980  0.01764972       0.056
   0.05416990  0.03067980  0.03529944       0.056
  -0.02708495  0.03067980 -0.01764972       0.056
   0.00000000  0.00000000  0.03406723       0.056
   0.02708495  0.00000000  0.05171695       0.056
   0.05416990  0.00000000  0.06936667       0.056
  -0.02708495  0.00000000  0.01641750       0.056
   0.00000000  0.03067980  0.03406723       0.056
   0.02708495  0.03067980  0.05171695       0.056
   0.05416990  0.03067980  0.06936667       0.056
  -0.02708495  0.03067980  0.01641750       0.056
   0.00000000 -0.03067980  0.03406723       0.056
   0.02708495 -0.03067980  0.05171695       0.056
   0.05416990 -0.03067980  0.06936667       0.056
  -0.02708495 -0.03067980  0.01641750       0.056
 
 k-points in reciprocal lattice and weights: Automatic mesh                          
   0.00000000  0.00000000  0.00000000       0.028
   0.25000000  0.00000000  0.00000000       0.056
   0.50000000  0.00000000  0.00000000       0.028
   0.00000000  0.33333333  0.00000000       0.056
   0.25000000  0.33333333  0.00000000       0.056
   0.50000000  0.33333333  0.00000000       0.056
  -0.25000000  0.33333333 -0.00000000       0.056
   0.00000000  0.00000000  0.33333333       0.056
   0.25000000  0.00000000  0.33333333       0.056
   0.50000000  0.00000000  0.33333333       0.056
  -0.25000000  0.00000000  0.33333333       0.056
   0.00000000  0.33333333  0.33333333       0.056
   0.25000000  0.33333333  0.33333333       0.056
   0.50000000  0.33333333  0.33333333       0.056
  -0.25000000  0.33333333  0.33333333       0.056
   0.00000000 -0.33333333  0.33333333       0.056
   0.25000000 -0.33333333  0.33333333       0.056
   0.50000000 -0.33333333  0.33333333       0.056
  -0.25000000 -0.33333333  0.33333333       0.056
 
 position of ions in fractional coordinates (direct lattice) 
   0.96204802  0.46599580  0.25911839
   0.77429504  0.18581559  0.26334615
   0.39186761  0.30724276  0.99148360
   0.27889786  0.04035119  0.00494271
   0.40278558  0.21735918  0.25368667
   0.27943664  0.48109367  0.27305416
   0.91872286  0.02179838  0.98207210
   0.80122134  0.31326727  0.02454149
   0.92048054  0.43123617  0.77135851
   0.77945100  0.21376442  0.80092782
   0.43985541  0.29190551  0.53721287
   0.24009681  0.02611831  0.53830282
   0.43787970  0.20398854  0.75725489
   0.26599594  0.47312211  0.77510700
   0.91712253  0.02869395  0.50034823
   0.75743728  0.29229497  0.50568111
   0.92407981  0.96911245  0.25591974
   0.76530887  0.69770496  0.24028321
   0.42939798  0.81981596  0.99824422
   0.28340013  0.53240843  0.00407638
   0.40288333  0.72346018  0.24339134
   0.26907285  0.01702023  0.26913762
   0.94386796  0.58207582  0.00953712
   0.79692962  0.79981207  0.98772218
   0.93209764  0.96964416  0.75836919
   0.74659352  0.74442231  0.74370650
   0.41250156  0.83406550  0.50511357
   0.26633063  0.52146648  0.49305112
   0.39965892  0.70615684  0.75428351
   0.26747329  0.96347774  0.77464975
   0.95552083  0.55448718  0.54230065
   0.75455554  0.83830189  0.50409598
   0.83060522  0.44916451  0.08000165
   0.14401103  0.48978219  0.06884930
   0.44309759  0.46021254  0.07299261
   0.81337346  0.04361361  0.32009875
   0.63210255  0.25482419  0.31765228
   0.95041589  0.30180262  0.30298550
   0.33503050  0.19254129  0.09190444
   0.65304400  0.25329418  0.09135020
   0.94294683  0.19041021  0.01944328
   0.29399425  0.30246924  0.32485007
   0.14570079  0.01620038  0.36666216
   0.46166549  0.03300620  0.31806925
   0.83427749  0.43647717  0.59106144
   0.13502324  0.47979906  0.55918022
   0.45300013  0.46941731  0.56226498
   0.83299264  0.04199886  0.81783934
   0.66206955  0.27270368  0.83127228
   0.91916712  0.30071180  0.81209477
   0.31826397  0.21557426  0.58150091
   0.62741321  0.24743157  0.58724807
   0.97343223  0.20550770  0.56665124
   0.28685843  0.28502759  0.82459594
   0.08219390  0.02586064  0.78645061
   0.45160614  0.03730193  0.83764682
   0.77553570  0.96230645  0.03613438
   0.16000724  0.00388066  0.07715756
   0.45115855  0.97578135  0.04880642
   0.80122452  0.58401761  0.31647424
   0.65702822  0.80194087  0.30412577
   0.95003817  0.81284501  0.29928482
   0.29841487  0.71689551  0.05481237
   0.62773693  0.74558489  0.06749277
   0.94726539  0.72353944  0.04386837
   0.33227662  0.81740471  0.33804422
   0.09199538  0.55830995  0.31643465
   0.46486859  0.55222939  0.30388738
   0.82386399  0.97723627  0.56331702
   0.14423216  0.01734446  0.58976108
   0.45502203  0.99280361  0.57432497
   0.82942535  0.51937162  0.82914017
   0.61803443  0.77296197  0.78676467
   0.92341430  0.81221519  0.79091568
   0.29054180  0.71914393  0.55877838
   0.62301476  0.76076676  0.57515623
   0.94377451  0.72160359  0.57077206
   0.30340402  0.81458876  0.81981316
   0.17146765  0.52006002  0.83716036
   0.45209404  0.57604047  0.81429313
 
 position of ions in cartesian coordinates  (Angst):
   7.22776057  5.06300359  2.53536343
   5.46780326  2.01887013  2.57673026
  -2.70472692  3.33816570  9.70124605
   2.54277301  0.43841215  0.04836232
   2.10027939  2.36158847  2.48221635
   0.83825371  5.22704063  2.67171902
   2.21826997  0.23683749  9.60915852
   7.23896964  3.40362148  0.24012806
   3.57801440  4.68534325  7.54741551
   2.08774560  2.32253172  7.83673865
   0.63466440  3.17152782  5.25639984
  -1.21610055  0.28377315  5.26706454
  -0.78657104  2.21631764  7.40941758
  -2.48692154  5.14043033  7.58409289
   5.27499468  0.31175726  4.89569499
   3.76706233  3.17575927  4.94787495
   6.89770048 10.52932197  2.50406599
   5.53190945  7.58050334  2.35106919
  -2.40141949  8.90722867  9.76739585
   2.58985370  5.78457101  0.03988565
   2.16682520  7.86033155  2.38148092
   0.76756573  0.18492331  2.63339734
   8.65129763  6.32420285  0.09331667
   1.05806664  8.68988816  9.66444215
   3.76806333 10.53509895  7.42032053
   2.14930997  8.08808326  7.27685233
   0.58684919  9.06204868  4.94232182
  -0.68542952  5.66568768  4.82429586
  -1.12041149  7.67233228  7.38034388
  -2.47036983 10.46810134  7.57961890
   5.36192857  6.02445469  5.30618160
   3.75057012  9.10807668  4.93236513
   7.15657242  4.88013310  0.78278218
   0.89026650  5.32144064  0.67366117
   3.62448262  5.00016898  0.71420170
   5.46664810  0.47385806  3.13203036
   3.80907695  2.76864253  3.10809269
   6.84069453  3.27905906  2.96458447
   2.50641704  2.09194427  0.89924592
   5.44528476  2.75201910  0.89382292
   8.57963322  2.06879027  0.19024424
   0.64237024  3.28630183  3.17852001
  -0.99300672  0.17601571  3.58763355
   2.23324715  0.35860947  3.11217256
   3.93192484  4.74228626  5.78328523
  -2.31906786  5.21297480  5.47134103
   0.59625949  5.10017800  5.50152410
   2.47411787  0.45631394  8.00221070
   0.81081142  2.96290162  8.13364631
   3.30615476  3.26720739  7.94600252
  -0.77003388  2.34219547  5.68973950
   2.04683673  2.68832236  5.74597303
   5.37199408  2.23282318  5.54444179
  -2.60990023  3.09679983  8.06832116
  -4.25578183  0.28097359  7.69508530
  -1.17245608  0.40528221  8.19601848
   6.92796872 10.45537538  0.35355957
   0.98494111  0.04216303  0.75495396
   3.85309942 10.60177899  0.47755010
   5.37762080  6.34530023  3.09656607
   4.12539203  8.71301738  2.97574153
   6.86080382  8.83148991  2.92837489
   2.40494775  7.78900699  0.53631577
   5.36381119  8.10071459  0.66038810
   8.46375884  7.86119271  0.42923337
   0.91159827  8.88103065  3.30761916
  -1.16846617  6.06598875  3.09617870
   2.35323679  5.99992400  2.97340899
   4.01270581 10.61758657  5.51181786
  -2.42905265  0.18844604  5.77056176
   0.53802695 10.78672435  5.61952598
   2.36913634  5.64292721  8.11278452
   0.68814048  8.39816417  7.69815824
   3.48039612  8.82464697  7.73877411
  -0.88103553  7.81343587  5.46740920
   2.08333627  8.26566428  5.62765950
   5.07197230  7.84015987  5.58476226
  -2.42668559  8.85043560  8.02152369
  -3.75509365  5.65040661  8.19125867
  -1.01904833  6.25862930  7.96751254
 


--------------------------------------------------------------------------------------------------------


 k-point  1 :   0.0000 0.0000 0.0000  plane waves:   24843
 k-point  2 :   0.2500 0.0000 0.0000  plane waves:   24890
 k-point  3 :   0.5000 0.0000 0.0000  plane waves:   24924
 k-point  4 :   0.0000 0.3333 0.0000  plane waves:   24968
 k-point  5 :   0.2500 0.3333 0.0000  plane waves:   24927
 k-point  6 :   0.5000 0.3333 0.0000  plane waves:   24910
 k-point  7 :  -0.2500 0.3333-0.0000  plane waves:   24927
 k-point  8 :   0.0000 0.0000 0.3333  plane waves:   24872
 k-point  9 :   0.2500 0.0000 0.3333  plane waves:   24913
 k-point 10 :   0.5000 0.0000 0.3333  plane waves:   24924
 k-point 11 :  -0.2500 0.0000 0.3333  plane waves:   24928
 k-point 12 :   0.0000 0.3333 0.3333  plane waves:   24903
 k-point 13 :   0.2500 0.3333 0.3333  plane waves:   24901
 k-point 14 :   0.5000 0.3333 0.3333  plane waves:   24924
 k-point 15 :  -0.2500 0.3333 0.3333  plane waves:   24916
 k-point 16 :   0.0000-0.3333 0.3333  plane waves:   24903
 k-point 17 :   0.2500-0.3333 0.3333  plane waves:   24901
 k-point 18 :   0.5000-0.3333 0.3333  plane waves:   24924
 k-point 19 :  -0.2500-0.3333 0.3333  plane waves:   24916

 maximum and minimum number of plane-waves per node :     24968    24843

 maximum number of plane-waves:     24968
 maximum index in each direction: 
   IXMAX=   17   IYMAX=   20   IZMAX=   21
   IXMIN=  -17   IYMIN=  -20   IZMIN=  -21

 The following grids will avoid any aliasing or wrap around errors in the Hartre
 e energy
  - symmetry arguments have not been applied
  - exchange correlation energies might require even more grid points
  - we recommend to set PREC=Normal or Accurate and rely on VASP defaults
 NGX is ok and might be reduce to    70
 WARNING: aliasing errors must be expected set NGY to    84 to avoid them
 NGZ is ok and might be reduce to    90

 serial   3D FFT for wavefunctions
 parallel 3D FFT for charge:
    minimum data exchange during FFTs selected (reduces bandwidth)


 total amount of memory used by VASP MPI-rank0   567394. kBytes
=======================================================================

   base      :      30000. kBytes
   nonlr-proj:      52681. kBytes
   fftplans  :      10810. kBytes
   grid      :      61419. kBytes
   one-center:       2488. kBytes
   wavefun   :     409996. kBytes
 
     INWAV:  cpu time    0.0000: real time    0.0000
 Broyden mixing: mesh for mixing (old mesh)
   NGX = 33   NGY = 39   NGZ = 43
  (NGX  =140   NGY  =160   NGZ  =180)
  gives a total of  55341 points

 initial charge density was supplied:
 charge density of overlapping atoms calculated
 number of electron     608.0000000 magnetization      80.0000000
 keeping initial charge density in first step


--------------------------------------------------------------------------------------------------------


 Maximum index for non-local projection operator         6708
 Maximum index for augmentation-charges         1204 (set IRDMAX)


--------------------------------------------------------------------------------------------------------


 First call to EWALD:  gamma=   0.178
 Maximum number of real-space cells 3x 3x 3
 Maximum number of reciprocal cells 3x 3x 3

    FEWALD:  cpu time    0.0036: real time    0.0036


--------------------------------------- Iteration      1(   1)  ---------------------------------------


    POTLOK:  cpu time    0.2919: real time    0.3361
    SETDIJ:  cpu time    0.0269: real time    0.0270
     EDDAV:  cpu time  127.2982: real time  127.6260
    --------------------------------------------
      LOOP:  cpu time  127.6197: real time  127.9918

 eigenvalue-minimisations  : 31616
 total energy-change (2. order) : 0.7559205E+04  (-0.2574214E+05)
 number of electron     608.0000000 magnetization      80.0000000
 augmentation part      608.0000000 magnetization      80.0000000

 Free energy of the ion-electron system (eV)
  ---------------------------------------------------
  alpha Z        PSCENC =      1699.99176552
  Ewald energy   TEWEN  =    -35631.61246523
  -Hartree energ DENC   =    -20317.51307253
  -exchange      EXHF   =         0.00000000
  -V(xc)+E(xc)   XCENC  =      2385.57877644
  PAW double counting   =     47387.14975297   -49597.44882166
  entropy T*S    EENTRO =        -0.01302629
  eigenvalues    EBANDS =      6495.85860864
  atomic energy  EATOM  =     55137.21312455
  Solvation  Ediel_sol  =         0.00000000
  ---------------------------------------------------
  free energy    TOTEN  =      7559.20464241 eV

  energy without entropy =     7559.21766870  energy(sigma->0) =     7559.21115556


--------------------------------------------------------------------------------------------------------




--------------------------------------- Iteration      1(   2)  ---------------------------------------


     EDDAV:  cpu time  126.7190: real time  127.0192
    --------------------------------------------
      LOOP:  cpu time  126.7188: real time  127.0191

 eigenvalue-minimisations  : 31616
 total energy-change (2. order) :-0.6392490E+04  (-0.5777919E+04)
 number of electron     608.0000000 magnetization      80.0000000
 augmentation part      608.0000000 magnetization      80.0000000

 Free energy of the ion-electron system (eV)
  ---------------------------------------------------
  alpha Z        PSCENC =      1699.99176552
  Ewald energy   TEWEN  =    -35631.61246523
  -Hartree energ DENC   =    -20317.51307253
  -exchange      EXHF   =         0.00000000
  -V(xc)+E(xc)   XCENC  =      2385.57877644
  PAW double counting   =     47387.14975297   -49597.44882166
  entropy T*S    EENTRO =        -0.04086901
  eigenvalues    EBANDS =       103.39638729
  atomic energy  EATOM  =     55137.21312455
  Solvation  Ediel_sol  =         0.00000000
  ---------------------------------------------------
  free energy    TOTEN  =      1166.71457833 eV

  energy without entropy =     1166.75544735  energy(sigma->0) =     1166.73501284


--------------------------------------------------------------------------------------------------------




--------------------------------------- Iteration      1(   3)  ---------------------------------------


     EDDAV:  cpu time  129.3980: real time  129.7046
    --------------------------------------------
      LOOP:  cpu time  129.3983: real time  129.7049

 eigenvalue-minimisations  : 32432
 total energy-change (2. order) :-0.1594772E+04  (-0.1426251E+04)
 number of electron     608.0000000 magnetization      80.0000000
 augmentation part      608.0000000 magnetization      80.0000000

 Free energy of the ion-electron system (eV)
  ---------------------------------------------------
  alpha Z        PSCENC =      1699.99176552
  Ewald energy   TEWEN  =    -35631.61246523
  -Hartree energ DENC   =    -20317.51307253
  -exchange      EXHF   =         0.00000000
  -V(xc)+E(xc)   XCENC  =      2385.57877644
  PAW double counting   =     47387.14975297   -49597.44882166
  entropy T*S    EENTRO =        -0.11020798
  eigenvalues    EBANDS =     -1491.30625272
  atomic energy  EATOM  =     55137.21312455
  Solvation  Ediel_sol  =         0.00000000
  ---------------------------------------------------
  free energy    TOTEN  =      -428.05740064 eV

  energy without entropy =     -427.94719266  energy(sigma->0) =     -428.00229665


--------------------------------------------------------------------------------------------------------




--------------------------------------- Iteration      1(   4)  ---------------------------------------


     EDDAV:  cpu time  139.2582: real time  139.5887
    --------------------------------------------
      LOOP:  cpu time  139.2580: real time  139.5884

 eigenvalue-minimisations  : 35712
 total energy-change (2. order) :-0.1917281E+03  (-0.1839291E+03)
 number of electron     608.0000000 magnetization      80.0000000
 augmentation part      608.0000000 magnetization      80.0000000

 Free energy of the ion-electron system (eV)
  ---------------------------------------------------
  alpha Z        PSCENC =      1699.99176552
  Ewald energy   TEWEN  =    -35631.61246523
  -Hartree energ DENC   =    -20317.51307253
  -exchange      EXHF   =         0.00000000
  -V(xc)+E(xc)   XCENC  =      2385.57877644
  PAW double counting   =     47387.14975297   -49597.44882166
  entropy T*S    EENTRO =        -0.11669953
  eigenvalues    EBANDS =     -1683.02783419
  atomic energy  EATOM  =     55137.21312455
  Solvation  Ediel_sol  =         0.00000000
  ---------------------------------------------------
  free energy    TOTEN  =      -619.78547366 eV

  energy without entropy =     -619.66877413  energy(sigma->0) =     -619.72712390


--------------------------------------------------------------------------------------------------------




--------------------------------------- Iteration      1(   5)  ---------------------------------------


     EDDAV:  cpu time  137.5037: real time  137.8294
    CHARGE:  cpu time    5.7221: real time    5.7356
    MIXING:  cpu time    0.0051: real time    0.0052
    --------------------------------------------
      LOOP:  cpu time  143.2283: real time  143.5676

 eigenvalue-minimisations  : 35152
 total energy-change (2. order) :-0.5712739E+01  (-0.5670657E+01)
 number of electron     608.0000021 magnetization      83.2659683
 augmentation part      199.7101967 magnetization      59.4602019

 Broyden mixing:
  rms(total) = 0.17854E+02    rms(broyden)= 0.17853E+02
  rms(prec ) = 0.19814E+02
  weight for this iteration     100.00

 Free energy of the ion-electron system (eV)
  ---------------------------------------------------
  alpha Z        PSCENC =      1699.99176552
  Ewald energy   TEWEN  =    -35631.61246523
  -Hartree energ DENC   =    -20317.51307253
  -exchange      EXHF   =         0.00000000
  -V(xc)+E(xc)   XCENC  =      2385.57877644
  PAW double counting   =     47387.14975297   -49597.44882166
  entropy T*S    EENTRO =        -0.11587359
  eigenvalues    EBANDS =     -1688.74139926
  atomic energy  EATOM  =     55137.21312455
  Solvation  Ediel_sol  =         0.00000000
  ---------------------------------------------------
  free energy    TOTEN  =      -625.49821279 eV

  energy without entropy =     -625.38233920  energy(sigma->0) =     -625.44027600


--------------------------------------------------------------------------------------------------------




--------------------------------------- Iteration      1(   6)  ---------------------------------------


    POTLOK:  cpu time    0.2612: real time    0.2618
    SETDIJ:  cpu time    0.0277: real time    0.0278
     EDDAV:  cpu time  173.8888: real time  174.3010
    CHARGE:  cpu time    5.6702: real time    5.6836
    MIXING:  cpu time    0.0053: real time    0.0054
    --------------------------------------------
      LOOP:  cpu time  179.8533: real time  180.2795

 eigenvalue-minimisations  : 47344
 total energy-change (2. order) :-0.5981661E+02  (-0.1281584E+03)
 number of electron     608.0000038 magnetization      73.9286728
 augmentation part      258.2256113 magnetization      66.2322497

 Broyden mixing:
  rms(total) = 0.24832E+02    rms(broyden)= 0.24831E+02
  rms(prec ) = 0.27059E+02
  weight for this iteration     100.00

 eigenvalues of (default mixing * dielectric matrix)
  average eigenvalue GAMMA=   0.2818
  0.2818

 Free energy of the ion-electron system (eV)
  ---------------------------------------------------
  alpha Z        PSCENC =      1699.99176552
  Ewald energy   TEWEN  =    -35631.61246523
  -Hartree energ DENC   =    -19467.56677620
  -exchange      EXHF   =         0.00000000
  -V(xc)+E(xc)   XCENC  =      2396.69494972
  PAW double counting   =     53522.26347289   -55452.83276279
  entropy T*S    EENTRO =        -0.07457009
  eigenvalues    EBANDS =     -2889.39155630
  atomic energy  EATOM  =     55137.21312455
  Solvation  Ediel_sol  =         0.00000000
  ---------------------------------------------------
  free energy    TOTEN  =      -685.31481792 eV

  energy without entropy =     -685.24024783  energy(sigma->0) =     -685.27753287


--------------------------------------------------------------------------------------------------------




--------------------------------------- Iteration      1(   7)  ---------------------------------------


    POTLOK:  cpu time    0.2505: real time    0.2511
    SETDIJ:  cpu time    0.0280: real time    0.0280
     EDDAV:  cpu time  163.1506: real time  163.5372
    CHARGE:  cpu time    5.6938: real time    5.7073
    MIXING:  cpu time    0.0057: real time    0.0057
    --------------------------------------------
      LOOP:  cpu time  169.1286: real time  169.5293

 eigenvalue-minimisations  : 43856
 total energy-change (2. order) : 0.2188337E+03  (-0.4718847E+02)
 number of electron     608.0000034 magnetization      63.3677195
 augmentation part      230.1159372 magnetization      49.7523347

 Broyden mixing:
  rms(total) = 0.86901E+01    rms(broyden)= 0.86879E+01
  rms(prec ) = 0.10338E+02
  weight for this iteration     100.00

 eigenvalues of (default mixing * dielectric matrix)
  average eigenvalue GAMMA=   0.5894
  0.5894  0.5894

 Free energy of the ion-electron system (eV)
  ---------------------------------------------------
  alpha Z        PSCENC =      1699.99176552
  Ewald energy   TEWEN  =    -35631.61246523
  -Hartree energ DENC   =    -19885.37271141
  -exchange      EXHF   =         0.00000000
  -V(xc)+E(xc)   XCENC  =      2377.52951079
  PAW double counting   =     56208.49964225   -58390.64883337
  entropy T*S    EENTRO =        -0.07357089
  eigenvalues    EBANDS =     -1982.00755902
  atomic energy  EATOM  =     55137.21312455
  Solvation  Ediel_sol  =         0.00000000
  ---------------------------------------------------
  free energy    TOTEN  =      -466.48109680 eV

  energy without entropy =     -466.40752592  energy(sigma->0) =     -466.44431136


--------------------------------------------------------------------------------------------------------




--------------------------------------- Iteration      1(   8)  ---------------------------------------


    POTLOK:  cpu time    0.2578: real time    0.2584
    SETDIJ:  cpu time    0.0279: real time    0.0279
     EDDAV:  cpu time  171.0751: real time  171.4803
    CHARGE:  cpu time    5.6081: real time    5.6214
    MIXING:  cpu time    0.0058: real time    0.0058
    --------------------------------------------
      LOOP:  cpu time  176.9747: real time  177.3940

 eigenvalue-minimisations  : 46336
 total energy-change (2. order) :-0.1857168E+03  (-0.2286137E+02)
 number of electron     608.0000032 magnetization      56.2105790
 augmentation part      220.3099156 magnetization      49.1883308

 Broyden mixing:
  rms(total) = 0.21852E+02    rms(broyden)= 0.21851E+02
  rms(prec ) = 0.28349E+02
  weight for this iteration     100.00

 eigenvalues of (default mixing * dielectric matrix)
  average eigenvalue GAMMA=   0.4768
  0.7358  0.5730  0.1217

 Free energy of the ion-electron system (eV)
  ---------------------------------------------------
  alpha Z        PSCENC =      1699.99176552
  Ewald energy   TEWEN  =    -35631.61246523
  -Hartree energ DENC   =    -19782.24275105
  -exchange      EXHF   =         0.00000000
  -V(xc)+E(xc)   XCENC  =      2366.40659341
  PAW double counting   =     58672.18690246   -60937.38458718
  entropy T*S    EENTRO =        -0.05071278
  eigenvalues    EBANDS =     -2176.70580055
  atomic energy  EATOM  =     55137.21312455
  Solvation  Ediel_sol  =         0.00000000
  ---------------------------------------------------
  free energy    TOTEN  =      -652.19793084 eV

  energy without entropy =     -652.14721806  energy(sigma->0) =     -652.17257445


--------------------------------------------------------------------------------------------------------




--------------------------------------- Iteration      1(   9)  ---------------------------------------


    POTLOK:  cpu time    0.2592: real time    0.2598
    SETDIJ:  cpu time    0.0286: real time    0.0287
     EDDAV:  cpu time  175.2261: real time  175.6411
    CHARGE:  cpu time    5.7549: real time    5.7685
    MIXING:  cpu time    0.0062: real time    0.0062
    --------------------------------------------
      LOOP:  cpu time  181.2750: real time  181.7044

 eigenvalue-minimisations  : 47824
 total energy-change (2. order) : 0.9961262E+02  (-0.4286878E+02)
 number of electron     608.0000025 magnetization      50.8588961
 augmentation part      223.4334150 magnetization      41.2284182

 Broyden mixing:
  rms(total) = 0.14941E+02    rms(broyden)= 0.14940E+02
  rms(prec ) = 0.19413E+02
  weight for this iteration     100.00

 eigenvalues of (default mixing * dielectric matrix)
  average eigenvalue GAMMA=   0.4520
  0.9230  0.5451  0.1700  0.1700

 Free energy of the ion-electron system (eV)
  ---------------------------------------------------
  alpha Z        PSCENC =      1699.99176552
  Ewald energy   TEWEN  =    -35631.61246523
  -Hartree energ DENC   =    -19784.99468126
  -exchange      EXHF   =         0.00000000
  -V(xc)+E(xc)   XCENC  =      2363.76676053
  PAW double counting   =     60304.58732028   -62614.43657916
  entropy T*S    EENTRO =        -0.07989919
  eigenvalues    EBANDS =     -2027.02065401
  atomic energy  EATOM  =     55137.21312455
  Solvation  Ediel_sol  =         0.00000000
  ---------------------------------------------------
  free energy    TOTEN  =      -552.58530798 eV

  energy without entropy =     -552.50540879  energy(sigma->0) =     -552.54535838


--------------------------------------------------------------------------------------------------------




--------------------------------------- Iteration      1(  10)  ---------------------------------------


    POTLOK:  cpu time    0.2571: real time    0.2577
    SETDIJ:  cpu time    0.0279: real time    0.0279
     EDDAV:  cpu time  155.0404: real time  155.4079
    CHARGE:  cpu time    5.7387: real time    5.7523
    MIXING:  cpu time    0.0063: real time    0.0063
    --------------------------------------------
      LOOP:  cpu time  161.0703: real time  161.4521

 eigenvalue-minimisations  : 41232
 total energy-change (2. order) : 0.6049612E+02  (-0.1946624E+02)
 number of electron     608.0000033 magnetization      45.6117658
 augmentation part      225.8485121 magnetization      35.5838565

 Broyden mixing:
  rms(total) = 0.10437E+02    rms(broyden)= 0.10436E+02
  rms(prec ) = 0.13300E+02
  weight for this iteration     100.00

 eigenvalues of (default mixing * dielectric matrix)
  average eigenvalue GAMMA=   0.4569
  1.1246  0.5518  0.2507  0.2507  0.1067

 Free energy of the ion-electron system (eV)
  ---------------------------------------------------
  alpha Z        PSCENC =      1699.99176552
  Ewald energy   TEWEN  =    -35631.61246523
  -Hartree energ DENC   =    -19772.59533476
  -exchange      EXHF   =         0.00000000
  -V(xc)+E(xc)   XCENC  =      2363.69106343
  PAW double counting   =     61509.22454387   -63839.28971707
  entropy T*S    EENTRO =        -0.09361889
  eigenvalues    EBANDS =     -1958.61854818
  atomic energy  EATOM  =     55137.21312455
  Solvation  Ediel_sol  =         0.00000000
  ---------------------------------------------------
  free energy    TOTEN  =      -492.08918675 eV

  energy without entropy =     -491.99556786  energy(sigma->0) =     -492.04237730


--------------------------------------------------------------------------------------------------------




--------------------------------------- Iteration      1(  11)  ---------------------------------------


    POTLOK:  cpu time    0.2558: real time    0.2564
    SETDIJ:  cpu time    0.0287: real time    0.0288
     EDDAV:  cpu time  150.3040: real time  150.6599
    CHARGE:  cpu time    5.7876: real time    5.8014
    MIXING:  cpu time    0.0062: real time    0.0062
    --------------------------------------------
      LOOP:  cpu time  156.3824: real time  156.7528

 eigenvalue-minimisations  : 39504
 total energy-change (2. order) : 0.1200137E+02  (-0.1413616E+02)
 number of electron     608.0000026 magnetization      40.7457589
 augmentation part      220.5316979 magnetization      31.8000886

 Broyden mixing:
  rms(total) = 0.12062E+02    rms(broyden)= 0.12062E+02
  rms(prec ) = 0.16558E+02
  weight for this iteration     100.00

 eigenvalues of (default mixing * dielectric matrix)
  average eigenvalue GAMMA=   0.4666
  1.3828  0.5286  0.3280  0.3280  0.1162  0.1162

 Free energy of the ion-electron system (eV)
  ---------------------------------------------------
  alpha Z        PSCENC =      1699.99176552
  Ewald energy   TEWEN  =    -35631.61246523
  -Hartree energ DENC   =    -19793.48193665
  -exchange      EXHF   =         0.00000000
  -V(xc)+E(xc)   XCENC  =      2363.68279564
  PAW double counting   =     62623.05353968   -64972.47773412
  entropy T*S    EENTRO =        -0.08589492
  eigenvalues    EBANDS =     -1906.37101178
  atomic energy  EATOM  =     55137.21312455
  Solvation  Ediel_sol  =         0.00000000
  ---------------------------------------------------
  free energy    TOTEN  =      -480.08781732 eV

  energy without entropy =     -480.00192240  energy(sigma->0) =     -480.04486986


--------------------------------------------------------------------------------------------------------




--------------------------------------- Iteration      1(  12)  ---------------------------------------


    POTLOK:  cpu time    0.2591: real time    0.2597
    SETDIJ:  cpu time    0.0274: real time    0.0274
     EDDAV:  cpu time  165.5469: real time  165.9390
    CHARGE:  cpu time    5.7840: real time    5.7977
    MIXING:  cpu time    0.0070: real time    0.0070
    --------------------------------------------
      LOOP:  cpu time  171.6243: real time  172.0308

 eigenvalue-minimisations  : 44496
 total energy-change (2. order) :-0.1086690E+02  (-0.1708818E+02)
 number of electron     608.0000034 magnetization      37.1904530
 augmentation part      221.1571309 magnetization      28.9591708

 Broyden mixing:
  rms(total) = 0.11013E+02    rms(broyden)= 0.11013E+02
  rms(prec ) = 0.15897E+02
  weight for this iteration     100.00

 eigenvalues of (default mixing * dielectric matrix)
  average eigenvalue GAMMA=   0.4480
  1.5137  0.4863  0.3923  0.3923  0.1283  0.1283  0.0945

 Free energy of the ion-electron system (eV)
  ---------------------------------------------------
  alpha Z        PSCENC =      1699.99176552
  Ewald energy   TEWEN  =    -35631.61246523
  -Hartree energ DENC   =    -19802.00880343
  -exchange      EXHF   =         0.00000000
  -V(xc)+E(xc)   XCENC  =      2363.69202783
  PAW double counting   =     63555.30480143   -65914.26998710
  entropy T*S    EENTRO =        -0.07888417
  eigenvalues    EBANDS =     -1899.18629837
  atomic energy  EATOM  =     55137.21312455
  Solvation  Ediel_sol  =         0.00000000
  ---------------------------------------------------
  free energy    TOTEN  =      -490.95471897 eV

  energy without entropy =     -490.87583480  energy(sigma->0) =     -490.91527689


--------------------------------------------------------------------------------------------------------




--------------------------------------- Iteration      1(  13)  ---------------------------------------


    POTLOK:  cpu time    0.2558: real time    0.2564
    SETDIJ:  cpu time    0.0272: real time    0.0273
     EDDAV:  cpu time  155.4502: real time  155.8184
    CHARGE:  cpu time    5.8327: real time    5.8465
    MIXING:  cpu time    0.0071: real time    0.0072
    --------------------------------------------
      LOOP:  cpu time  161.5731: real time  161.9558

 eigenvalue-minimisations  : 41264
 total energy-change (2. order) : 0.3876004E+02  (-0.4970928E+01)
 number of electron     608.0000029 magnetization      33.3590685
 augmentation part      222.0922175 magnetization      25.5006584

 Broyden mixing:
  rms(total) = 0.82183E+01    rms(broyden)= 0.82176E+01
  rms(prec ) = 0.10992E+02
  weight for this iteration     100.00

 eigenvalues of (default mixing * dielectric matrix)
  average eigenvalue GAMMA=   0.4435
  1.6635  0.5041  0.5041  0.3871  0.1428  0.1428  0.1136  0.0896

 Free energy of the ion-electron system (eV)
  ---------------------------------------------------
  alpha Z        PSCENC =      1699.99176552
  Ewald energy   TEWEN  =    -35631.61246523
  -Hartree energ DENC   =    -19799.34331824
  -exchange      EXHF   =         0.00000000
  -V(xc)+E(xc)   XCENC  =      2363.65113285
  PAW double counting   =     64121.95737629   -66482.76563149
  entropy T*S    EENTRO =        -0.09904340
  eigenvalues    EBANDS =     -1861.18762268
  atomic energy  EATOM  =     55137.21312455
  Solvation  Ediel_sol  =         0.00000000
  ---------------------------------------------------
  free energy    TOTEN  =      -452.19468182 eV

  energy without entropy =     -452.09563842  energy(sigma->0) =     -452.14516012


--------------------------------------------------------------------------------------------------------




--------------------------------------- Iteration      1(  14)  ---------------------------------------


    POTLOK:  cpu time    0.2579: real time    0.2585
    SETDIJ:  cpu time    0.0278: real time    0.0279
     EDDAV:  cpu time  151.9799: real time  152.3399
    CHARGE:  cpu time    5.8166: real time    5.8304
    MIXING:  cpu time    0.0073: real time    0.0073
    --------------------------------------------
      LOOP:  cpu time  158.0895: real time  158.4639

 eigenvalue-minimisations  : 40080
 total energy-change (2. order) : 0.5306765E+01  (-0.5671056E+01)
 number of electron     608.0000034 magnetization      30.9631546
 augmentation part      223.6127587 magnetization      23.1136211

 Broyden mixing:
  rms(total) = 0.62244E+01    rms(broyden)= 0.62238E+01
  rms(prec ) = 0.85929E+01
  weight for this iteration     100.00

 eigenvalues of (default mixing * dielectric matrix)
  average eigenvalue GAMMA=   0.4276
  1.7175  0.5572  0.5572  0.3793  0.1619  0.1619  0.1154  0.1154  0.0822

 Free energy of the ion-electron system (eV)
  ---------------------------------------------------
  alpha Z        PSCENC =      1699.99176552
  Ewald energy   TEWEN  =    -35631.61246523
  -Hartree energ DENC   =    -19811.75436475
  -exchange      EXHF   =         0.00000000
  -V(xc)+E(xc)   XCENC  =      2363.46227576
  PAW double counting   =     64696.04219264   -67061.99826883
  entropy T*S    EENTRO =        -0.09719406
  eigenvalues    EBANDS =     -1838.13498290
  atomic energy  EATOM  =     55137.21312455
  Solvation  Ediel_sol  =         0.00000000
  ---------------------------------------------------
  free energy    TOTEN  =      -446.88791730 eV

  energy without entropy =     -446.79072324  energy(sigma->0) =     -446.83932027


--------------------------------------------------------------------------------------------------------




--------------------------------------- Iteration      1(  15)  ---------------------------------------


    POTLOK:  cpu time    0.2597: real time    0.2603
    SETDIJ:  cpu time    0.0279: real time    0.0280
     EDDAV:  cpu time  158.8772: real time  159.2534
    CHARGE:  cpu time    5.8000: real time    5.8138
    MIXING:  cpu time    0.0075: real time    0.0075
    --------------------------------------------
      LOOP:  cpu time  164.9723: real time  165.3630

 eigenvalue-minimisations  : 42288
 total energy-change (2. order) : 0.6494856E+01  (-0.2234921E+01)
 number of electron     608.0000032 magnetization      26.7310085
 augmentation part      224.7150543 magnetization      18.9967423

 Broyden mixing:
  rms(total) = 0.33338E+01    rms(broyden)= 0.33333E+01
  rms(prec ) = 0.42581E+01
  weight for this iteration     100.00

 eigenvalues of (default mixing * dielectric matrix)
  average eigenvalue GAMMA=   0.4355
  1.8083  0.6344  0.6344  0.3477  0.3477  0.1569  0.1266  0.1266  0.0860  0.0860

 Free energy of the ion-electron system (eV)
  ---------------------------------------------------
  alpha Z        PSCENC =      1699.99176552
  Ewald energy   TEWEN  =    -35631.61246523
  -Hartree energ DENC   =    -19817.64752536
  -exchange      EXHF   =         0.00000000
  -V(xc)+E(xc)   XCENC  =      2362.93772678
  PAW double counting   =     64999.14146361   -67367.06979710
  entropy T*S    EENTRO =        -0.09914287
  eigenvalues    EBANDS =     -1823.24821124
  atomic energy  EATOM  =     55137.21312455
  Solvation  Ediel_sol  =         0.00000000
  ---------------------------------------------------
  free energy    TOTEN  =      -440.39306133 eV

  energy without entropy =     -440.29391847  energy(sigma->0) =     -440.34348990


--------------------------------------------------------------------------------------------------------




--------------------------------------- Iteration      1(  16)  ---------------------------------------


    POTLOK:  cpu time    0.2573: real time    0.2579
    SETDIJ:  cpu time    0.0278: real time    0.0279
     EDDAV:  cpu time  159.7865: real time  160.1651
    CHARGE:  cpu time    5.7783: real time    5.7920
    MIXING:  cpu time    0.0084: real time    0.0426
    --------------------------------------------
      LOOP:  cpu time  165.8584: real time  166.2856

 eigenvalue-minimisations  : 42736
 total energy-change (2. order) :-0.2292968E+01  (-0.1360561E+01)
 number of electron     608.0000035 magnetization      25.2395248
 augmentation part      224.0472436 magnetization      18.4659424

 Broyden mixing:
  rms(total) = 0.32688E+01    rms(broyden)= 0.32684E+01
  rms(prec ) = 0.43047E+01
  weight for this iteration     100.00

 eigenvalues of (default mixing * dielectric matrix)
  average eigenvalue GAMMA=   0.4197
  1.8473  0.6524  0.6524  0.3584  0.3584  0.1908  0.1321  0.1321  0.1021  0.1021
  0.0879

 Free energy of the ion-electron system (eV)
  ---------------------------------------------------
  alpha Z        PSCENC =      1699.99176552
  Ewald energy   TEWEN  =    -35631.61246523
  -Hartree energ DENC   =    -19832.97476754
  -exchange      EXHF   =         0.00000000
  -V(xc)+E(xc)   XCENC  =      2361.74508370
  PAW double counting   =     65472.62796497   -67844.89652653
  entropy T*S    EENTRO =        -0.09914958
  eigenvalues    EBANDS =     -1804.68105916
  atomic energy  EATOM  =     55137.21312455
  Solvation  Ediel_sol  =         0.00000000
  ---------------------------------------------------
  free energy    TOTEN  =      -442.68602930 eV

  energy without entropy =     -442.58687972  energy(sigma->0) =     -442.63645451


--------------------------------------------------------------------------------------------------------




--------------------------------------- Iteration      1(  17)  ---------------------------------------


    POTLOK:  cpu time    0.2543: real time    0.2549
    SETDIJ:  cpu time    0.0273: real time    0.0274
     EDDAV:  cpu time  158.7976: real time  159.1738
    CHARGE:  cpu time    5.5196: real time    5.5660
    MIXING:  cpu time    0.0090: real time    0.0246
    --------------------------------------------
      LOOP:  cpu time  164.6078: real time  165.0467

 eigenvalue-minimisations  : 42464
 total energy-change (2. order) : 0.9095976E+00  (-0.1074027E+01)
 number of electron     608.0000033 magnetization      23.3071124
 augmentation part      223.7212297 magnetization      16.7643366

 Broyden mixing:
  rms(total) = 0.23290E+01    rms(broyden)= 0.23286E+01
  rms(prec ) = 0.31559E+01
  weight for this iteration     100.00

 eigenvalues of (default mixing * dielectric matrix)
  average eigenvalue GAMMA=   0.4292
  1.8884  0.7042  0.7042  0.4324  0.4324  0.3056  0.1343  0.1343  0.1212  0.1212
  0.0858  0.0858

 Free energy of the ion-electron system (eV)
  ---------------------------------------------------
  alpha Z        PSCENC =      1699.99176552
  Ewald energy   TEWEN  =    -35631.61246523
  -Hartree energ DENC   =    -19834.97359875
  -exchange      EXHF   =         0.00000000
  -V(xc)+E(xc)   XCENC  =      2361.27217104
  PAW double counting   =     65619.16041411   -67992.33236077
  entropy T*S    EENTRO =        -0.09955517
  eigenvalues    EBANDS =     -1800.39592704
  atomic energy  EATOM  =     55137.21312455
  Solvation  Ediel_sol  =         0.00000000
  ---------------------------------------------------
  free energy    TOTEN  =      -441.77643172 eV

  energy without entropy =     -441.67687656  energy(sigma->0) =     -441.72665414


--------------------------------------------------------------------------------------------------------




--------------------------------------- Iteration      1(  18)  ---------------------------------------


    POTLOK:  cpu time    0.2422: real time    0.2432
    SETDIJ:  cpu time    0.0268: real time    0.0269
     EDDAV:  cpu time  151.9558: real time  152.3155
    CHARGE:  cpu time    5.8323: real time    5.8461
    MIXING:  cpu time    0.0089: real time    0.0128
    --------------------------------------------
      LOOP:  cpu time  158.0660: real time  158.4445

 eigenvalue-minimisations  : 40224
 total energy-change (2. order) :-0.2361735E+01  (-0.8175072E+00)
 number of electron     608.0000034 magnetization      21.4498001
 augmentation part      223.5372008 magnetization      15.5705851

 Broyden mixing:
  rms(total) = 0.27536E+01    rms(broyden)= 0.27533E+01
  rms(prec ) = 0.37907E+01
  weight for this iteration     100.00

 eigenvalues of (default mixing * dielectric matrix)
  average eigenvalue GAMMA=   0.4270
  1.8852  0.7628  0.7628  0.4978  0.4978  0.3284  0.1510  0.1510  0.1236  0.1236
  0.0943  0.0866  0.0866

 Free energy of the ion-electron system (eV)
  ---------------------------------------------------
  alpha Z        PSCENC =      1699.99176552
  Ewald energy   TEWEN  =    -35631.61246523
  -Hartree energ DENC   =    -19834.56425320
  -exchange      EXHF   =         0.00000000
  -V(xc)+E(xc)   XCENC  =      2360.46023746
  PAW double counting   =     65762.57723539   -68134.77566425
  entropy T*S    EENTRO =        -0.09779008
  eigenvalues    EBANDS =     -1803.33035731
  atomic energy  EATOM  =     55137.21312455
  Solvation  Ediel_sol  =         0.00000000
  ---------------------------------------------------
  free energy    TOTEN  =      -444.13816714 eV

  energy without entropy =     -444.04037707  energy(sigma->0) =     -444.08927211


--------------------------------------------------------------------------------------------------------




--------------------------------------- Iteration      1(  19)  ---------------------------------------


    POTLOK:  cpu time    0.2594: real time    0.2600
    SETDIJ:  cpu time    0.0280: real time    0.0281
     EDDAV:  cpu time  154.3682: real time  154.7339
    CHARGE:  cpu time    5.7087: real time    5.7222
    MIXING:  cpu time    0.0092: real time    0.0092
    --------------------------------------------
      LOOP:  cpu time  160.3734: real time  160.7533

 eigenvalue-minimisations  : 41040
 total energy-change (2. order) : 0.3704914E-01  (-0.6732275E+00)
 number of electron     608.0000031 magnetization      19.9821969
 augmentation part      223.8987491 magnetization      14.3791103

 Broyden mixing:
  rms(total) = 0.21976E+01    rms(broyden)= 0.21972E+01
  rms(prec ) = 0.29017E+01
  weight for this iteration     100.00

 eigenvalues of (default mixing * dielectric matrix)
  average eigenvalue GAMMA=   0.4254
  1.8345  0.8020  0.8020  0.5720  0.5720  0.3443  0.2720  0.1433  0.1268  0.1268
  0.1076  0.0882  0.0882  0.0765

 Free energy of the ion-electron system (eV)
  ---------------------------------------------------
  alpha Z        PSCENC =      1699.99176552
  Ewald energy   TEWEN  =    -35631.61246523
  -Hartree energ DENC   =    -19829.29958895
  -exchange      EXHF   =         0.00000000
  -V(xc)+E(xc)   XCENC  =      2359.77509263
  PAW double counting   =     65855.75064512   -68224.65112909
  entropy T*S    EENTRO =        -0.09985374
  eigenvalues    EBANDS =     -1811.16870881
  atomic energy  EATOM  =     55137.21312455
  Solvation  Ediel_sol  =         0.00000000
  ---------------------------------------------------
  free energy    TOTEN  =      -444.10111800 eV

  energy without entropy =     -444.00126426  energy(sigma->0) =     -444.05119113


--------------------------------------------------------------------------------------------------------




--------------------------------------- Iteration      1(  20)  ---------------------------------------


    POTLOK:  cpu time    0.2586: real time    0.2592
    SETDIJ:  cpu time    0.0281: real time    0.0282
     EDDAV:  cpu time  162.3512: real time  162.7357
    CHARGE:  cpu time    6.0425: real time    6.0568
    MIXING:  cpu time    0.0098: real time    0.0098
    --------------------------------------------
      LOOP:  cpu time  168.6901: real time  169.0896

 eigenvalue-minimisations  : 43648
 total energy-change (2. order) :-0.2339673E+00  (-0.4532768E+00)
 number of electron     608.0000034 magnetization      18.1420953
 augmentation part      224.0510311 magnetization      12.5637123

 Broyden mixing:
  rms(total) = 0.19551E+01    rms(broyden)= 0.19548E+01
  rms(prec ) = 0.25487E+01
  weight for this iteration     100.00

 eigenvalues of (default mixing * dielectric matrix)
  average eigenvalue GAMMA=   0.4280
  1.7995  1.1602  0.6456  0.6456  0.5802  0.3572  0.3572  0.1286  0.1286  0.1314
  0.1314  0.0920  0.0920  0.0926  0.0775

 Free energy of the ion-electron system (eV)
  ---------------------------------------------------
  alpha Z        PSCENC =      1699.99176552
  Ewald energy   TEWEN  =    -35631.61246523
  -Hartree energ DENC   =    -19824.95349077
  -exchange      EXHF   =         0.00000000
  -V(xc)+E(xc)   XCENC  =      2359.18995453
  PAW double counting   =     65882.92321061   -68247.90164060
  entropy T*S    EENTRO =        -0.10253772
  eigenvalues    EBANDS =     -1819.08300623
  atomic energy  EATOM  =     55137.21312455
  Solvation  Ediel_sol  =         0.00000000
  ---------------------------------------------------
  free energy    TOTEN  =      -444.33508533 eV

  energy without entropy =     -444.23254761  energy(sigma->0) =     -444.28381647


--------------------------------------------------------------------------------------------------------




--------------------------------------- Iteration      1(  21)  ---------------------------------------


    POTLOK:  cpu time    0.2677: real time    0.2683
    SETDIJ:  cpu time    0.0294: real time    0.0295
     EDDAV:  cpu time  167.0432: real time  167.4389
    CHARGE:  cpu time    5.6906: real time    5.7041
    MIXING:  cpu time    0.0112: real time    0.0342
    --------------------------------------------
      LOOP:  cpu time  173.0420: real time  173.4750

 eigenvalue-minimisations  : 43120
 total energy-change (2. order) : 0.2680486E+00  (-0.3172424E+00)
 number of electron     608.0000032 magnetization      16.4658689
 augmentation part      223.9212550 magnetization      11.3385955

 Broyden mixing:
  rms(total) = 0.12744E+01    rms(broyden)= 0.12742E+01
  rms(prec ) = 0.16148E+01
  weight for this iteration     100.00

 eigenvalues of (default mixing * dielectric matrix)
  average eigenvalue GAMMA=   0.4452
  1.7557  1.4997  0.7143  0.7143  0.5136  0.3949  0.3949  0.2649  0.1440  0.1273
  0.1273  0.1231  0.0992  0.0875  0.0875  0.0744

 Free energy of the ion-electron system (eV)
  ---------------------------------------------------
  alpha Z        PSCENC =      1699.99176552
  Ewald energy   TEWEN  =    -35631.61246523
  -Hartree energ DENC   =    -19822.79083283
  -exchange      EXHF   =         0.00000000
  -V(xc)+E(xc)   XCENC  =      2358.66310722
  PAW double counting   =     65944.75433665   -68306.77700422
  entropy T*S    EENTRO =        -0.10741792
  eigenvalues    EBANDS =     -1823.40165051
  atomic energy  EATOM  =     55137.21312455
  Solvation  Ediel_sol  =         0.00000000
  ---------------------------------------------------
  free energy    TOTEN  =      -444.06703676 eV

  energy without entropy =     -443.95961884  energy(sigma->0) =     -444.01332780


--------------------------------------------------------------------------------------------------------




--------------------------------------- Iteration      1(  22)  ---------------------------------------


    POTLOK:  cpu time    0.2515: real time    0.2521
    SETDIJ:  cpu time    0.0275: real time    0.0275
     EDDAV:  cpu time  160.4590: real time  160.8391
    CHARGE:  cpu time    5.7302: real time    5.7438
    MIXING:  cpu time    0.0101: real time    0.0101
    --------------------------------------------
      LOOP:  cpu time  166.4782: real time  166.8726

 eigenvalue-minimisations  : 43440
 total energy-change (2. order) :-0.3192401E+00  (-0.1896630E+00)
 number of electron     608.0000033 magnetization      14.8573068
 augmentation part      223.8412748 magnetization       9.9748245

 Broyden mixing:
  rms(total) = 0.14081E+01    rms(broyden)= 0.14079E+01
  rms(prec ) = 0.18343E+01
  weight for this iteration     100.00

 eigenvalues of (default mixing * dielectric matrix)
  average eigenvalue GAMMA=   0.4568
  1.7365  1.7365  0.7985  0.7985  0.5215  0.4349  0.4349  0.3073  0.1449  0.1449
  0.1269  0.1269  0.1091  0.0892  0.0892  0.0915  0.0749

 Free energy of the ion-electron system (eV)
  ---------------------------------------------------
  alpha Z        PSCENC =      1699.99176552
  Ewald energy   TEWEN  =    -35631.61246523
  -Hartree energ DENC   =    -19821.39861968
  -exchange      EXHF   =         0.00000000
  -V(xc)+E(xc)   XCENC  =      2358.31516955
  PAW double counting   =     66014.09952766   -68374.06667049
  entropy T*S    EENTRO =        -0.10522546
  eigenvalues    EBANDS =     -1826.82288330
  atomic energy  EATOM  =     55137.21312455
  Solvation  Ediel_sol  =         0.00000000
  ---------------------------------------------------
  free energy    TOTEN  =      -444.38627688 eV

  energy without entropy =     -444.28105142  energy(sigma->0) =     -444.33366415


--------------------------------------------------------------------------------------------------------




--------------------------------------- Iteration      1(  23)  ---------------------------------------


    POTLOK:  cpu time    0.2571: real time    0.2577
    SETDIJ:  cpu time    0.0281: real time    0.0281
     EDDAV:  cpu time  156.6935: real time  157.0645
    CHARGE:  cpu time    5.6816: real time    5.6951
    MIXING:  cpu time    0.0102: real time    0.0102
    --------------------------------------------
      LOOP:  cpu time  162.6704: real time  163.0556

 eigenvalue-minimisations  : 42192
 total energy-change (2. order) : 0.1486640E+00  (-0.1715927E+00)
 number of electron     608.0000032 magnetization      13.3052610
 augmentation part      223.9446522 magnetization       8.6588130

 Broyden mixing:
  rms(total) = 0.10396E+01    rms(broyden)= 0.10393E+01
  rms(prec ) = 0.13626E+01
  weight for this iteration     100.00

 eigenvalues of (default mixing * dielectric matrix)
  average eigenvalue GAMMA=   0.4814
  1.9238  1.9238  0.8633  0.8633  0.5239  0.4871  0.4871  0.3361  0.2855  0.1438
  0.1276  0.1276  0.1230  0.1053  0.0884  0.0884  0.0922  0.0746

 Free energy of the ion-electron system (eV)
  ---------------------------------------------------
  alpha Z        PSCENC =      1699.99176552
  Ewald energy   TEWEN  =    -35631.61246523
  -Hartree energ DENC   =    -19819.32045058
  -exchange      EXHF   =         0.00000000
  -V(xc)+E(xc)   XCENC  =      2358.07876474
  PAW double counting   =     66061.99202183   -68419.24762380
  entropy T*S    EENTRO =        -0.10887697
  eigenvalues    EBANDS =     -1831.22387294
  atomic energy  EATOM  =     55137.21312455
  Solvation  Ediel_sol  =         0.00000000
  ---------------------------------------------------
  free energy    TOTEN  =      -444.23761288 eV

  energy without entropy =     -444.12873591  energy(sigma->0) =     -444.18317439


--------------------------------------------------------------------------------------------------------




--------------------------------------- Iteration      1(  24)  ---------------------------------------


    POTLOK:  cpu time    0.2520: real time    0.2526
    SETDIJ:  cpu time    0.0268: real time    0.0269
     EDDAV:  cpu time  155.3120: real time  155.6798
    CHARGE:  cpu time    5.7581: real time    5.7717
    MIXING:  cpu time    0.0104: real time    0.0104
    --------------------------------------------
      LOOP:  cpu time  161.3593: real time  161.7414

 eigenvalue-minimisations  : 41760
 total energy-change (2. order) :-0.9666345E-01  (-0.1485016E+00)
 number of electron     608.0000033 magnetization      12.2612124
 augmentation part      223.9520250 magnetization       7.8137704

 Broyden mixing:
  rms(total) = 0.10855E+01    rms(broyden)= 0.10854E+01
  rms(prec ) = 0.15014E+01
  weight for this iteration     100.00

 eigenvalues of (default mixing * dielectric matrix)
  average eigenvalue GAMMA=   0.4839
  2.0456  2.0456  0.8878  0.8878  0.5146  0.5146  0.5375  0.3543  0.3068  0.1274
  0.1274  0.1395  0.1395  0.1215  0.1019  0.0887  0.0887  0.0895  0.0746

 Free energy of the ion-electron system (eV)
  ---------------------------------------------------
  alpha Z        PSCENC =      1699.99176552
  Ewald energy   TEWEN  =    -35631.61246523
  -Hartree energ DENC   =    -19818.35509135
  -exchange      EXHF   =         0.00000000
  -V(xc)+E(xc)   XCENC  =      2357.94008942
  PAW double counting   =     66108.36042621   -68463.57780406
  entropy T*S    EENTRO =        -0.10290484
  eigenvalues    EBANDS =     -1834.19141655
  atomic energy  EATOM  =     55137.21312455
  Solvation  Ediel_sol  =         0.00000000
  ---------------------------------------------------
  free energy    TOTEN  =      -444.33427633 eV

  energy without entropy =     -444.23137149  energy(sigma->0) =     -444.28282391


--------------------------------------------------------------------------------------------------------




--------------------------------------- Iteration      1(  25)  ---------------------------------------


    POTLOK:  cpu time    0.2504: real time    0.2510
    SETDIJ:  cpu time    0.0270: real time    0.0270
     EDDAV:  cpu time  159.5615: real time  159.9394
    CHARGE:  cpu time    5.7202: real time    5.7338
    MIXING:  cpu time    0.0109: real time    0.0109
    --------------------------------------------
      LOOP:  cpu time  165.5699: real time  165.9622

 eigenvalue-minimisations  : 43200
 total energy-change (2. order) : 0.2055184E+00  (-0.1372804E+00)
[...]
   0.515E+02 0.582E+02 0.175E+03   -.606E+02 -.677E+02 -.194E+03   0.103E+02 0.992E+01 0.169E+02   0.253E+00 0.119E-02 -.118E-01
   -.167E+03 -.230E+03 -.530E+02   0.199E+03 0.258E+03 0.566E+02   -.122E+02 -.185E+02 0.219E+01   0.321E+00 -.272E-01 0.140E+00
   -.217E+03 -.486E+02 -.161E+03   0.235E+03 0.501E+02 0.176E+03   -.158E+02 0.143E+01 -.152E+02   -.205E+00 0.149E+00 -.205E-01
   0.171E+03 -.935E+02 -.185E+02   -.190E+03 0.102E+03 0.168E+02   0.204E+02 -.929E+01 0.260E+01   -.123E+00 -.832E-01 -.909E-01
   0.465E+02 0.129E+03 -.618E+02   -.492E+02 -.136E+03 0.625E+02   0.112E+01 0.664E+01 -.397E+00   0.804E-01 -.958E-01 -.658E-01
   -.224E+03 -.470E+02 -.213E+03   0.250E+03 0.512E+02 0.229E+03   -.215E+02 -.690E+01 -.141E+02   0.604E-01 -.243E+00 -.213E+00
   0.142E+03 0.272E+03 -.881E+02   -.152E+03 -.302E+03 0.104E+03   0.887E+01 0.201E+02 -.886E+01   0.146E+00 -.103E+00 0.256E-01
   0.589E+02 -.366E+02 0.156E+02   -.607E+02 0.472E+02 -.196E+02   0.409E+00 -.115E+02 0.504E+01   -.130E+00 -.117E+00 -.135E+00
   -.127E+03 0.153E+03 -.104E+03   0.137E+03 -.163E+03 0.115E+03   -.109E+02 0.920E+01 -.124E+02   0.189E-01 -.234E+00 -.120E+00
   0.109E+03 -.284E+02 0.724E+02   -.118E+03 0.312E+02 -.824E+02   0.983E+01 -.328E+01 0.108E+02   0.472E-01 0.120E+00 0.145E+00
   -.720E+02 0.135E+03 0.456E+02   0.808E+02 -.141E+03 -.535E+02   -.716E+01 0.461E+01 0.789E+01   -.152E+00 0.994E-01 -.221E-01
   -.216E+03 -.255E+02 -.233E+03   0.244E+03 0.275E+02 0.255E+03   -.180E+02 -.694E+01 -.157E+02   -.102E-01 -.355E+00 0.244E-01
   0.720E+02 0.918E+02 0.158E+03   -.786E+02 -.914E+02 -.170E+03   0.771E+01 -.786E+00 0.107E+02   0.118E+00 -.265E+00 -.153E+00
   -.100E+03 -.304E+03 -.112E+02   0.116E+03 0.344E+03 0.168E+02   -.559E+01 -.278E+02 0.788E+00   -.459E-01 -.255E+00 -.186E-01
   -.216E+03 0.404E+02 -.167E+03   0.236E+03 -.437E+02 0.175E+03   -.206E+02 0.495E+01 -.851E+01   -.126E+00 0.167E+00 -.553E-01
   0.232E+03 -.929E+02 0.270E+02   -.254E+03 0.104E+03 -.181E+02   0.156E+02 -.123E+02 -.438E+01   -.109E+00 -.141E+00 0.359E-01
   0.160E+03 0.313E+02 -.718E+02   -.202E+03 -.313E+02 0.918E+02   0.137E+02 -.267E+01 -.838E+01   -.157E+00 0.240E-01 0.515E+00
   -.193E+03 -.872E+02 -.978E+02   0.208E+03 0.984E+02 0.107E+03   -.163E+02 -.126E+02 -.953E+01   0.102E+00 0.461E-01 0.103E+00
   0.193E+03 -.989E+02 0.106E+03   -.213E+03 0.105E+03 -.111E+03   0.182E+02 -.359E+01 0.685E+01   -.396E-01 0.421E-01 0.295E+00
   0.160E+03 -.212E+02 -.559E+01   -.181E+03 0.313E+02 0.478E+01   0.137E+02 -.926E+01 0.335E+01   0.948E-01 0.765E-01 0.247E+00
   -.219E+03 0.190E+03 -.141E+03   0.240E+03 -.197E+03 0.154E+03   -.173E+02 0.783E+01 -.115E+02   0.151E+00 -.839E-01 0.163E+00
   0.936E+02 0.264E+02 0.124E+03   -.103E+03 -.261E+02 -.133E+03   0.105E+02 0.237E+00 0.107E+02   0.104E-01 -.224E+00 -.377E+00
   -.367E+02 0.222E+03 0.160E+03   0.398E+02 -.233E+03 -.176E+03   -.235E+01 0.116E+02 0.131E+02   0.450E-01 -.922E-01 -.225E+00
   -.738E+02 0.312E+02 -.576E+02   0.813E+02 -.244E+02 0.654E+02   -.854E+01 -.774E+01 -.843E+01   -.929E-03 -.187E+00 -.478E-01
   0.114E+03 0.204E+03 0.105E+03   -.125E+03 -.218E+03 -.114E+03   0.119E+02 0.111E+02 0.741E+01   -.207E+00 0.442E+00 0.375E+00
   0.177E+03 -.165E+03 0.108E+03   -.201E+03 0.178E+03 -.116E+03   0.152E+02 -.103E+02 0.920E+01   0.114E+00 -.111E+00 -.133E+00
   -.180E+03 0.215E+03 -.157E+03   0.194E+03 -.235E+03 0.173E+03   -.156E+02 0.139E+02 -.137E+02   -.642E-01 -.552E+00 0.144E+00
 -----------------------------------------------------------------------------------------------
   0.706E+02 0.323E+02 0.373E+02   -.284E-12 0.512E-12 -.625E-12   -.701E+02 -.327E+02 -.380E+02   -.421E+00 0.419E+00 0.692E+00
 
 
 POSITION                                       TOTAL-FORCE (eV/Angst)
 -----------------------------------------------------------------------------------
      7.22776      5.06300      2.53536       -10.325285    -13.333914     -5.186330
      5.46780      2.01887      2.57673         0.722988      5.160453     -1.941577
     -2.70473      3.33817      9.70125         0.814796     -0.542025      3.832337
      2.54277      0.43841      0.04836        -3.989229      3.266311     -1.131978
      2.10028      2.36159      2.48222        -0.618710      0.331601      3.012274
      0.83825      5.22704      2.67172        -0.095643     -0.718812     -0.625078
      2.21827      0.23684      9.60916        -1.667668     -0.496011      4.963769
      7.23897      3.40362      0.24013        -0.340020     -5.859641     -1.195389
      3.57801      4.68534      7.54742         2.949959      7.028191     -3.311476
      2.08775      2.32253      7.83674         7.413815     -9.638663     -3.147077
      0.63466      3.17153      5.25640        -3.878182      3.872634     -3.185903
     -1.21610      0.28377      5.26706        31.041951      2.292687     -9.747743
     -0.78657      2.21632      7.40942        -1.200543     -0.615972      2.260800
     -2.48692      5.14043      7.58409         9.857065     -3.301638     -5.345685
      5.27499      0.31176      4.89569         5.636517      5.546257     -3.404094
      3.76706      3.17576      4.94787         1.115482     -1.105092     -0.274863
      6.89770     10.52932      2.50407         0.446968     -1.271671     -1.597150
      5.53191      7.58050      2.35107         0.914563     11.841458     -5.279189
     -2.40142      8.90723      9.76740        -1.623273     -0.434543      2.153100
      2.58985      5.78457      0.03989        -8.947491      7.945866     -0.955377
      2.16683      7.86033      2.38148         0.519485     -0.360327      0.354044
      0.76757      0.18492      2.63340        -5.248437     -1.517154     -1.513251
      8.65130      6.32420      0.09332         0.803707     -4.675762     -1.404911
      1.05807      8.68989      9.66444       -11.461968      9.200251     -5.307449
      3.76806     10.53510      7.42032       -16.072955    -11.163228     -5.678985
      2.14931      8.08808      7.27685         2.990762     -2.854703     -0.857068
      0.58685      9.06205      4.94232        -1.599735     -0.014276      1.943785
     -0.68543      5.66569      4.82430        -4.180618      2.800347     -1.887327
     -1.12041      7.67233      7.38034         0.147460      6.254360     -3.993577
     -2.47037     10.46810      7.57962        -1.695445      1.458258     -1.699062
      5.36193      6.02445      5.30618        -0.950712      1.629444     -0.525605
      3.75057      9.10808      4.93237         0.994245     -4.852277     -2.550673
      7.15657      4.88013      0.78278         0.414048      5.150049      0.634514
      0.89027      5.32144      0.67366        -0.595342      0.700696      1.337409
      3.62448      5.00017      0.71420         8.086715     -7.332982      4.865656
      5.46665      0.47386      3.13203         0.069021     -1.949485      0.421946
      3.80908      2.76864      3.10809        -0.334849     -0.210182      1.490916
      6.84069      3.27906      2.96458        -0.971027      0.247434     -0.559916
      2.50642      2.09194      0.89925         1.330709      0.327162     -3.448393
      5.44528      2.75202      0.89382         0.124945     -0.082387     -0.653652
      8.57963      2.06879      0.19024        -1.197992      0.580425     -0.307989
      0.64237      3.28630      3.17852         1.333666      0.783735      0.346141
     -0.99301      0.17602      3.58763         1.058810      0.201597     -3.268811
      2.23325      0.35861      3.11217         4.441282      1.825697      1.338097
      3.93192      4.74229      5.78329         1.340954      0.654279     -0.074578
     -2.31907      5.21297      5.47134        -0.122345     -0.008636      0.929521
      0.59626      5.10018      5.50152         3.888368     -3.169900      1.842369
      2.47412      0.45631      8.00221        -2.645076      2.309330     -2.151091
      0.81081      2.96290      8.13365       -13.790178      5.802685      2.760891
      3.30615      3.26721      7.94600         4.514851     -4.340586      2.755244
     -0.77003      2.34220      5.68974        -0.754298     -0.631181      0.097423
      2.04684      2.68832      5.74597         5.507694     -1.773950      1.446218
      5.37199      2.23282      5.54444        -2.188461     -0.261641     -1.295812
     -2.60990      3.09680      8.06832         1.504245      0.427946     -2.616050
     -4.25578      0.28097      7.69509        20.034323      9.565688      5.927989
     -1.17246      0.40528      8.19602         2.153406      3.070641     -0.229071
      6.92797     10.45538      0.35356         1.442558     -0.813703      0.811176
      0.98494      0.04216      0.75495        -1.542952     -0.611249      0.222600
      3.85310     10.60178      0.47755         4.562689     -2.913618      1.596461
      5.37762      6.34530      3.09657        -0.728100    -10.385828      6.803019
      4.12539      8.71302      2.97574        -1.512550     -1.071110      0.899119
      6.86080      8.83149      2.92837        -0.827097     -0.617809     -0.866872
      2.40495      7.78901      0.53632         1.027714     -0.366758      0.964994
      5.36381      8.10071      0.66039         1.455928     -0.363714     -0.021487
      8.46376      7.86119      0.42923         9.832760     -5.256328      6.598982
      0.91160      8.88103      3.30762         1.254468     -0.647968     -2.453861
     -1.16847      6.06599      3.09618        10.644424     11.364086      6.332369
      2.35324      5.99992      2.97341        -0.925380      1.797512     -0.617268
      4.01271     10.61759      5.51182        -7.418109     -1.325596      4.464799
     -2.42905      0.18845      5.77056       -28.511500     -2.717083     12.109020
      0.53803     10.78672      5.61953        -0.731852     -1.352540     -0.648257
      2.36914      5.64293      8.11278        -1.759718      2.533796      1.583909
      0.68814      8.39816      7.69816        -7.083929      0.928516      2.777341
      3.48040      8.82465      7.73877         3.267023      0.914689      1.314489
     -0.88104      7.81344      5.46741         1.141647      0.284590      1.057141
      2.08334      8.26566      5.62766         0.819253      0.545976     -2.617770
      5.07197      7.84016      5.58476        -1.005099     -1.180237     -0.705523
     -2.42669      8.85044      8.02152         0.742137     -2.511909     -0.887848
     -3.75509      5.65041      8.19126        -9.030558      2.791351      0.875936
     -1.01905      6.25863      7.96751        -0.791073     -6.783906      2.045269
 -----------------------------------------------------------------------------------
    total drift:                                0.037537      0.026757      0.002049


--------------------------------------------------------------------------------------------------------



  FREE ENERGIE OF THE ION-ELECTRON SYSTEM (eV)
  ---------------------------------------------------
  free  energy   TOTEN  =      -444.0258805232 eV

  energy  without entropy=     -443.9211697141  energy(sigma->0) =     -443.97352512
 


--------------------------------------------------------------------------------------------------------


    POTLOK:  cpu time    0.2678: real time    0.2685


--------------------------------------------------------------------------------------------------------


     LOOP+:  cpu time13427.4039: real time13459.8240
    4ORBIT:  cpu time    0.0000: real time    0.0000

volume of typ            1:    20.8 %

volume of typ            2:     8.0 %
 
total charge     
 
# of ion       s       p       d       tot
------------------------------------------
    1        0.377   0.485   7.993   8.854
    2        0.294   0.353   7.872   8.519
    3        0.279   0.317   7.889   8.485
    4        0.321   0.399   7.947   8.667
    5        0.286   0.330   7.874   8.490
    6        0.241   0.244   7.896   8.381
    7        0.300   0.363   7.912   8.575
    8        0.296   0.347   7.904   8.547
    9        0.375   0.479   7.964   8.818
   10        0.395   0.553   8.025   8.973
   11        0.327   0.408   7.902   8.637
   12        0.441   0.635   8.084   9.159
   13        0.241   0.252   7.906   8.399
   14        0.311   0.365   7.984   8.660
   15        0.337   0.456   7.994   8.787
   16        0.252   0.268   7.869   8.390
   17        0.276   0.320   7.903   8.499
   18        0.367   0.493   7.904   8.764
   19        0.293   0.360   7.868   8.521
   20        0.382   0.506   7.973   8.861
   21        0.233   0.232   7.844   8.309
   22        0.298   0.326   7.930   8.555
   23        0.284   0.334   7.932   8.551
   24        0.340   0.421   8.006   8.766
   25        0.432   0.640   8.060   9.132
   26        0.393   0.510   7.988   8.890
   27        0.287   0.338   7.850   8.475
   28        0.320   0.393   7.911   8.624
   29        0.319   0.384   7.915   8.618
   30        0.315   0.398   7.944   8.657
   31        0.248   0.250   7.869   8.366
   32        0.263   0.298   7.907   8.468
   33        1.276   2.791   0.015   4.082
   34        1.276   2.720   0.007   4.003
   35        1.294   2.792   0.020   4.105
   36        1.269   2.818   0.016   4.103
   37        1.273   2.729   0.007   4.009
   38        1.286   2.667   0.005   3.957
   39        1.273   2.769   0.011   4.053
   40        1.282   2.687   0.005   3.973
   41        1.285   2.696   0.006   3.987
   42        1.276   2.694   0.005   3.976
   43        1.262   2.794   0.010   4.066
   44        1.296   2.717   0.012   4.025
   45        1.270   2.747   0.009   4.027
   46        1.273   2.740   0.009   4.021
   47        1.289   2.734   0.013   4.036
   48        1.271   2.843   0.018   4.132
   49        1.281   2.842   0.022   4.145
   50        1.291   2.858   0.027   4.175
   51        1.280   2.756   0.012   4.049
   52        1.281   2.769   0.013   4.063
   53        1.294   2.630   0.003   3.927
   54        1.280   2.717   0.009   4.006
   55        1.292   2.864   0.027   4.183
   56        1.287   2.708   0.009   4.004
   57        1.280   2.692   0.006   3.978
   58        1.270   2.762   0.009   4.041
   59        1.290   2.763   0.016   4.070
   60        1.300   2.764   0.018   4.082
   61        1.289   2.654   0.004   3.947
   62        1.288   2.685   0.007   3.979
   63        1.276   2.695   0.005   3.977
   64        1.275   2.745   0.009   4.029
   65        1.292   2.861   0.031   4.184
   66        1.278   2.732   0.009   4.020
   67        1.290   2.831   0.025   4.145
   68        1.287   2.683   0.007   3.976
   69        1.280   2.857   0.025   4.163
   70        1.297   2.936   0.039   4.272
   71        1.284   2.699   0.006   3.989
   72        1.278   2.744   0.010   4.031
   73        1.280   2.791   0.014   4.084
   74        1.281   2.784   0.013   4.078
   75        1.285   2.663   0.004   3.952
   76        1.276   2.766   0.011   4.053
   77        1.282   2.668   0.004   3.955
   78        1.266   2.803   0.014   4.083
   79        1.283   2.847   0.024   4.154
   80        1.286   2.765   0.015   4.065
--------------------------------------------------
tot          71.65  144.73  254.44  470.81
 
magnetization (x)
 
# of ion       s       p       d       tot
------------------------------------------
    1        0.005   0.001   0.112   0.118
    2        0.001   0.004   0.269   0.274
    3        0.003   0.007   0.380   0.390
    4        0.001  -0.004  -0.112  -0.116
    5        0.001   0.010   0.735   0.747
    6        0.001   0.003   0.111   0.115
    7       -0.000   0.000   0.061   0.061
    8        0.002   0.005   0.380   0.387
    9        0.001   0.001   0.049   0.051
   10        0.002   0.005   0.192   0.199
   11       -0.002   0.001  -0.104  -0.104
   12       -0.001  -0.003   0.000  -0.003
   13       -0.000  -0.000   0.066   0.065
   14       -0.001   0.000  -0.045  -0.046
   15        0.001   0.001  -0.025  -0.023
   16        0.000   0.000   0.006   0.006
   17        0.000   0.002   0.119   0.121
   18       -0.002  -0.000   0.049   0.047
   19        0.001   0.013   0.534   0.549
   20        0.001   0.001  -0.041  -0.040
   21       -0.000   0.000   0.037   0.036
   22        0.011   0.016   0.858   0.884
   23        0.003   0.000   0.002   0.005
   24        0.004   0.005   0.233   0.242
   25        0.000  -0.001  -0.056  -0.057
   26        0.000  -0.001   0.020   0.020
   27        0.001   0.001   0.095   0.096
   28        0.004   0.003   0.220   0.228
   29        0.005   0.015   0.560   0.580
   30        0.002   0.005   0.231   0.238
   31       -0.001  -0.004  -0.248  -0.253
   32        0.000   0.005   0.396   0.401
   33        0.003   0.032   0.000   0.035
   34       -0.000  -0.006   0.000  -0.006
   35        0.001   0.029  -0.000   0.030
   36        0.002   0.013   0.000   0.015
   37        0.003   0.075   0.000   0.079
   38        0.005   0.194  -0.000   0.199
   39        0.003   0.078   0.000   0.081
   40        0.003   0.109   0.000   0.112
   41        0.003   0.111   0.000   0.114
   42        0.002   0.083   0.000   0.085
   43        0.001   0.033   0.000   0.035
   44        0.009   0.445   0.000   0.454
   45       -0.000  -0.007   0.000  -0.007
   46       -0.000  -0.048   0.000  -0.048
   47        0.001   0.065   0.000   0.066
   48        0.001   0.008   0.000   0.008
   49        0.003   0.059   0.000   0.062
   50        0.001   0.027   0.000   0.028
   51       -0.000  -0.018   0.000  -0.018
   52        0.000  -0.015   0.000  -0.015
   53        0.000   0.011  -0.000   0.011
   54        0.002   0.064   0.000   0.065
   55        0.000  -0.016  -0.000  -0.016
   56        0.003   0.138   0.000   0.141
   57        0.002   0.062   0.000   0.063
   58        0.003   0.014   0.000   0.017
   59        0.003   0.086  -0.000   0.088
   60        0.000  -0.008   0.000  -0.008
   61        0.002   0.095  -0.000   0.097
   62        0.001   0.068   0.000   0.069
   63        0.002   0.067   0.000   0.069
   64        0.003   0.064   0.000   0.067
   65        0.001   0.054   0.000   0.055
   66        0.002   0.016   0.000   0.018
   67        0.001   0.027   0.000   0.028
   68       -0.000  -0.016   0.000  -0.016
   69        0.001   0.024   0.000   0.025
   70        0.001   0.001  -0.000   0.002
   71        0.000   0.021  -0.000   0.021
   72        0.001   0.010   0.000   0.010
   73        0.002   0.054  -0.000   0.055
   74       -0.000  -0.012  -0.000  -0.012
   75        0.004   0.126   0.000   0.130
   76        0.002   0.042   0.000   0.045
   77        0.003   0.096  -0.000   0.099
   78        0.005   0.077   0.000   0.082
   79       -0.000  -0.034   0.000  -0.035
   80        0.003   0.171   0.000   0.174
--------------------------------------------------
tot           0.13    2.66    5.09    7.88
 

 total amount of memory used by VASP MPI-rank0   567394. kBytes
=======================================================================

   base      :      30000. kBytes
   nonlr-proj:      52681. kBytes
   fftplans  :      10810. kBytes
   grid      :      61419. kBytes
   one-center:       2488. kBytes
   wavefun   :     409996. kBytes
 
  
  
 General timing and accounting informations for this job:
 ========================================================
  
                  Total CPU time used (sec):    13535.382
                            User time (sec):    13524.540
                          System time (sec):       10.842
                         Elapsed time (sec):    13573.069
  
                   Maximum memory used (kb):      677920.
                   Average memory used (kb):           0.
  
                          Minor page faults:        45302
                          Major page faults:           68
                 Voluntary context switches:         1285
