 vasp.5.4.4.18Apr17-6-g9f103f2a35 (build May 12 2020 04:58:55) complex          
  
 MD_VERSION_INFO: Compiled 2020-05-12T11:58:55-UTC in devlin.sd.materialsdesign.
 com:/home/medea2/data/build/wwolf/vasp-gpu5.4.4/13047/x86_64/src/src/build/std 
 from svn 13047
 
 This VASP executable licensed from Materials Design, Inc.
 
 executed on                        Lin64 date 2023.03.25  20:45:49
 running on   16 total cores
 distrk:  each k-point on   16 cores,    1 groups
 distr:  one band on NCORES_PER_BAND=   1 cores,   16 groups


--------------------------------------------------------------------------------------------------------


 INCAR:
 POTCAR:    PAW_PBE Ni 02Aug2007                  
 POTCAR:    PAW_PBE O 08Apr2002                   

 ----------------------------------------------------------------------------- 
|                                                                             |
|           W    W    AA    RRRRR   N    N  II  N    N   GGGG   !!!           |
|           W    W   A  A   R    R  NN   N  II  NN   N  G    G  !!!           |
|           W    W  A    A  R    R  N N  N  II  N N  N  G       !!!           |
|           W WW W  AAAAAA  RRRRR   N  N N  II  N  N N  G  GGG   !            |
|           WW  WW  A    A  R   R   N   NN  II  N   NN  G    G                |
|           W    W  A    A  R    R  N    N  II  N    N   GGGG   !!!           |
|                                                                             |
|      For optimal performance we recommend to set                            |
|        NCORE= 4 - approx SQRT( number of cores)                             |
|      NCORE specifies how many cores store one orbital (NPAR=cpu/NCORE).     |
|      This setting can  greatly improve the performance of VASP for DFT.     |
|      The default,   NCORE=1            might be grossly inefficient         |
|      on modern multi-core architectures or massively parallel machines.     |
|      Do your own testing !!!!                                               |
|      Unfortunately you need to use the default for GW and RPA calculations. |
|      (for HF NCORE is supported but not extensively tested yet)             |
|                                                                             |
 ----------------------------------------------------------------------------- 

 POTCAR:    PAW_PBE Ni 02Aug2007                  
  local pseudopotential read in
  partial core-charges read in
  partial kinetic energy density read in
  atomic valenz-charges read in
  non local Contribution for L=           2  read in
    real space projection operators read in
  non local Contribution for L=           2  read in
    real space projection operators read in
  non local Contribution for L=           0  read in
    real space projection operators read in
  non local Contribution for L=           0  read in
    real space projection operators read in
  non local Contribution for L=           1  read in
    real space projection operators read in
  non local Contribution for L=           1  read in
    real space projection operators read in
    PAW grid and wavefunctions read in
 
   number of l-projection  operators is LMAX  =           6
   number of lm-projection operators is LMMAX =          18
 
 POTCAR:    PAW_PBE O 08Apr2002                   
  local pseudopotential read in
  partial core-charges read in
  partial kinetic energy density read in
  kinetic energy density of atom read in
  atomic valenz-charges read in
  non local Contribution for L=           0  read in
    real space projection operators read in
  non local Contribution for L=           0  read in
    real space projection operators read in
  non local Contribution for L=           1  read in
    real space projection operators read in
  non local Contribution for L=           1  read in
    real space projection operators read in
    PAW grid and wavefunctions read in
 
   number of l-projection  operators is LMAX  =           4
   number of lm-projection operators is LMMAX =           8
 
 Optimization of the real space projectors (new method)

 maximal supplied QI-value         = 16.25
 optimisation between [QCUT,QGAM] = [ 11.38, 22.75] = [ 36.24,144.96] Ry 
 Optimized for a Real-space Cutoff    1.47 Angstroem

   l    n(q)    QCUT    max X(q) W(low)/X(q) W(high)/X(q)  e(spline) 
   2      9    11.376    60.317    0.17E-03    0.16E-04    0.16E-06
   2      9    11.376    55.921    0.17E-03    0.16E-04    0.17E-06
   0     10    11.376    51.690    0.45E-04    0.60E-04    0.21E-06
   0     10    11.376    30.015    0.37E-04    0.55E-04    0.19E-06
   1     10    11.376    18.849    0.83E-04    0.11E-03    0.92E-07
   1     10    11.376    14.624    0.69E-04    0.92E-04    0.82E-07
 Optimization of the real space projectors (new method)

 maximal supplied QI-value         = 24.76
 optimisation between [QCUT,QGAM] = [ 11.39, 22.77] = [ 36.31,145.25] Ry 
 Optimized for a Real-space Cutoff    1.10 Angstroem

   l    n(q)    QCUT    max X(q) W(low)/X(q) W(high)/X(q)  e(spline) 
   0      7    11.387    20.381    0.22E-03    0.48E-03    0.18E-06
   0      7    11.387    15.268    0.22E-03    0.52E-03    0.19E-06
   1      7    11.387     5.964    0.22E-03    0.73E-03    0.24E-06
   1      7    11.387     5.382    0.19E-03    0.60E-03    0.21E-06

 ----------------------------------------------------------------------------- 
|                                                                             |
|  ADVICE TO THIS USER RUNNING 'VASP/VAMP'   (HEAR YOUR MASTER'S VOICE ...):  |
|                                                                             |
|      You enforced a specific xc-type in the INCAR file,                     |
|      a different type was found on the POTCAR file                          |
|          I HOPE YOU KNOW, WHAT YOU ARE  DOING                               |
|                                                                             |
 ----------------------------------------------------------------------------- 

  PAW_PBE Ni 02Aug2007                  :
 energy of atom  1       EATOM=-1077.6739
 kinetic energy error for atom=    0.0030 (will be added to EATOM!!)
  PAW_PBE O 08Apr2002                   :
 energy of atom  2       EATOM= -432.3788
 kinetic energy error for atom=    0.0224 (will be added to EATOM!!)
 
 
 POSCAR: Ni2O3_Cc_scale_0_975_disp_0_15_round_1  
  positions in direct lattice
  No initial velocities read in
 exchange correlation table for  LEXCH =       14
   RHO(1)=    0.500       N(1)  =     2000
   RHO(2)=  100.500       N(2)  =     4000
 


--------------------------------------------------------------------------------------------------------


 ion  position               nearest neighbor table
   1  0.940  0.475  0.233-  67 1.57  33 1.64  38 1.91  60 1.98   8 2.67   6 2.87
   2  0.766  0.222  0.250-  40 1.73  38 1.76  36 1.83  37 1.90   8 2.61  16 2.98   3 3.03
   3  0.427  0.306  0.000-  35 1.72  54 1.76  40 1.88  39 2.02  14 2.65  13 2.77   8 2.94   2 3.03
                            20 3.05
   4  0.271  0.049  0.023-  39 1.66  59 1.78  58 1.82  55 1.91   7 2.79  22 2.90   5 3.00  19 3.02
                            25 3.07
   5  0.409  0.223  0.260-  42 1.63  44 1.95  39 2.05  37 2.06  22 2.79   6 2.83  11 2.84   4 3.00

   6  0.270  0.454  0.263-  42 1.82  34 1.85  68 2.02  67 2.10   5 2.83   1 2.87  11 3.02
   7  0.938  0.033  0.970-  48 1.24  58 1.60  57 1.78  41 2.04  25 2.26   4 2.79  10 2.81  22 3.08

   8  0.771  0.303  0.041-  40 1.64  49 1.88  33 2.08  41 2.09   2 2.61   1 2.67   3 2.94
   9  0.943  0.458  0.787-  50 1.67  79 1.74  72 1.82  45 2.08  23 2.69  20 2.76
  10  0.757  0.212  0.766-  50 1.65  52 1.68  48 1.85  49 1.94   7 2.81  11 2.96  25 3.00
  11  0.435  0.285  0.507-  42 1.72  52 1.73  51 1.98  47 2.05   5 2.84  10 2.96   6 3.02
  12  0.264  0.047  0.525-  71 1.59  43 1.62  70 1.74  51 1.87  30 2.75  17 2.98  27 2.98  22 3.08

  13  0.422  0.222  0.774-  49 1.84  56 1.85  51 1.94  54 1.98  14 2.71   3 2.77  30 2.78
  14  0.308  0.449  0.783-  54 1.29  80 1.56  79 2.28  46 2.34   3 2.65  13 2.71  20 2.88
  15  0.939  0.037  0.543-  70 1.61  53 1.76  69 1.77  36 2.18  30 2.74  16 2.81  32 2.86  25 2.94

  16  0.800  0.274  0.514-  53 1.64  37 1.67  45 1.85  52 2.15  15 2.81   2 2.98
  17  0.939  0.959  0.275-  62 1.45  36 1.88  43 1.93  57 2.29  18 2.56  12 2.98  22 3.07
  18  0.818  0.745  0.266-  62 1.24  60 2.10  64 2.12  61 2.29  17 2.56  24 2.93  19 3.07
  19  0.456  0.819  0.025-  64 1.55  63 1.78  78 1.82  59 1.83  24 2.87  21 2.98   4 3.02  29 3.02
                            18 3.07
  20  0.260  0.553  0.987-  79 1.53  35 1.80  34 1.90  63 1.96   9 2.76  23 2.80  14 2.88   3 3.05

  21  0.399  0.726  0.238-  68 1.75  66 1.92  61 2.04  63 2.07  19 2.98
  22  0.258  0.001  0.262-  58 1.72  44 1.75  43 1.78  66 1.95   5 2.79   4 2.90  17 3.07   7 3.08
                            12 3.08
  23  0.964  0.581  0.996-  65 1.50  72 1.60  34 1.83  33 1.97   9 2.69  20 2.80  26 2.89
  24  0.747  0.811  0.997-  73 1.49  64 1.86  65 2.03  57 2.12  26 2.87  19 2.87  18 2.93  29 3.02

  25  0.918  0.968  0.777-  55 1.70  48 1.77  74 1.83  69 1.83   7 2.26  26 2.59  15 2.94  10 3.00
                             4 3.07
  26  0.787  0.757  0.776-  74 1.72  76 1.96  73 2.16  72 2.29  65 2.50  25 2.59  24 2.87  23 2.89
                            32 3.06
  27  0.422  0.815  0.507-  66 1.76  76 1.93  75 1.97  71 2.06  12 2.98
  28  0.272  0.561  0.514-  75 1.63  67 1.81  46 1.87  47 1.88  31 2.92  29 3.01
  29  0.400  0.720  0.763-  78 1.76  75 1.87  80 1.96  73 1.99  28 3.01  19 3.02  24 3.02
  30  0.271  0.996  0.758-  56 1.47  70 1.97  55 2.00  78 2.04  15 2.74  12 2.75  13 2.78
  31  0.955  0.553  0.515-  46 1.45  77 1.85  60 1.88  45 2.13  28 2.92  32 3.06
  32  0.795  0.798  0.520-  77 1.61  61 1.78  69 1.80  76 1.95  15 2.86  26 3.06  31 3.06
  33  0.849  0.486  0.067-   1 1.64  23 1.97   8 2.08
  34  0.159  0.486  0.078-  23 1.83   6 1.85  20 1.90
  35  0.448  0.456  0.055-   3 1.72  20 1.80
  36  0.824  0.068  0.325-   2 1.83  17 1.88  15 2.18
  37  0.662  0.275  0.345-  16 1.67   2 1.90   5 2.06
  38  0.948  0.315  0.304-   2 1.76   1 1.91
  39  0.293  0.200  0.054-   4 1.66   3 2.02   5 2.05
  40  0.643  0.228  0.074-   8 1.64   2 1.73   3 1.88
  41  0.973  0.205  0.052-   7 2.04   8 2.09
  42  0.329  0.299  0.333-   5 1.63  11 1.72   6 1.82
  43  0.169  0.026  0.362-  12 1.62  22 1.78  17 1.93
  44  0.462  0.048  0.304-  22 1.75   5 1.95
  45  0.828  0.433  0.578-  16 1.85   9 2.08  31 2.13
  46  0.115  0.492  0.551-  31 1.45  28 1.87  14 2.34
  47  0.468  0.466  0.565-  28 1.88  11 2.05
  48  0.827  0.060  0.849-   7 1.24  25 1.77  10 1.85
  49  0.644  0.281  0.851-  13 1.84   8 1.88  10 1.94
  50  0.912  0.308  0.793-  10 1.65   9 1.67
  51  0.300  0.213  0.577-  12 1.87  13 1.94  11 1.98
  52  0.645  0.229  0.595-  10 1.68  11 1.73  16 2.15
  53  0.978  0.196  0.570-  16 1.64  15 1.76
  54  0.302  0.340  0.824-  14 1.29   3 1.76  13 1.98
  55  0.120  0.019  0.831-  25 1.70   4 1.91  30 2.00
  56  0.436  0.054  0.797-  30 1.47  13 1.85
  57  0.824  0.998  0.049-   7 1.78  24 2.12  17 2.29
  58  0.136  0.007  0.086-   7 1.60  22 1.72   4 1.82
  59  0.474  0.982  0.073-   4 1.78  19 1.83
  60  0.838  0.560  0.323-  31 1.88   1 1.98  18 2.10
  61  0.641  0.800  0.340-  32 1.78  21 2.04  18 2.29
  62  0.915  0.836  0.308-  18 1.24  17 1.45
  63  0.300  0.728  0.031-  19 1.78  20 1.96  21 2.07
  64  0.615  0.741  0.057-  19 1.55  24 1.86  18 2.12
  65  0.950  0.712  0.026-  23 1.50  24 2.03  26 2.50
  66  0.333  0.835  0.331-  27 1.76  21 1.92  22 1.95
  67  0.124  0.533  0.334-   1 1.57  28 1.81   6 2.10
  68  0.458  0.576  0.305-  21 1.75   6 2.02
  69  0.822  0.949  0.594-  15 1.77  32 1.80  25 1.83
  70  0.114  0.991  0.557-  15 1.61  12 1.74  30 1.97
  71  0.449  0.994  0.572-  12 1.59  27 2.06
  72  0.825  0.554  0.837-  23 1.60   9 1.82  26 2.29
  73  0.623  0.811  0.846-  24 1.49  29 1.99  26 2.16
  74  0.992  0.811  0.835-  26 1.72  25 1.83
  75  0.330  0.698  0.581-  28 1.63  29 1.87  27 1.97
  76  0.644  0.738  0.576-  27 1.93  32 1.95  26 1.96
  77  0.960  0.719  0.550-  32 1.61  31 1.85
  78  0.329  0.822  0.839-  29 1.76  19 1.82  30 2.04
  79  0.128  0.542  0.834-  20 1.53   9 1.74  14 2.28
  80  0.449  0.552  0.839-  14 1.56  29 1.96
 
  LATTYP: Found a simple monoclinic cell.
 ALAT       =    15.5489632352
 B/A-ratio  =     0.6987547874
 C/A-ratio  =     1.5833429408
 COS(beta)  =    -0.9717709890
  
  Lattice vectors:
  
 A1 = ( -12.0843842100,   0.0000000000,  -9.7845754100)
 A2 = (   0.0000000000, -10.8649125000,   0.0000000000)
 A3 = (  14.9385506700,   0.0000000000,  19.5691508200)


Analysis of symmetry for initial positions (statically):
=====================================================================
 Subroutine PRICEL returns:
 Original cell was already a primitive cell.
 

 Routine SETGRP: Setting up the symmetry group for a 
 simple monoclinic supercell.


 Subroutine GETGRP returns: Found  1 space group operations
 (whereof  1 operations were pure point group operations)
 out of a pool of  4 trial point group operations.


The static configuration has the point symmetry C_1 .


Analysis of symmetry for dynamics (positions and initial velocities):
=====================================================================
 Subroutine PRICEL returns:
 Original cell was already a primitive cell.
 

 Routine SETGRP: Setting up the symmetry group for a 
 simple monoclinic supercell.


 Subroutine GETGRP returns: Found  1 space group operations
 (whereof  1 operations were pure point group operations)
 out of a pool of  4 trial point group operations.


The dynamic configuration has the point symmetry C_1 .


Analysis of structural, dynamic, and magnetic symmetry:
=====================================================================
 Subroutine PRICEL returns:
 Original cell was already a primitive cell.
 

 Routine SETGRP: Setting up the symmetry group for a 
 simple monoclinic supercell.


 Subroutine GETGRP returns: Found  1 space group operations
 (whereof  1 operations were pure point group operations)
 out of a pool of  4 trial point group operations.


The magnetic configuration has the point symmetry C_1 .


 Subroutine INISYM returns: Found  1 space group operations
 (whereof  1 operations are pure point group operations),
 and found     1 'primitive' translations

 
 
 KPOINTS: Automatic mesh                          

Automatic generation of k-mesh.
Space group operators:
 irot       det(A)        alpha          n_x          n_y          n_z        tau_x        tau_y        tau_z
    1     1.000000     0.000000     1.000000     0.000000     0.000000     0.000000     0.000000     0.000000
 
 Subroutine IBZKPT returns following result:
 ===========================================
 
 Found     19 irreducible k-points:
 
 Following reciprocal coordinates:
            Coordinates               Weight
  0.000000  0.000000  0.000000      1.000000
  0.250000  0.000000  0.000000      2.000000
  0.500000  0.000000  0.000000      1.000000
  0.000000  0.333333  0.000000      2.000000
  0.250000  0.333333  0.000000      2.000000
  0.500000  0.333333  0.000000      2.000000
 -0.250000  0.333333 -0.000000      2.000000
  0.000000  0.000000  0.333333      2.000000
  0.250000  0.000000  0.333333      2.000000
  0.500000  0.000000  0.333333      2.000000
 -0.250000  0.000000  0.333333      2.000000
  0.000000  0.333333  0.333333      2.000000
  0.250000  0.333333  0.333333      2.000000
  0.500000  0.333333  0.333333      2.000000
 -0.250000  0.333333  0.333333      2.000000
  0.000000 -0.333333  0.333333      2.000000
  0.250000 -0.333333  0.333333      2.000000
  0.500000 -0.333333  0.333333      2.000000
 -0.250000 -0.333333  0.333333      2.000000
 
 Following cartesian coordinates:
            Coordinates               Weight
  0.000000  0.000000  0.000000      1.000000
  0.027085  0.000000  0.017650      2.000000
  0.054170  0.000000  0.035299      1.000000
  0.000000  0.030680  0.000000      2.000000
  0.027085  0.030680  0.017650      2.000000
  0.054170  0.030680  0.035299      2.000000
 -0.027085  0.030680 -0.017650      2.000000
  0.000000  0.000000  0.034067      2.000000
  0.027085  0.000000  0.051717      2.000000
  0.054170  0.000000  0.069367      2.000000
 -0.027085  0.000000  0.016418      2.000000
  0.000000  0.030680  0.034067      2.000000
  0.027085  0.030680  0.051717      2.000000
  0.054170  0.030680  0.069367      2.000000
 -0.027085  0.030680  0.016418      2.000000
  0.000000 -0.030680  0.034067      2.000000
  0.027085 -0.030680  0.051717      2.000000
  0.054170 -0.030680  0.069367      2.000000
 -0.027085 -0.030680  0.016418      2.000000
 


--------------------------------------------------------------------------------------------------------




 Dimension of arrays:
   k-points           NKPTS =     19   k-points in BZ     NKDIM =     19   number of bands    NBANDS=    416
   number of dos      NEDOS =    301   number of ions     NIONS =     80
   non local maximal  LDIM  =      6   non local SUM 2l+1 LMDIM =     18
   total plane-waves  NPLWV = 504000
   max r-space proj   IRMAX =   6945   max aug-charges    IRDMAX=  16847
   dimension x,y,z NGX =    70 NGY =   80 NGZ =   90
   dimension x,y,z NGXF=   140 NGYF=  160 NGZF=  180
   support grid    NGXF=   140 NGYF=  160 NGZF=  180
   ions per type =              32  48
   NGX,Y,Z   is equivalent  to a cutoff of  12.61, 12.24, 12.81 a.u.
   NGXF,Y,Z  is equivalent  to a cutoff of  25.22, 24.48, 25.62 a.u.

 SYSTEM =  unknown system                          
 POSCAR =  Ni2O3_Cc_scale_0_975_disp_0_15_round_1  

 Startparameter for this run:
   NWRITE =      1    write-flag & timer
   PREC   = accura    normal or accurate (medium, high low for compatibility)
   ISTART =      0    job   : 0-new  1-cont  2-samecut
   ICHARG =      2    charge: 1-file 2-atom 10-const
   ISPIN  =      2    spin polarized calculation?
   LNONCOLLINEAR =      F non collinear calculations
   LSORBIT =      F    spin-orbit coupling
   INIWAV =      1    electr: 0-lowe 1-rand  2-diag
   LASPH  =      F    aspherical Exc in radial PAW
   METAGGA=      F    non-selfconsistent MetaGGA calc.

 Electronic Relaxation 1
   ENCUT  =  500.0 eV  36.75 Ry    6.06 a.u.  16.83 19.81 21.29*2*pi/ulx,y,z
   ENINI  =  500.0     initial cutoff
   ENAUG  =  605.4 eV  augmentation charge cutoff
   NELM   =     80;   NELMIN=  2; NELMDL= -5     # of ELM steps 
   EDIFF  = 0.1E-04   stopping-criterion for ELM
   LREAL  =      T    real-space projection
   NLSPLINE    = F    spline interpolate recip. space projectors
   LCOMPAT=      F    compatible to vasp.4.4
   GGA_COMPAT  = T    GGA compatible to vasp.4.4-vasp.4.6
   LMAXPAW     = -100 max onsite density
   LMAXMIX     =    2 max onsite mixed and CHGCAR
   VOSKOWN=      1    Vosko Wilk Nusair interpolation
   ROPT   =   -0.00025  -0.00025
 Ionic relaxation
   EDIFFG = 0.1E-03   stopping-criterion for IOM
   NSW    =      0    number of steps for IOM
   NBLOCK =      1;   KBLOCK =      1    inner block; outer block 
   IBRION =     -1    ionic relax: 0-MD 1-quasi-New 2-CG
   NFREE  =      0    steps in history (QN), initial steepest desc. (CG)
   ISIF   =      2    stress and relaxation
   IWAVPR =     10    prediction:  0-non 1-charg 2-wave 3-comb
   ISYM   =      2    0-nonsym 1-usesym 2-fastsym
   LCORR  =      T    Harris-Foulkes like correction to forces

   POTIM  = 0.5000    time-step for ionic-motion
   TEIN   =    0.0    initial temperature
   TEBEG  =    0.0;   TEEND  =   0.0 temperature during run
   SMASS  =  -3.00    Nose mass-parameter (am)
   estimated Nose-frequenzy (Omega)   =  0.10E-29 period in steps =****** mass=  -0.195E-26a.u.
   SCALEE = 1.0000    scale energy and forces
   NPACO  =    256;   APACO  = 16.0  distance and # of slots for P.C.
   PSTRESS=    0.0 pullay stress

  Mass of Ions in am
   POMASS =  58.69 16.00
  Ionic Valenz
   ZVAL   =  10.00  6.00
  Atomic Wigner-Seitz radii
   RWIGS  =   1.15  0.73
  virtual crystal weights 
   VCA    =   1.00  1.00
   NELECT =     608.0000    total number of electrons
   NUPDOWN=      -1.0000    fix difference up-down

 DOS related values:
   EMIN   =  10.00;   EMAX   =-10.00  energy-range for DOS
   EFERMI =   0.00
   ISMEAR =     0;   SIGMA  =   0.05  broadening in eV -4-tet -1-fermi 0-gaus

 Electronic relaxation 2 (details)
   IALGO  =     38    algorithm
   LDIAG  =      T    sub-space diagonalisation (order eigenvalues)
   LSUBROT=      F    optimize rotation matrix (better conditioning)
   TURBO    =      0    0=normal 1=particle mesh
   IRESTART =      0    0=no restart 2=restart with 2 vectors
   NREBOOT  =      0    no. of reboots
   NMIN     =      0    reboot dimension
   EREF     =   0.00    reference energy to select bands
   IMIX   =      4    mixing-type and parameters
     AMIX     =   0.40;   BMIX     =  1.00
     AMIX_MAG =   1.60;   BMIX_MAG =  1.00
     AMIN     =   0.10
     WC   =   100.;   INIMIX=   1;  MIXPRE=   1;  MAXMIX= -45

 Intra band minimization:
   WEIMIN = 0.0000     energy-eigenvalue tresh-hold
   EBREAK =  0.60E-08  absolut break condition
   DEPER  =   0.30     relativ break condition  

   TIME   =   0.40     timestep for ELM

  volume/ion in A,a.u.               =      12.27        82.77
  Fermi-wavevector in a.u.,A,eV,Ry     =   1.395670  2.637433 26.502704  1.947894
  Thomas-Fermi vector in A             =   2.519099
 
 Write flags
   LWAVE        =      F    write WAVECAR
   LDOWNSAMPLE  =      F    k-point downsampling of WAVECAR
   LCHARG       =      T    write CHGCAR
   LVTOT        =      F    write LOCPOT, total local potential
   LVHAR        =      F    write LOCPOT, Hartree potential only
   LELF         =      F    write electronic localiz. function (ELF)
   LORBIT       =      0    0 simple, 1 ext, 2 COOP (PROOUT), +10 PAW based schemes


 Dipole corrections
   LMONO  =      F    monopole corrections only (constant potential shift)
   LDIPOL =      F    correct potential (dipole corrections)
   IDIPOL =      0    1-x, 2-y, 3-z, 4-all directions 
   EPSILON=  1.0000000 bulk dielectric constant

 Exchange correlation treatment:
   GGA     =    PS    GGA type
   LEXCH   =    14    internal setting for exchange type
   VOSKOWN=      1    Vosko Wilk Nusair interpolation
   LHFCALC =     F    Hartree Fock is set to
   LHFONE  =     F    Hartree Fock one center treatment
   AEXX    =    0.0000 exact exchange contribution

 Linear response parameters
   LEPSILON=     F    determine dielectric tensor
   LRPA    =     F    only Hartree local field effects (RPA)
   LNABLA  =     F    use nabla operator in PAW spheres
   LVEL    =     F    velocity operator in full k-point grid
   LINTERFAST=   F  fast interpolation
   KINTER  =     0    interpolate to denser k-point grid
   CSHIFT  =0.1000    complex shift for real part using Kramers Kronig
   OMEGAMAX=  -1.0    maximum frequency
   DEG_THRESHOLD= 0.2000000E-02 threshold for treating states as degnerate
   RTIME   =   -0.100 relaxation time in fs
  (WPLASMAI=    0.000 imaginary part of plasma frequency in eV, 0.658/RTIME)
   DFIELD  = 0.0000000 0.0000000 0.0000000 field for delta impulse in time
 
 Orbital magnetization related:
   ORBITALMAG=     F  switch on orbital magnetization
   LCHIMAG   =     F  perturbation theory with respect to B field
   DQ        =  0.001000  dq finite difference perturbation B field
   LLRAUG    =     F  two centre corrections for induced B field



--------------------------------------------------------------------------------------------------------


 Static calculation
 charge density and potential will be updated during run
 spin polarized calculation
 Variant of blocked Davidson
 Davidson routine will perform the subspace rotation
 perform sub-space diagonalisation
    after iterative eigenvector-optimisation
 modified Broyden-mixing scheme, WC =      100.0
 initial mixing is a Kerker type mixing with AMIX =  0.4000 and BMIX =      1.0000
 Hartree-type preconditioning will be used
 using additional bands          112
 real space projection scheme for non local part
 use partial core corrections
 calculate Harris-corrections to forces 
   (improved forces if not selfconsistent)
 use gradient corrections 
 use of overlap-Matrix (Vanderbilt PP)
 Gauss-broadening in eV      SIGMA  =   0.05


--------------------------------------------------------------------------------------------------------


  energy-cutoff  :      500.00
  volume of cell :      981.25
      direct lattice vectors                 reciprocal lattice vectors
     9.230217750  0.000000000  0.000000000     0.108339806  0.000000000  0.070598890
     0.000000000 10.864912500  0.000000000     0.000000000  0.092039397  0.000000000
    -6.376051290  0.000000000  9.784575410     0.000000000  0.000000000  0.102201675

  length of vectors
     9.230217750 10.864912500 11.678696246     0.129312477  0.092039397  0.102201675


 
 k-points in units of 2pi/SCALE and weight: Automatic mesh                          
   0.00000000  0.00000000  0.00000000       0.028
   0.02708495  0.00000000  0.01764972       0.056
   0.05416990  0.00000000  0.03529944       0.028
   0.00000000  0.03067980  0.00000000       0.056
   0.02708495  0.03067980  0.01764972       0.056
   0.05416990  0.03067980  0.03529944       0.056
  -0.02708495  0.03067980 -0.01764972       0.056
   0.00000000  0.00000000  0.03406723       0.056
   0.02708495  0.00000000  0.05171695       0.056
   0.05416990  0.00000000  0.06936667       0.056
  -0.02708495  0.00000000  0.01641750       0.056
   0.00000000  0.03067980  0.03406723       0.056
   0.02708495  0.03067980  0.05171695       0.056
   0.05416990  0.03067980  0.06936667       0.056
  -0.02708495  0.03067980  0.01641750       0.056
   0.00000000 -0.03067980  0.03406723       0.056
   0.02708495 -0.03067980  0.05171695       0.056
   0.05416990 -0.03067980  0.06936667       0.056
  -0.02708495 -0.03067980  0.01641750       0.056
 
 k-points in reciprocal lattice and weights: Automatic mesh                          
   0.00000000  0.00000000  0.00000000       0.028
   0.25000000  0.00000000  0.00000000       0.056
   0.50000000  0.00000000  0.00000000       0.028
   0.00000000  0.33333333  0.00000000       0.056
   0.25000000  0.33333333  0.00000000       0.056
   0.50000000  0.33333333  0.00000000       0.056
  -0.25000000  0.33333333 -0.00000000       0.056
   0.00000000  0.00000000  0.33333333       0.056
   0.25000000  0.00000000  0.33333333       0.056
   0.50000000  0.00000000  0.33333333       0.056
  -0.25000000  0.00000000  0.33333333       0.056
   0.00000000  0.33333333  0.33333333       0.056
   0.25000000  0.33333333  0.33333333       0.056
   0.50000000  0.33333333  0.33333333       0.056
  -0.25000000  0.33333333  0.33333333       0.056
   0.00000000 -0.33333333  0.33333333       0.056
   0.25000000 -0.33333333  0.33333333       0.056
   0.50000000 -0.33333333  0.33333333       0.056
  -0.25000000 -0.33333333  0.33333333       0.056
 
 position of ions in fractional coordinates (direct lattice) 
   0.94026891  0.47477764  0.23275991
   0.76617663  0.22206529  0.25008911
   0.42653463  0.30582682  0.00010681
   0.27102049  0.04890140  0.02316081
   0.40891226  0.22268857  0.25995624
   0.26978294  0.45420561  0.26319989
   0.93817623  0.03301026  0.96972195
   0.77086338  0.30300667  0.04128010
   0.94317533  0.45797574  0.78657635
   0.75699321  0.21236721  0.76583448
   0.43533704  0.28474375  0.50730433
   0.26401775  0.04733208  0.52460422
   0.42200075  0.22214735  0.77409705
   0.30779173  0.44907369  0.78346268
   0.93903217  0.03690071  0.54329338
   0.79993425  0.27370700  0.51412328
   0.93877243  0.95949310  0.27540262
   0.81766894  0.74540447  0.26643605
   0.45633559  0.81945169  0.02543891
   0.26001004  0.55256897  0.98740165
   0.39879295  0.72564554  0.23765891
   0.25782398  0.00121685  0.26157753
   0.96421337  0.58071790  0.99563159
   0.74675689  0.81149059  0.99734736
   0.91755794  0.96834960  0.77745638
   0.78726970  0.75702653  0.77574514
   0.42185297  0.81470095  0.50664160
   0.27162750  0.56062367  0.51436081
   0.40048779  0.71961373  0.76327794
   0.27068964  0.99579389  0.75827644
   0.95537239  0.55284180  0.51490257
   0.79518282  0.79800620  0.51999742
   0.84915720  0.48581002  0.06749947
   0.15907920  0.48573210  0.07831339
   0.44803555  0.45550347  0.05469086
   0.82417354  0.06816723  0.32537935
   0.66249681  0.27509252  0.34458511
   0.94818398  0.31525869  0.30368771
   0.29323845  0.19955195  0.05364490
   0.64253646  0.22838453  0.07369846
   0.97270482  0.20464165  0.05225927
   0.32922300  0.29905930  0.33324601
   0.16891315  0.02615421  0.36203449
   0.46204853  0.04818331  0.30351435
   0.82825896  0.43328772  0.57805142
   0.11513855  0.49247647  0.55115878
   0.46832006  0.46646333  0.56452780
   0.82731898  0.05993181  0.84928755
   0.64361048  0.28099068  0.85082169
   0.91183250  0.30776545  0.79264539
   0.30049865  0.21279304  0.57658682
   0.64516693  0.22898034  0.59473658
   0.97838375  0.19580796  0.56996778
   0.30154490  0.33970672  0.82387573
   0.12013368  0.01852696  0.83141321
   0.43612704  0.05350303  0.79707408
   0.82409152  0.99782683  0.04876202
   0.13556864  0.00688583  0.08631224
   0.47351252  0.98162745  0.07326869
   0.83847290  0.55965102  0.32326794
   0.64117750  0.80012156  0.33977185
   0.91477499  0.83578176  0.30820019
   0.30021076  0.72827288  0.03079498
   0.61487147  0.74128841  0.05678060
   0.95013049  0.71238864  0.02642526
   0.33295247  0.83452162  0.33104141
   0.12409075  0.53256270  0.33373062
   0.45765901  0.57645448  0.30455304
   0.82192274  0.94873705  0.59392479
   0.11352407  0.99094390  0.55741110
   0.44871212  0.99443770  0.57164688
   0.82490895  0.55364518  0.83683238
   0.62287065  0.81114064  0.84585761
   0.99225672  0.81118439  0.83499192
   0.32978223  0.69796280  0.58108360
   0.64399389  0.73794992  0.57621182
   0.96024353  0.71897395  0.55007437
   0.32927609  0.82247856  0.83903023
   0.12839420  0.54236326  0.83375911
   0.44866156  0.55231228  0.83883592
 
 position of ions in cartesian coordinates  (Angst):
   7.19479766  5.15841752  2.27745689
   5.47739614  2.41271995  2.44701576
   3.93632649  3.32278164  0.00104509
   2.35390362  0.53130943  0.22661869
   2.11685488  2.41949183  2.54356143
   0.81197928  4.93490421  2.57529917
   2.47657400  0.35865359  9.48831755
   6.85203282  3.29214096  0.40390825
   3.69046252  4.97586634  7.69631561
   2.10421224  2.30735115  7.49336522
   0.78365725  3.09371593  4.96375747
  -0.90796209  0.51425891  5.13302955
  -1.04052368  2.41361152  7.57421096
  -2.15441354  4.87914635  7.66584967
   5.20340495  0.40092299  5.31589505
   4.10549091  2.97380261  5.03047800
   6.90909272 10.42480858  2.69469770
   5.84845244  8.09875434  2.60696362
   4.04987707  8.90327091  0.24890893
  -3.89577428  6.00361351  9.66130590
   2.16562037  7.88407530  2.32539153
   0.71193973  0.01322097  2.55942507
   2.55170128  6.30944917  9.74183237
   0.53359078  8.81677425  9.75862045
   3.51215783 10.52103367  7.60708058
   2.32047996  8.22502701  7.59033682
   0.66342194  8.85165454  4.95727294
  -0.77240993  6.09112712  5.03280213
  -1.17010979  7.81854021  7.46835056
  -2.33628515 10.81921348  7.41941301
   5.53525000  6.00657778  5.03810302
   4.02418036  8.67026754  5.08795397
   7.40752578  5.27828336  0.66045365
   0.96900546  5.27743676  0.76626327
   3.78675396  4.94900534  0.53512684
   5.53266581  0.74063099  3.18369879
   3.91789748  2.98885616  3.37161899
   6.81561619  3.42525808  2.97145530
   2.36461211  2.16811448  0.52489257
   5.46084628  2.48137793  0.72110814
   8.64506951  2.22341362  0.51133477
   0.91400633  3.24925313  3.26067071
  -0.74924532  0.28416320  3.54235377
   2.32958548  0.52350745  2.96975905
   3.95932505  4.70763317  5.65598771
  -2.45146276  5.35071375  5.39285465
   0.72323792  5.06808326  5.52366483
   2.22123336  0.65115387  8.30991808
   0.51578214  3.05293915  8.32492899
   3.36246487  3.34384468  7.75569859
  -0.90267916  2.31197776  5.64165722
   2.16296031  2.48785136  5.81924492
   5.39655126  2.12743635  5.57689272
  -2.46974882  3.69088379  8.06127421
  -4.19227324  0.20129380  8.13502525
  -1.05663767  0.58130574  7.79903144
   7.29563504 10.84130120  0.47711566
   0.70099680  0.07481394  0.84452862
   3.90345874 10.66529635  0.71690302
   5.67811448  6.08055936  3.16303954
   3.75180520  8.69325074  3.32452329
   6.47847213  9.08069569  3.01560800
   2.57466031  7.91262112  0.30131580
   5.31336154  8.05403371  0.55557406
   8.60142250  7.74004024  0.25855995
   0.96248679  9.06700438  3.23909964
  -0.98249891  5.78624714  3.26541242
   2.28244651  6.26312749  2.97992219
   3.79963094 10.30794503  5.81130190
  -2.50622988 10.76651877  5.45403094
   0.49686075 10.80447860  5.59332201
   2.27840306  6.01530644  8.18804953
   0.35600022  8.81297208  8.27635757
   3.83479428  8.81344742  8.17004141
  -0.66105704  7.58330475  5.68565630
   2.27024772  8.01776131  5.63798800
   5.35595448  7.81158906  5.38224415
  -2.31040977  8.93615759  8.20955456
  -4.13098443  5.89272936  8.15797889
  -1.20721695  6.00082459  8.20765332
 


--------------------------------------------------------------------------------------------------------


 k-point  1 :   0.0000 0.0000 0.0000  plane waves:   24843
 k-point  2 :   0.2500 0.0000 0.0000  plane waves:   24890
 k-point  3 :   0.5000 0.0000 0.0000  plane waves:   24924
 k-point  4 :   0.0000 0.3333 0.0000  plane waves:   24968
 k-point  5 :   0.2500 0.3333 0.0000  plane waves:   24927
 k-point  6 :   0.5000 0.3333 0.0000  plane waves:   24910
 k-point  7 :  -0.2500 0.3333-0.0000  plane waves:   24927
 k-point  8 :   0.0000 0.0000 0.3333  plane waves:   24872
 k-point  9 :   0.2500 0.0000 0.3333  plane waves:   24913
 k-point 10 :   0.5000 0.0000 0.3333  plane waves:   24924
 k-point 11 :  -0.2500 0.0000 0.3333  plane waves:   24928
 k-point 12 :   0.0000 0.3333 0.3333  plane waves:   24903
 k-point 13 :   0.2500 0.3333 0.3333  plane waves:   24901
 k-point 14 :   0.5000 0.3333 0.3333  plane waves:   24924
 k-point 15 :  -0.2500 0.3333 0.3333  plane waves:   24916
 k-point 16 :   0.0000-0.3333 0.3333  plane waves:   24903
 k-point 17 :   0.2500-0.3333 0.3333  plane waves:   24901
 k-point 18 :   0.5000-0.3333 0.3333  plane waves:   24924
 k-point 19 :  -0.2500-0.3333 0.3333  plane waves:   24916

 maximum and minimum number of plane-waves per node :     24968    24843

 maximum number of plane-waves:     24968
 maximum index in each direction: 
   IXMAX=   17   IYMAX=   20   IZMAX=   21
   IXMIN=  -17   IYMIN=  -20   IZMIN=  -21

 The following grids will avoid any aliasing or wrap around errors in the Hartre
 e energy
  - symmetry arguments have not been applied
  - exchange correlation energies might require even more grid points
  - we recommend to set PREC=Normal or Accurate and rely on VASP defaults
 NGX is ok and might be reduce to    70
 WARNING: aliasing errors must be expected set NGY to    84 to avoid them
 NGZ is ok and might be reduce to    90

 serial   3D FFT for wavefunctions
 parallel 3D FFT for charge:
    minimum data exchange during FFTs selected (reduces bandwidth)


 total amount of memory used by VASP MPI-rank0   567400. kBytes
=======================================================================

   base      :      30000. kBytes
   nonlr-proj:      52687. kBytes
   fftplans  :      10810. kBytes
   grid      :      61419. kBytes
   one-center:       2488. kBytes
   wavefun   :     409996. kBytes
 
     INWAV:  cpu time    0.0000: real time    0.0000
 Broyden mixing: mesh for mixing (old mesh)
   NGX = 33   NGY = 39   NGZ = 43
  (NGX  =140   NGY  =160   NGZ  =180)
  gives a total of  55341 points

 initial charge density was supplied:
 charge density of overlapping atoms calculated
 number of electron     608.0000000 magnetization      80.0000000
 keeping initial charge density in first step


--------------------------------------------------------------------------------------------------------


 Maximum index for non-local projection operator         6719
 Maximum index for augmentation-charges         1209 (set IRDMAX)


--------------------------------------------------------------------------------------------------------


 First call to EWALD:  gamma=   0.178
 Maximum number of real-space cells 3x 3x 3
 Maximum number of reciprocal cells 3x 3x 3

    FEWALD:  cpu time    0.0031: real time    0.0031


--------------------------------------- Iteration      1(   1)  ---------------------------------------


    POTLOK:  cpu time    0.2556: real time    0.3061
    SETDIJ:  cpu time    0.0266: real time    0.0267
     EDDAV:  cpu time  119.2875: real time  121.0232
    --------------------------------------------
      LOOP:  cpu time  119.5720: real time  121.3584

 eigenvalue-minimisations  : 31616
 total energy-change (2. order) : 0.7562907E+04  (-0.2573512E+05)
 number of electron     608.0000000 magnetization      80.0000000
 augmentation part      608.0000000 magnetization      80.0000000

 Free energy of the ion-electron system (eV)
  ---------------------------------------------------
  alpha Z        PSCENC =      1699.99176552
  Ewald energy   TEWEN  =    -35497.82864988
  -Hartree energ DENC   =    -20433.73230027
  -exchange      EXHF   =         0.00000000
  -V(xc)+E(xc)   XCENC  =      2386.26107152
  PAW double counting   =     47387.14975297   -49597.44882166
  entropy T*S    EENTRO =        -0.02097670
  eigenvalues    EBANDS =      6481.32189265
  atomic energy  EATOM  =     55137.21312455
  Solvation  Ediel_sol  =         0.00000000
  ---------------------------------------------------
  free energy    TOTEN  =      7562.90685870 eV

  energy without entropy =     7562.92783540  energy(sigma->0) =     7562.91734705


--------------------------------------------------------------------------------------------------------




--------------------------------------- Iteration      1(   2)  ---------------------------------------


     EDDAV:  cpu time  120.0028: real time  120.2874
    --------------------------------------------
      LOOP:  cpu time  120.0031: real time  120.2877

 eigenvalue-minimisations  : 31616
 total energy-change (2. order) :-0.6391745E+04  (-0.5777599E+04)
 number of electron     608.0000000 magnetization      80.0000000
 augmentation part      608.0000000 magnetization      80.0000000

 Free energy of the ion-electron system (eV)
  ---------------------------------------------------
  alpha Z        PSCENC =      1699.99176552
  Ewald energy   TEWEN  =    -35497.82864988
  -Hartree energ DENC   =    -20433.73230027
  -exchange      EXHF   =         0.00000000
  -V(xc)+E(xc)   XCENC  =      2386.26107152
  PAW double counting   =     47387.14975297   -49597.44882166
  entropy T*S    EENTRO =        -0.04119330
  eigenvalues    EBANDS =        89.59736122
  atomic energy  EATOM  =     55137.21312455
  Solvation  Ediel_sol  =         0.00000000
  ---------------------------------------------------
  free energy    TOTEN  =      1171.16211067 eV

  energy without entropy =     1171.20330397  energy(sigma->0) =     1171.18270732


--------------------------------------------------------------------------------------------------------




--------------------------------------- Iteration      1(   3)  ---------------------------------------


     EDDAV:  cpu time  121.5084: real time  121.7964
    --------------------------------------------
      LOOP:  cpu time  121.5082: real time  121.7963

 eigenvalue-minimisations  : 32432
 total energy-change (2. order) :-0.1592730E+04  (-0.1424466E+04)
 number of electron     608.0000000 magnetization      80.0000000
 augmentation part      608.0000000 magnetization      80.0000000

 Free energy of the ion-electron system (eV)
  ---------------------------------------------------
  alpha Z        PSCENC =      1699.99176552
  Ewald energy   TEWEN  =    -35497.82864988
  -Hartree energ DENC   =    -20433.73230027
  -exchange      EXHF   =         0.00000000
  -V(xc)+E(xc)   XCENC  =      2386.26107152
  PAW double counting   =     47387.14975297   -49597.44882166
  entropy T*S    EENTRO =        -0.11005184
  eigenvalues    EBANDS =     -1503.06381868
  atomic energy  EATOM  =     55137.21312455
  Solvation  Ediel_sol  =         0.00000000
  ---------------------------------------------------
  free energy    TOTEN  =      -421.56792778 eV

  energy without entropy =     -421.45787593  energy(sigma->0) =     -421.51290186


--------------------------------------------------------------------------------------------------------




--------------------------------------- Iteration      1(   4)  ---------------------------------------


     EDDAV:  cpu time  130.3595: real time  130.6687
    --------------------------------------------
      LOOP:  cpu time  130.3595: real time  130.6687

 eigenvalue-minimisations  : 35776
 total energy-change (2. order) :-0.1912011E+03  (-0.1834287E+03)
 number of electron     608.0000000 magnetization      80.0000000
 augmentation part      608.0000000 magnetization      80.0000000

 Free energy of the ion-electron system (eV)
  ---------------------------------------------------
  alpha Z        PSCENC =      1699.99176552
  Ewald energy   TEWEN  =    -35497.82864988
  -Hartree energ DENC   =    -20433.73230027
  -exchange      EXHF   =         0.00000000
  -V(xc)+E(xc)   XCENC  =      2386.26107152
  PAW double counting   =     47387.14975297   -49597.44882166
  entropy T*S    EENTRO =        -0.13536461
  eigenvalues    EBANDS =     -1694.23960027
  atomic energy  EATOM  =     55137.21312455
  Solvation  Ediel_sol  =         0.00000000
  ---------------------------------------------------
  free energy    TOTEN  =      -612.76902213 eV

  energy without entropy =     -612.63365752  energy(sigma->0) =     -612.70133982


--------------------------------------------------------------------------------------------------------




--------------------------------------- Iteration      1(   5)  ---------------------------------------


     EDDAV:  cpu time  128.8717: real time  129.1774
    CHARGE:  cpu time    5.0897: real time    5.1018
    MIXING:  cpu time    0.0047: real time    0.0047
    --------------------------------------------
      LOOP:  cpu time  133.9635: real time  134.2813

 eigenvalue-minimisations  : 35184
 total energy-change (2. order) :-0.5699365E+01  (-0.5656915E+01)
 number of electron     608.0000006 magnetization      83.3730370
 augmentation part      200.1328051 magnetization      59.5389170

 Broyden mixing:
  rms(total) = 0.18393E+02    rms(broyden)= 0.18392E+02
  rms(prec ) = 0.20326E+02
  weight for this iteration     100.00

 Free energy of the ion-electron system (eV)
  ---------------------------------------------------
  alpha Z        PSCENC =      1699.99176552
  Ewald energy   TEWEN  =    -35497.82864988
  -Hartree energ DENC   =    -20433.73230027
  -exchange      EXHF   =         0.00000000
  -V(xc)+E(xc)   XCENC  =      2386.26107152
  PAW double counting   =     47387.14975297   -49597.44882166
  entropy T*S    EENTRO =        -0.13618817
  eigenvalues    EBANDS =     -1699.93814143
  atomic energy  EATOM  =     55137.21312455
  Solvation  Ediel_sol  =         0.00000000
  ---------------------------------------------------
  free energy    TOTEN  =      -618.46838686 eV

  energy without entropy =     -618.33219868  energy(sigma->0) =     -618.40029277


--------------------------------------------------------------------------------------------------------




--------------------------------------- Iteration      1(   6)  ---------------------------------------


    POTLOK:  cpu time    0.2274: real time    0.2279
    SETDIJ:  cpu time    0.0246: real time    0.0247
     EDDAV:  cpu time  162.1103: real time  162.4947
    CHARGE:  cpu time    4.9722: real time    4.9840
    MIXING:  cpu time    0.0049: real time    0.0049
    --------------------------------------------
      LOOP:  cpu time  167.3393: real time  167.7361

 eigenvalue-minimisations  : 46928
 total energy-change (2. order) :-0.8505496E+02  (-0.1315150E+03)
 number of electron     608.0000000 magnetization      73.9683513
 augmentation part      255.5555742 magnetization      67.5291327

 Broyden mixing:
  rms(total) = 0.25742E+02    rms(broyden)= 0.25741E+02
  rms(prec ) = 0.28453E+02
  weight for this iteration     100.00

 eigenvalues of (default mixing * dielectric matrix)
  average eigenvalue GAMMA=   0.2814
  0.2814

 Free energy of the ion-electron system (eV)
  ---------------------------------------------------
  alpha Z        PSCENC =      1699.99176552
  Ewald energy   TEWEN  =    -35497.82864988
  -Hartree energ DENC   =    -19597.02571959
  -exchange      EXHF   =         0.00000000
  -V(xc)+E(xc)   XCENC  =      2398.84908307
  PAW double counting   =     53566.73628010   -55502.38103309
  entropy T*S    EENTRO =        -0.07054509
  eigenvalues    EBANDS =     -2909.00765177
  atomic energy  EATOM  =     55137.21312455
  Solvation  Ediel_sol  =         0.00000000
  ---------------------------------------------------
  free energy    TOTEN  =      -703.52334618 eV

  energy without entropy =     -703.45280109  energy(sigma->0) =     -703.48807364


--------------------------------------------------------------------------------------------------------




--------------------------------------- Iteration      1(   7)  ---------------------------------------


    POTLOK:  cpu time    0.2259: real time    0.2264
    SETDIJ:  cpu time    0.0241: real time    0.0241
     EDDAV:  cpu time  153.6572: real time  154.0377
    CHARGE:  cpu time    6.0212: real time    6.0652
    MIXING:  cpu time    0.0108: real time    0.0571
    --------------------------------------------
      LOOP:  cpu time  159.9391: real time  160.4106

 eigenvalue-minimisations  : 39344
 total energy-change (2. order) : 0.2277962E+03  (-0.5105941E+02)
 number of electron     607.9999999 magnetization      64.9228994
 augmentation part      233.7721319 magnetization      51.4631578

 Broyden mixing:
  rms(total) = 0.12182E+02    rms(broyden)= 0.12181E+02
  rms(prec ) = 0.13752E+02
  weight for this iteration     100.00

 eigenvalues of (default mixing * dielectric matrix)
  average eigenvalue GAMMA=   0.4996
  0.4996  0.4996

 Free energy of the ion-electron system (eV)
  ---------------------------------------------------
  alpha Z        PSCENC =      1699.99176552
  Ewald energy   TEWEN  =    -35497.82864988
  -Hartree energ DENC   =    -19966.63109964
  -exchange      EXHF   =         0.00000000
  -V(xc)+E(xc)   XCENC  =      2378.63131801
  PAW double counting   =     56131.28438090   -58296.51136501
  entropy T*S    EENTRO =        -0.07816510
  eigenvalues    EBANDS =     -2061.79845269
  atomic energy  EATOM  =     55137.21312455
  Solvation  Ediel_sol  =         0.00000000
  ---------------------------------------------------
  free energy    TOTEN  =      -475.72714333 eV

  energy without entropy =     -475.64897823  energy(sigma->0) =     -475.68806078


--------------------------------------------------------------------------------------------------------




--------------------------------------- Iteration      1(   8)  ---------------------------------------


    POTLOK:  cpu time    0.2766: real time    0.2775
    SETDIJ:  cpu time    0.0312: real time    0.0313
     EDDAV:  cpu time  176.4887: real time  176.9071
    CHARGE:  cpu time    6.0456: real time    6.0600
    MIXING:  cpu time    0.0062: real time    0.0062
    --------------------------------------------
      LOOP:  cpu time  182.8483: real time  183.2820

 eigenvalue-minimisations  : 44752
 total energy-change (2. order) :-0.7106662E+02  (-0.2531834E+02)
 number of electron     607.9999997 magnetization      56.0760032
 augmentation part      218.6967013 magnetization      45.0239220

 Broyden mixing:
  rms(total) = 0.16332E+02    rms(broyden)= 0.16331E+02
  rms(prec ) = 0.21423E+02
  weight for this iteration     100.00

 eigenvalues of (default mixing * dielectric matrix)
  average eigenvalue GAMMA=   0.5346
  0.9082  0.4831  0.2126

 Free energy of the ion-electron system (eV)
  ---------------------------------------------------
  alpha Z        PSCENC =      1699.99176552
  Ewald energy   TEWEN  =    -35497.82864988
  -Hartree energ DENC   =    -20052.36913932
  -exchange      EXHF   =         0.00000000
  -V(xc)+E(xc)   XCENC  =      2371.57793479
  PAW double counting   =     58582.35591993   -60882.22811139
  entropy T*S    EENTRO =        -0.07938741
  eigenvalues    EBANDS =     -1905.42722455
  atomic energy  EATOM  =     55137.21312455
  Solvation  Ediel_sol  =         0.00000000
  ---------------------------------------------------
  free energy    TOTEN  =      -546.79376775 eV

  energy without entropy =     -546.71438034  energy(sigma->0) =     -546.75407405


--------------------------------------------------------------------------------------------------------




--------------------------------------- Iteration      1(   9)  ---------------------------------------


    POTLOK:  cpu time    0.2769: real time    0.2776
    SETDIJ:  cpu time    0.0311: real time    0.0311
     EDDAV:  cpu time  148.4031: real time  148.7549
    CHARGE:  cpu time    5.2167: real time    5.2291
    MIXING:  cpu time    0.0058: real time    0.0058
    --------------------------------------------
      LOOP:  cpu time  153.9335: real time  154.2985

 eigenvalue-minimisations  : 40640
 total energy-change (2. order) :-0.1529124E+02  (-0.2843387E+02)
 number of electron     608.0000009 magnetization      48.1165234
 augmentation part      217.3506288 magnetization      38.9773758

 Broyden mixing:
  rms(total) = 0.15791E+02    rms(broyden)= 0.15790E+02
  rms(prec ) = 0.21027E+02
  weight for this iteration     100.00

 eigenvalues of (default mixing * dielectric matrix)
  average eigenvalue GAMMA=   0.5457
  1.2988  0.4253  0.3156  0.1431

 Free energy of the ion-electron system (eV)
  ---------------------------------------------------
  alpha Z        PSCENC =      1699.99176552
  Ewald energy   TEWEN  =    -35497.82864988
  -Hartree energ DENC   =    -19989.93634907
  -exchange      EXHF   =         0.00000000
  -V(xc)+E(xc)   XCENC  =      2368.01598187
  PAW double counting   =     60808.58277491   -63154.14253797
  entropy T*S    EENTRO =        -0.08708040
  eigenvalues    EBANDS =     -1933.89404104
  atomic energy  EATOM  =     55137.21312455
  Solvation  Ediel_sol  =         0.00000000
  ---------------------------------------------------
  free energy    TOTEN  =      -562.08501152 eV

  energy without entropy =     -561.99793112  energy(sigma->0) =     -562.04147132


--------------------------------------------------------------------------------------------------------




--------------------------------------- Iteration      1(  10)  ---------------------------------------


    POTLOK:  cpu time    0.2319: real time    0.2324
    SETDIJ:  cpu time    0.0264: real time    0.0264
     EDDAV:  cpu time  152.3634: real time  152.7245
    CHARGE:  cpu time    5.1170: real time    5.1291
    MIXING:  cpu time    0.0062: real time    0.0189
    --------------------------------------------
      LOOP:  cpu time  157.7449: real time  158.1314

 eigenvalue-minimisations  : 42400
 total energy-change (2. order) :-0.3930019E+02  (-0.2980140E+02)
 number of electron     608.0000002 magnetization      37.4548211
 augmentation part      215.1627322 magnetization      29.0606518

 Broyden mixing:
  rms(total) = 0.17259E+02    rms(broyden)= 0.17259E+02
  rms(prec ) = 0.24424E+02
  weight for this iteration     100.00

 eigenvalues of (default mixing * dielectric matrix)
  average eigenvalue GAMMA=   0.5481
  1.6840  0.3917  0.3917  0.1366  0.1366

 Free energy of the ion-electron system (eV)
  ---------------------------------------------------
  alpha Z        PSCENC =      1699.99176552
  Ewald energy   TEWEN  =    -35497.82864988
  -Hartree energ DENC   =    -19954.20185459
  -exchange      EXHF   =         0.00000000
  -V(xc)+E(xc)   XCENC  =      2367.44505790
  PAW double counting   =     62740.16814864   -65116.50593043
  entropy T*S    EENTRO =        -0.06291623
  eigenvalues    EBANDS =     -1977.60394626
  atomic energy  EATOM  =     55137.21312455
  Solvation  Ediel_sol  =         0.00000000
  ---------------------------------------------------
  free energy    TOTEN  =      -601.38520079 eV

  energy without entropy =     -601.32228456  energy(sigma->0) =     -601.35374267


--------------------------------------------------------------------------------------------------------




--------------------------------------- Iteration      1(  11)  ---------------------------------------


    POTLOK:  cpu time    0.2318: real time    0.2324
    SETDIJ:  cpu time    0.0263: real time    0.0264
     EDDAV:  cpu time  155.5464: real time  155.9153
    CHARGE:  cpu time    5.1088: real time    5.1209
    MIXING:  cpu time    0.0061: real time    0.0061
    --------------------------------------------
      LOOP:  cpu time  160.9194: real time  161.3011

 eigenvalue-minimisations  : 43568
 total energy-change (2. order) : 0.4785130E+02  (-0.3217516E+02)
 number of electron     608.0000000 magnetization      32.9089865
 augmentation part      218.2741624 magnetization      25.9931178

 Broyden mixing:
  rms(total) = 0.15255E+02    rms(broyden)= 0.15255E+02
  rms(prec ) = 0.21560E+02
  weight for this iteration     100.00

 eigenvalues of (default mixing * dielectric matrix)
  average eigenvalue GAMMA=   0.5178
  1.8805  0.3878  0.3878  0.1763  0.1763  0.0980

 Free energy of the ion-electron system (eV)
  ---------------------------------------------------
  alpha Z        PSCENC =      1699.99176552
  Ewald energy   TEWEN  =    -35497.82864988
  -Hartree energ DENC   =    -19864.67559418
  -exchange      EXHF   =         0.00000000
  -V(xc)+E(xc)   XCENC  =      2369.78514551
  PAW double counting   =     65266.13767344   -67670.41507277
  entropy T*S    EENTRO =        -0.06919771
  eigenvalues    EBANDS =     -1993.67309147
  atomic energy  EATOM  =     55137.21312455
  Solvation  Ediel_sol  =         0.00000000
  ---------------------------------------------------
  free energy    TOTEN  =      -553.53389698 eV

  energy without entropy =     -553.46469927  energy(sigma->0) =     -553.49929813


--------------------------------------------------------------------------------------------------------




--------------------------------------- Iteration      1(  12)  ---------------------------------------


    POTLOK:  cpu time    0.2314: real time    0.2319
    SETDIJ:  cpu time    0.0261: real time    0.0262
     EDDAV:  cpu time  151.4069: real time  151.7753
    CHARGE:  cpu time    4.9064: real time    4.9637
    MIXING:  cpu time    0.0061: real time    0.0061
    --------------------------------------------
      LOOP:  cpu time  156.5768: real time  157.0032

 eigenvalue-minimisations  : 40944
 total energy-change (2. order) : 0.1008170E+03  (-0.1270711E+02)
 number of electron     607.9999996 magnetization      32.7214888
 augmentation part      226.9072409 magnetization      24.6490008

 Broyden mixing:
  rms(total) = 0.78051E+01    rms(broyden)= 0.78041E+01
  rms(prec ) = 0.10624E+02
  weight for this iteration     100.00

 eigenvalues of (default mixing * dielectric matrix)
  average eigenvalue GAMMA=   0.4890
  1.7224  0.5730  0.3675  0.3675  0.1678  0.1339  0.0905

 Free energy of the ion-electron system (eV)
  ---------------------------------------------------
  alpha Z        PSCENC =      1699.99176552
  Ewald energy   TEWEN  =    -35497.82864988
  -Hartree energ DENC   =    -19840.17895397
  -exchange      EXHF   =         0.00000000
  -V(xc)+E(xc)   XCENC  =      2370.44933658
  PAW double counting   =     66238.51647706   -68654.81189979
  entropy T*S    EENTRO =        -0.08762046
  eigenvalues    EBANDS =     -1905.98049170
  atomic energy  EATOM  =     55137.21312455
  Solvation  Ediel_sol  =         0.00000000
  ---------------------------------------------------
  free energy    TOTEN  =      -452.71691210 eV

  energy without entropy =     -452.62929163  energy(sigma->0) =     -452.67310187


--------------------------------------------------------------------------------------------------------




--------------------------------------- Iteration      1(  13)  ---------------------------------------


    POTLOK:  cpu time    0.2241: real time    0.2247
    SETDIJ:  cpu time    0.0253: real time    0.0254
     EDDAV:  cpu time  140.0855: real time  140.4176
    CHARGE:  cpu time    5.1898: real time    5.2021
    MIXING:  cpu time    0.0069: real time    0.0069
    --------------------------------------------
      LOOP:  cpu time  145.5316: real time  145.8766

 eigenvalue-minimisations  : 38000
 total energy-change (2. order) :-0.9300328E+01  (-0.1113276E+02)
 number of electron     608.0000007 magnetization      30.6072906
 augmentation part      223.2080227 magnetization      24.4624361

 Broyden mixing:
  rms(total) = 0.10223E+02    rms(broyden)= 0.10222E+02
  rms(prec ) = 0.13934E+02
  weight for this iteration     100.00

 eigenvalues of (default mixing * dielectric matrix)
  average eigenvalue GAMMA=   0.4689
  1.7463  0.7033  0.3877  0.3877  0.1998  0.1214  0.1214  0.0835

 Free energy of the ion-electron system (eV)
  ---------------------------------------------------
  alpha Z        PSCENC =      1699.99176552
  Ewald energy   TEWEN  =    -35497.82864988
  -Hartree energ DENC   =    -19873.63600329
  -exchange      EXHF   =         0.00000000
  -V(xc)+E(xc)   XCENC  =      2367.06712273
  PAW double counting   =     65914.51055206   -68328.95922006
  entropy T*S    EENTRO =        -0.09344361
  eigenvalues    EBANDS =     -1880.28248769
  atomic energy  EATOM  =     55137.21312455
  Solvation  Ediel_sol  =         0.00000000
  ---------------------------------------------------
  free energy    TOTEN  =      -462.01723967 eV

  energy without entropy =     -461.92379606  energy(sigma->0) =     -461.97051787


--------------------------------------------------------------------------------------------------------




--------------------------------------- Iteration      1(  14)  ---------------------------------------


    POTLOK:  cpu time    0.2311: real time    0.2317
    SETDIJ:  cpu time    0.0262: real time    0.0263
     EDDAV:  cpu time  156.1780: real time  156.5483
    CHARGE:  cpu time    5.1831: real time    5.1954
    MIXING:  cpu time    0.0069: real time    0.0069
    --------------------------------------------
      LOOP:  cpu time  161.6253: real time  162.0085

 eigenvalue-minimisations  : 43888
 total energy-change (2. order) : 0.9051090E+01  (-0.9018810E+01)
 number of electron     607.9999992 magnetization      29.7209596
 augmentation part      222.6931032 magnetization      23.6825104

 Broyden mixing:
  rms(total) = 0.81121E+01    rms(broyden)= 0.81112E+01
  rms(prec ) = 0.11245E+02
  weight for this iteration     100.00

 eigenvalues of (default mixing * dielectric matrix)
  average eigenvalue GAMMA=   0.4306
  1.7218  0.6839  0.3915  0.3915  0.2139  0.1420  0.1420  0.0945  0.0945

 Free energy of the ion-electron system (eV)
  ---------------------------------------------------
  alpha Z        PSCENC =      1699.99176552
  Ewald energy   TEWEN  =    -35497.82864988
  -Hartree energ DENC   =    -19911.68062202
  -exchange      EXHF   =         0.00000000
  -V(xc)+E(xc)   XCENC  =      2363.85980598
  PAW double counting   =     65762.76091081   -68174.25225532
  entropy T*S    EENTRO =        -0.08450796
  eigenvalues    EBANDS =     -1832.94572138
  atomic energy  EATOM  =     55137.21312455
  Solvation  Ediel_sol  =         0.00000000
  ---------------------------------------------------
  free energy    TOTEN  =      -452.96614968 eV

  energy without entropy =     -452.88164173  energy(sigma->0) =     -452.92389571


--------------------------------------------------------------------------------------------------------




--------------------------------------- Iteration      1(  15)  ---------------------------------------


    POTLOK:  cpu time    0.2313: real time    0.2318
    SETDIJ:  cpu time    0.0262: real time    0.0262
     EDDAV:  cpu time  151.8093: real time  152.1693
    CHARGE:  cpu time    5.2889: real time    5.3014
    MIXING:  cpu time    0.0072: real time    0.0072
    --------------------------------------------
      LOOP:  cpu time  157.3628: real time  157.7360

 eigenvalue-minimisations  : 42288
 total energy-change (2. order) : 0.1868397E+02  (-0.4750261E+01)
 number of electron     608.0000002 magnetization      29.4991063
 augmentation part      225.3442855 magnetization      22.2362100

 Broyden mixing:
  rms(total) = 0.39053E+01    rms(broyden)= 0.39042E+01
  rms(prec ) = 0.51762E+01
  weight for this iteration     100.00

 eigenvalues of (default mixing * dielectric matrix)
  average eigenvalue GAMMA=   0.4120
  1.4535  0.8299  0.4030  0.4030  0.3759  0.2162  0.1312  0.1312  0.0882  0.0882

 Free energy of the ion-electron system (eV)
  ---------------------------------------------------
  alpha Z        PSCENC =      1699.99176552
  Ewald energy   TEWEN  =    -35497.82864988
  -Hartree energ DENC   =    -19898.31877136
  -exchange      EXHF   =         0.00000000
  -V(xc)+E(xc)   XCENC  =      2363.11784039
  PAW double counting   =     65744.56696397   -68149.43600758
  entropy T*S    EENTRO =        -0.10126850
  eigenvalues    EBANDS =     -1833.48717412
  atomic energy  EATOM  =     55137.21312455
  Solvation  Ediel_sol  =         0.00000000
  ---------------------------------------------------
  free energy    TOTEN  =      -434.28217701 eV

  energy without entropy =     -434.18090851  energy(sigma->0) =     -434.23154276


--------------------------------------------------------------------------------------------------------




--------------------------------------- Iteration      1(  16)  ---------------------------------------


    POTLOK:  cpu time    0.2335: real time    0.2341
    SETDIJ:  cpu time    0.0262: real time    0.0263
     EDDAV:  cpu time  178.7059: real time  179.1388
    CHARGE:  cpu time    6.2984: real time    6.3134
    MIXING:  cpu time    0.0159: real time    0.4075
    --------------------------------------------
      LOOP:  cpu time  185.2801: real time  186.1201

 eigenvalue-minimisations  : 43744
 total energy-change (2. order) :-0.1688503E+01  (-0.2016680E+01)
 number of electron     608.0000000 magnetization      28.8452667
 augmentation part      223.8192287 magnetization      21.9251477

 Broyden mixing:
  rms(total) = 0.41804E+01    rms(broyden)= 0.41799E+01
  rms(prec ) = 0.53569E+01
  weight for this iteration     100.00

 eigenvalues of (default mixing * dielectric matrix)
  average eigenvalue GAMMA=   0.3917
  1.3663  0.8589  0.4623  0.4120  0.4120  0.2463  0.1337  0.1337  0.1050  0.0890
  0.0890

 Free energy of the ion-electron system (eV)
  ---------------------------------------------------
  alpha Z        PSCENC =      1699.99176552
  Ewald energy   TEWEN  =    -35497.82864988
  -Hartree energ DENC   =    -19913.02538365
  -exchange      EXHF   =         0.00000000
  -V(xc)+E(xc)   XCENC  =      2362.00634014
  PAW double counting   =     65460.52780878   -67857.20144820
  entropy T*S    EENTRO =        -0.09678509
  eigenvalues    EBANDS =     -1827.55745200
  atomic energy  EATOM  =     55137.21312455
  Solvation  Ediel_sol  =         0.00000000
  ---------------------------------------------------
  free energy    TOTEN  =      -435.97067982 eV

  energy without entropy =     -435.87389473  energy(sigma->0) =     -435.92228727


--------------------------------------------------------------------------------------------------------




--------------------------------------- Iteration      1(  17)  ---------------------------------------


    POTLOK:  cpu time    0.2804: real time    0.2810
    SETDIJ:  cpu time    0.0315: real time    0.0316
     EDDAV:  cpu time  176.3786: real time  176.7969
    CHARGE:  cpu time    6.3050: real time    6.3200
    MIXING:  cpu time    0.0092: real time    0.0093
    --------------------------------------------
      LOOP:  cpu time  183.0047: real time  183.4388

 eigenvalue-minimisations  : 42512
 total energy-change (2. order) : 0.1383760E+01  (-0.1495094E+01)
 number of electron     607.9999997 magnetization      28.2364860
 augmentation part      224.2113892 magnetization      21.3214961

 Broyden mixing:
  rms(total) = 0.30000E+01    rms(broyden)= 0.29996E+01
  rms(prec ) = 0.36110E+01
  weight for this iteration     100.00

 eigenvalues of (default mixing * dielectric matrix)
  average eigenvalue GAMMA=   0.3826
  1.3029  0.7587  0.5374  0.5374  0.3751  0.3751  0.1780  0.1304  0.1304  0.0902
  0.0902  0.0857

 Free energy of the ion-electron system (eV)
  ---------------------------------------------------
  alpha Z        PSCENC =      1699.99176552
  Ewald energy   TEWEN  =    -35497.82864988
  -Hartree energ DENC   =    -19917.47971114
  -exchange      EXHF   =         0.00000000
  -V(xc)+E(xc)   XCENC  =      2361.38682387
  PAW double counting   =     65425.06365202   -67817.27507415
  entropy T*S    EENTRO =        -0.10103675
  eigenvalues    EBANDS =     -1825.55781352
  atomic energy  EATOM  =     55137.21312455
  Solvation  Ediel_sol  =         0.00000000
  ---------------------------------------------------
  free energy    TOTEN  =      -434.58691947 eV

  energy without entropy =     -434.48588272  energy(sigma->0) =     -434.53640110


--------------------------------------------------------------------------------------------------------




--------------------------------------- Iteration      1(  18)  ---------------------------------------


    POTLOK:  cpu time    0.2806: real time    0.2812
    SETDIJ:  cpu time    0.0321: real time    0.0322
     EDDAV:  cpu time  171.2472: real time  171.6534
    CHARGE:  cpu time    6.3081: real time    6.3231
    MIXING:  cpu time    0.0094: real time    0.0095
    --------------------------------------------
      LOOP:  cpu time  177.8774: real time  178.2993

 eigenvalue-minimisations  : 40976
 total energy-change (2. order) :-0.1244624E+01  (-0.7910257E+00)
 number of electron     607.9999999 magnetization      27.6069690
 augmentation part      224.1092496 magnetization      20.4277729

 Broyden mixing:
  rms(total) = 0.28580E+01    rms(broyden)= 0.28577E+01
  rms(prec ) = 0.35661E+01
  weight for this iteration     100.00

 eigenvalues of (default mixing * dielectric matrix)
  average eigenvalue GAMMA=   0.3863
  1.2181  0.7828  0.7828  0.6197  0.3829  0.3829  0.1950  0.1352  0.1352  0.1245
  0.0892  0.0892  0.0847

 Free energy of the ion-electron system (eV)
  ---------------------------------------------------
  alpha Z        PSCENC =      1699.99176552
  Ewald energy   TEWEN  =    -35497.82864988
  -Hartree energ DENC   =    -19915.92254263
  -exchange      EXHF   =         0.00000000
  -V(xc)+E(xc)   XCENC  =      2360.71595640
  PAW double counting   =     65364.84630958   -67749.78708694
  entropy T*S    EENTRO =        -0.09769095
  eigenvalues    EBANDS =     -1834.96272920
  atomic energy  EATOM  =     55137.21312455
  Solvation  Ediel_sol  =         0.00000000
  ---------------------------------------------------
  free energy    TOTEN  =      -435.83154355 eV

  energy without entropy =     -435.73385260  energy(sigma->0) =     -435.78269808


--------------------------------------------------------------------------------------------------------




--------------------------------------- Iteration      1(  19)  ---------------------------------------


    POTLOK:  cpu time    0.2834: real time    0.2841
    SETDIJ:  cpu time    0.0317: real time    0.0318
     EDDAV:  cpu time  175.8621: real time  176.2812
    CHARGE:  cpu time    6.3528: real time    6.3679
    MIXING:  cpu time    0.0098: real time    0.0098
    --------------------------------------------
      LOOP:  cpu time  182.5398: real time  182.9748

 eigenvalue-minimisations  : 42352
 total energy-change (2. order) :-0.1867631E+00  (-0.7378930E+00)
 number of electron     607.9999998 magnetization      26.4778342
 augmentation part      224.4243415 magnetization      18.9702280

 Broyden mixing:
  rms(total) = 0.20474E+01    rms(broyden)= 0.20470E+01
  rms(prec ) = 0.25853E+01
  weight for this iteration     100.00

 eigenvalues of (default mixing * dielectric matrix)
  average eigenvalue GAMMA=   0.4134
  1.2755  1.0370  1.0370  0.5594  0.3933  0.3933  0.2836  0.1842  0.1310  0.1310
  0.0973  0.0973  0.0836  0.0836

 Free energy of the ion-electron system (eV)
  ---------------------------------------------------
  alpha Z        PSCENC =      1699.99176552
  Ewald energy   TEWEN  =    -35497.82864988
  -Hartree energ DENC   =    -19912.30191282
  -exchange      EXHF   =         0.00000000
  -V(xc)+E(xc)   XCENC  =      2360.09578136
  PAW double counting   =     65285.16321596   -67661.20851022
  entropy T*S    EENTRO =        -0.09739175
  eigenvalues    EBANDS =     -1847.04572940
  atomic energy  EATOM  =     55137.21312455
  Solvation  Ediel_sol  =         0.00000000
  ---------------------------------------------------
  free energy    TOTEN  =      -436.01830669 eV

  energy without entropy =     -435.92091494  energy(sigma->0) =     -435.96961081


--------------------------------------------------------------------------------------------------------




--------------------------------------- Iteration      1(  20)  ---------------------------------------


    POTLOK:  cpu time    0.2801: real time    0.2808
    SETDIJ:  cpu time    0.0318: real time    0.0319
     EDDAV:  cpu time  176.0367: real time  176.4644
    CHARGE:  cpu time    6.3253: real time    6.3403
    MIXING:  cpu time    0.0102: real time    0.0102
    --------------------------------------------
      LOOP:  cpu time  182.6840: real time  183.1275

 eigenvalue-minimisations  : 42192
 total energy-change (2. order) :-0.9687737E+00  (-0.4796251E+00)
 number of electron     608.0000000 magnetization      23.7273128
 augmentation part      224.2280621 magnetization      16.4255988

 Broyden mixing:
  rms(total) = 0.18762E+01    rms(broyden)= 0.18760E+01
  rms(prec ) = 0.24244E+01
  weight for this iteration     100.00

 eigenvalues of (default mixing * dielectric matrix)
  average eigenvalue GAMMA=   0.4404
  1.3994  1.2720  1.2720  0.4975  0.3930  0.3930  0.4120  0.2026  0.1456  0.1308
  0.1308  0.0986  0.0878  0.0878  0.0829

 Free energy of the ion-electron system (eV)
  ---------------------------------------------------
  alpha Z        PSCENC =      1699.99176552
  Ewald energy   TEWEN  =    -35497.82864988
  -Hartree energ DENC   =    -19911.98744467
  -exchange      EXHF   =         0.00000000
  -V(xc)+E(xc)   XCENC  =      2359.52160165
  PAW double counting   =     65316.97948368   -67686.45286145
  entropy T*S    EENTRO =        -0.10013366
  eigenvalues    EBANDS =     -1854.32396618
  atomic energy  EATOM  =     55137.21312455
  Solvation  Ediel_sol  =         0.00000000
  ---------------------------------------------------
  free energy    TOTEN  =      -436.98708043 eV

  energy without entropy =     -436.88694677  energy(sigma->0) =     -436.93701360


--------------------------------------------------------------------------------------------------------




--------------------------------------- Iteration      1(  21)  ---------------------------------------


    POTLOK:  cpu time    0.2813: real time    0.2820
    SETDIJ:  cpu time    0.0317: real time    0.0318
     EDDAV:  cpu time  177.4649: real time  177.8855
    CHARGE:  cpu time    6.3661: real time    6.3813
    MIXING:  cpu time    0.0105: real time    0.0105
    --------------------------------------------
      LOOP:  cpu time  184.1546: real time  184.5911

 eigenvalue-minimisations  : 42848
 total energy-change (2. order) :-0.5289068E+00  (-0.5721743E+00)
 number of electron     607.9999998 magnetization      21.5818579
 augmentation part      224.0449834 magnetization      14.5654512

 Broyden mixing:
  rms(total) = 0.18055E+01    rms(broyden)= 0.18052E+01
  rms(prec ) = 0.24331E+01
  weight for this iteration     100.00

 eigenvalues of (default mixing * dielectric matrix)
  average eigenvalue GAMMA=   0.4553
  1.5432  1.3735  1.3735  0.4958  0.4958  0.3946  0.3946  0.2919  0.1836  0.1323
  0.1323  0.1214  0.0928  0.0928  0.0836  0.0836

 Free energy of the ion-electron system (eV)
  ---------------------------------------------------
  alpha Z        PSCENC =      1699.99176552
  Ewald energy   TEWEN  =    -35497.82864988
  -Hartree energ DENC   =    -19916.75141111
  -exchange      EXHF   =         0.00000000
  -V(xc)+E(xc)   XCENC  =      2358.78388586
  PAW double counting   =     65525.38750582   -67886.80093675
  entropy T*S    EENTRO =        -0.09578322
  eigenvalues    EBANDS =     -1857.41548801
  atomic energy  EATOM  =     55137.21312455
  Solvation  Ediel_sol  =         0.00000000
  ---------------------------------------------------
  free energy    TOTEN  =      -437.51598722 eV

  energy without entropy =     -437.42020400  energy(sigma->0) =     -437.46809561


--------------------------------------------------------------------------------------------------------




--------------------------------------- Iteration      1(  22)  ---------------------------------------


    POTLOK:  cpu time    0.2809: real time    0.2816
    SETDIJ:  cpu time    0.0318: real time    0.0319
     EDDAV:  cpu time  176.1766: real time  176.5942
    CHARGE:  cpu time    6.3300: real time    6.3450
    MIXING:  cpu time    0.0113: real time    0.0113
    --------------------------------------------
      LOOP:  cpu time  182.8305: real time  183.2640

 eigenvalue-minimisations  : 42512
 total energy-change (2. order) :-0.3763575E+00  (-0.5635874E+00)
 number of electron     607.9999999 magnetization      19.3326081
 augmentation part      224.0994799 magnetization      12.5210232

 Broyden mixing:
  rms(total) = 0.18146E+01    rms(broyden)= 0.18143E+01
  rms(prec ) = 0.23675E+01
  weight for this iteration     100.00

 eigenvalues of (default mixing * dielectric matrix)
  average eigenvalue GAMMA=   0.4697
  1.7601  1.4299  1.4299  0.5645  0.5645  0.3973  0.3973  0.3855  0.1881  0.1489
  0.1318  0.1318  0.0993  0.0993  0.0872  0.0872  0.0821

 Free energy of the ion-electron system (eV)
  ---------------------------------------------------
  alpha Z        PSCENC =      1699.99176552
  Ewald energy   TEWEN  =    -35497.82864988
  -Hartree energ DENC   =    -19914.17298664
  -exchange      EXHF   =         0.00000000
  -V(xc)+E(xc)   XCENC  =      2358.48295676
  PAW double counting   =     65733.64706930   -68090.69014207
  entropy T*S    EENTRO =        -0.09641495
  eigenvalues    EBANDS =     -1864.43906729
  atomic energy  EATOM  =     55137.21312455
  Solvation  Ediel_sol  =         0.00000000
  ---------------------------------------------------
  free energy    TOTEN  =      -437.89234470 eV

  energy without entropy =     -437.79592974  energy(sigma->0) =     -437.84413722


--------------------------------------------------------------------------------------------------------




--------------------------------------- Iteration      1(  23)  ---------------------------------------


    POTLOK:  cpu time    0.2818: real time    0.2825
    SETDIJ:  cpu time    0.0316: real time    0.0316
     EDDAV:  cpu time  165.8347: real time  166.2278
    CHARGE:  cpu time    6.3019: real time    6.3168
    MIXING:  cpu time    0.0115: real time    0.0116
    --------------------------------------------
      LOOP:  cpu time  172.4614: real time  172.8703

 eigenvalue-minimisations  : 39328
 total energy-change (2. order) : 0.9761758E-01  (-0.3440403E+00)
 number of electron     607.9999999 magnetization      18.0783709
 augmentation part      224.4389060 magnetization      11.4987916

 Broyden mixing:
  rms(total) = 0.14913E+01    rms(broyden)= 0.14910E+01
  rms(prec ) = 0.20152E+01
  weight for this iteration     100.00

 eigenvalues of (default mixing * dielectric matrix)
  average eigenvalue GAMMA=   0.4626
  1.8111  1.4057  1.4057  0.6360  0.6360  0.3946  0.3946  0.4121  0.1953  0.1953
  0.1320  0.1320  0.1220  0.1037  0.0915  0.0915  0.0853  0.0826

 Free energy of the ion-electron system (eV)
  ---------------------------------------------------
  alpha Z        PSCENC =      1699.99176552
  Ewald energy   TEWEN  =    -35497.82864988
  -Hartree energ DENC   =    -19915.35202977
  -exchange      EXHF   =         0.00000000
  -V(xc)+E(xc)   XCENC  =      2358.38749783
  PAW double counting   =     65967.26451950   -68322.02306993
  entropy T*S    EENTRO =        -0.09615756
  eigenvalues    EBANDS =     -1865.35172739
  atomic energy  EATOM  =     55137.21312455
  Solvation  Ediel_sol  =         0.00000000
  ---------------------------------------------------
  free energy    TOTEN  =      -437.79472712 eV

  energy without entropy =     -437.69856956  energy(sigma->0) =     -437.74664834


--------------------------------------------------------------------------------------------------------




--------------------------------------- Iteration      1(  24)  ---------------------------------------


    POTLOK:  cpu time    0.2812: real time    0.2818
    SETDIJ:  cpu time    0.0320: real time    0.0321
     EDDAV:  cpu time  168.7582: real time  169.1659
    CHARGE:  cpu time    6.2959: real time    6.3108
    MIXING:  cpu time    0.0117: real time    0.0117
    --------------------------------------------
      LOOP:  cpu time  175.3789: real time  175.8023

 eigenvalue-minimisations  : 40208
 total energy-change (2. order) : 0.3119125E+00  (-0.2512108E+00)
 number of electron     607.9999998 magnetization      17.4167464
 augmentation part      224.4570399 magnetization      10.9897542

 Broyden mixing:
  rms(total) = 0.97608E+00    rms(broyden)= 0.97583E+00
  rms(prec ) = 0.13282E+01
  weight for this iteration     100.00

 eigenvalues of (default mixing * dielectric matrix)
  average eigenvalue GAMMA=   0.4527
  1.4855  1.2076  1.2076  1.2226  0.6967  0.5082  0.3844  0.3844  0.3313  0.1947
  0.1516  0.1320  0.1320  0.1195  0.0941  0.0941  0.0819  0.0864  0.0864

 Free energy of the ion-electron system (eV)
  ---------------------------------------------------
  alpha Z        PSCENC =      1699.99176552
  Ewald energy   TEWEN  =    -35497.82864988
  -Hartree energ DENC   =    -19919.95527750
  -exchange      EXHF   =         0.00000000
  -V(xc)+E(xc)   XCENC  =      2358.50084499
  PAW double counting   =     66055.25348199   -68408.22650740
  entropy T*S    EENTRO =        -0.09627040
  eigenvalues    EBANDS =     -1862.33532648
  atomic energy  EATOM  =     55137.21312455
  Solvation  Ediel_sol  =         0.00000000
  ---------------------------------------------------
  free energy    TOTEN  =      -437.48281462 eV

  energy without entropy =     -437.38654422  energy(sigma->0) =     -437.43467942


--------------------------------------------------------------------------------------------------------




--------------------------------------- Iteration      1(  25)  ---------------------------------------


    POTLOK:  cpu time    0.2823: real time    0.2830
    SETDIJ:  cpu time    0.0314: real time    0.0314
     EDDAV:  cpu time  181.2628: real time  181.6935
    CHARGE:  cpu time    6.2879: real time    6.3028
    MIXING:  cpu time    0.0123: real time    0.0124
[...]
   0.190E+03 0.265E+03 0.843E+02   -.216E+03 -.317E+03 -.785E+02   0.172E+02 0.173E+02 0.387E+01   -.105E-01 0.278E+00 0.216E+00
   -.109E+03 -.951E+02 0.324E+02   0.117E+03 0.102E+03 -.342E+02   -.557E+01 -.542E+01 0.252E+01   0.884E-01 0.622E-01 0.241E+00
   -.262E+03 0.276E+02 -.160E+03   0.295E+03 -.274E+02 0.174E+03   -.245E+02 0.577E+01 -.103E+02   0.552E-01 -.279E+00 -.523E-01
   0.196E+03 -.378E+02 -.772E+02   -.212E+03 0.455E+02 0.801E+02   0.150E+02 -.103E+02 -.137E+01   0.913E-01 0.577E-01 0.295E-01
   -.160E+02 0.134E+03 -.103E+03   0.199E+02 -.142E+03 0.108E+03   -.154E+00 0.671E+01 -.226E+01   0.100E+00 0.531E-01 0.250E+00
   -.173E+03 -.793E+02 -.150E+03   0.188E+03 0.880E+02 0.161E+03   -.154E+02 -.986E+01 -.113E+02   -.180E+00 0.222E+00 0.901E-01
   0.192E+03 0.444E+02 0.111E+03   -.202E+03 -.498E+02 -.118E+03   0.110E+02 0.639E+01 0.721E+01   -.519E-02 -.198E-01 -.327E-01
   0.330E+02 -.164E+02 0.966E+02   -.330E+02 0.241E+02 -.107E+03   0.568E+00 -.851E+01 0.951E+01   -.461E+00 -.153E-02 -.325E+00
   -.173E+03 0.181E+02 -.198E+03   0.202E+03 0.112E+02 0.235E+03   -.796E+01 -.186E+01 -.183E+02   0.403E+00 0.289E+00 0.363E-01
   0.124E+03 -.206E+01 -.511E+01   -.138E+03 0.507E+01 -.414E+01   0.131E+02 -.389E+01 0.110E+02   -.161E+00 -.285E+00 0.218E+00
   -.709E+02 0.278E+03 -.903E+02   0.805E+02 -.303E+03 0.913E+02   -.331E+01 0.216E+02 0.172E+01   0.100E+00 -.133E+00 -.131E+00
   -.210E+02 -.192E+03 -.209E+03   0.237E+02 0.220E+03 0.220E+03   -.570E+01 -.189E+02 -.905E+01   0.398E-01 0.171E-02 0.214E+00
   0.534E+02 0.117E+03 0.796E+02   -.571E+02 -.119E+03 -.875E+02   0.381E+01 0.136E+01 0.615E+01   -.783E-01 -.113E+00 0.776E+00
   -.118E+03 -.150E+03 -.226E+02   0.128E+03 0.163E+03 0.278E+02   -.467E+01 -.110E+02 -.240E+01   0.373E+00 0.425E-01 -.118E+00
   -.139E+03 0.123E+03 -.167E+03   0.151E+03 -.133E+03 0.178E+03   -.129E+02 0.101E+02 -.116E+02   -.336E+00 0.112E+00 -.172E+00
   0.173E+03 -.439E+02 0.126E+03   -.187E+03 0.474E+02 -.131E+03   0.149E+02 -.347E+01 0.407E+01   -.499E+00 0.527E-01 0.464E-01
   -.387E+02 0.194E+03 0.421E+02   0.445E+02 -.210E+03 -.483E+02   -.382E+01 0.140E+02 0.786E+01   0.596E+00 -.253E+00 0.820E-01
   -.270E+03 0.459E+02 -.121E+03   0.295E+03 -.456E+02 0.133E+03   -.218E+02 -.283E+01 -.109E+02   0.973E-01 -.630E+00 -.273E+00
   0.233E+03 0.446E+02 0.268E+03   -.253E+03 -.474E+02 -.289E+03   0.203E+02 0.269E+01 0.173E+02   -.120E+00 -.988E-01 0.443E-01
   -.503E+00 -.383E+02 0.243E+03   -.258E+01 0.487E+02 -.272E+03   0.268E+01 -.116E+02 0.183E+02   -.213E+00 0.402E-01 -.235E+00
   -.200E+03 0.174E+03 -.825E+02   0.222E+03 -.183E+03 0.947E+02   -.221E+02 0.922E+01 -.129E+02   0.141E+00 0.461E-01 0.204E+00
   0.158E+01 -.963E+02 0.432E+02   -.473E+01 0.109E+03 -.427E+02   0.363E+01 -.915E+01 0.142E+01   0.482E+00 0.670E+00 -.124E+00
   0.299E+02 0.220E+03 0.622E+02   -.295E+02 -.234E+03 -.669E+02   -.167E+00 0.148E+02 0.631E+01   -.950E+00 0.258E+00 -.446E+00
   -.155E+03 0.274E+02 -.110E+03   0.174E+03 -.253E+02 0.118E+03   -.176E+02 -.435E+01 -.824E+01   0.364E+00 -.217E+00 0.802E-01
   0.125E+03 0.397E+02 0.113E+03   -.139E+03 -.376E+02 -.118E+03   0.140E+02 -.126E+01 0.429E+01   0.206E+00 -.751E-01 -.241E+00
   -.388E+02 -.135E+03 0.252E+03   0.444E+02 0.147E+03 -.279E+03   -.676E+01 -.123E+02 0.183E+02   0.239E+00 -.309E-02 0.339E+00
   -.244E+03 -.713E+02 -.119E+03   0.264E+03 0.811E+02 0.134E+03   -.165E+02 -.476E+01 -.149E+02   -.811E-01 0.284E-01 -.670E-01
 -----------------------------------------------------------------------------------------------
   0.111E+03 0.259E+02 -.242E+02   -.284E-12 0.117E-11 0.455E-12   -.112E+03 -.257E+02 0.230E+02   0.160E+01 -.211E+00 0.115E+01
 
 
 POSITION                                       TOTAL-FORCE (eV/Angst)
 -----------------------------------------------------------------------------------
      7.19480      5.15842      2.27746        -5.839733     -2.571202      0.504890
      5.47740      2.41272      2.44702        -0.238880     -1.099760      2.635785
      3.93633      3.32278      0.00105        -0.656995     -1.547101      1.483616
      2.35390      0.53131      0.22662         1.695151     -2.186610     -1.071669
      2.11685      2.41949      2.54356         3.390783     -3.062810     -1.970623
      0.81198      4.93490      2.57530         1.042479      1.215280      0.079646
      2.47657      0.35865      9.48832         5.158943     -9.189325     44.768214
      6.85203      3.29214      0.40391         5.405912      1.411868     -1.518662
      3.69046      4.97587      7.69632        -0.504651      0.349865     -2.052161
      2.10421      2.30735      7.49337        -1.995244     -0.240274      1.496135
      0.78366      3.09372      4.96376        -1.900916      1.437198      1.990557
     -0.90796      0.51426      5.13303        -1.555161      3.012043      2.527699
     -1.04052      2.41361      7.57421         0.189660     -0.755473     -0.663715
     -2.15441      4.87915      7.66585         6.494439     30.605784    -13.896384
      5.20340      0.40092      5.31590        -3.853968      2.174312     -1.736332
      4.10549      2.97380      5.03048        -1.660248      2.212552      1.717434
      6.90909     10.42481      2.69470         3.296130     12.445410     -2.866895
      5.84845      8.09875      2.60696       -26.098899    -40.512267    -15.967587
      4.04988      8.90327      0.24891        -6.090616      4.725946     -1.198683
     -3.89577      6.00361      9.66131         2.020550      1.218665      8.931717
      2.16562      7.88408      2.32539         0.826140      0.376769      0.807149
      0.71194      0.01322      2.55943         1.149947     -1.284610      1.979320
      2.55170      6.30945      9.74183         1.632179     -8.051520      3.152457
      0.53359      8.81677      9.75862         1.913865      0.685820     10.199497
      3.51216     10.52103      7.60708        -0.336419     -2.609089     -1.513392
      2.32048      8.22503      7.59034        -0.747927     -0.419459     -1.136870
      0.66342      8.85165      4.95727         0.693561     -0.258658      1.385233
     -0.77241      6.09113      5.03280         1.260178     -4.369785     -0.870780
     -1.17011      7.81854      7.46835         0.985753     -0.449365      0.106080
     -2.33629     10.81921      7.41941        -9.780899     -5.351582     -2.070486
      5.53525      6.00658      5.03810       -12.128201      5.815714     -4.037330
      4.02418      8.67027      5.08795        -3.661206      0.997606     -0.916949
      7.40753      5.27828      0.66045         0.452182     -1.036893     -2.615021
      0.96901      5.27744      0.76626        -0.150540      0.186466      0.370073
      3.78675      4.94901      0.53513        -0.975633      1.001257      0.266382
      5.53267      0.74063      3.18370         0.640998      0.035874     -0.202237
      3.91790      2.98886      3.37162        -0.901206     -0.553822     -2.577991
      6.81562      3.42526      2.97146        -0.058109      0.923224     -1.012419
      2.36461      2.16811      0.52489         1.283224      2.970405      1.536538
      5.46085      2.48138      0.72111        -3.602452     -1.377778     -0.733544
      8.64507      2.22341      0.51133        -1.623168      0.998866     -0.187614
      0.91401      3.24925      3.26067        -2.197954      2.369381      0.095324
     -0.74925      0.28416      3.54235        -0.948574     -0.699903     -5.304781
      2.32959      0.52351      2.96976        -0.565837      1.888153     -0.528440
      3.95933      4.70763      5.65599         1.507996      0.367287      0.619462
     -2.45146      5.35071      5.39285        11.396729     -5.772755      4.398722
      0.72324      5.06808      5.52366        -1.740005     -0.665574     -1.099988
      2.22123      0.65115      8.30992       -10.773659     12.446280    -48.116806
      0.51578      3.05294      8.32493        -0.231385     -0.398582      0.121469
      3.36246      3.34384      7.75570         1.345179      0.193946      1.030776
     -0.90268      2.31198      5.64166         1.005777      0.072429      0.668796
      2.16296      2.48785      5.81924         0.650342     -0.372760     -1.921241
      5.39655      2.12744      5.57689         0.814960     -0.877369      0.770588
     -2.46975      3.69088      8.06127        -8.428622    -34.242466      9.918272
     -4.19227      0.20129      8.13503         2.860926      1.140190      0.905672
     -1.05664      0.58131      7.79903         8.897321      5.676423      2.904939
      7.29564     10.84130      0.47712        -0.852431     -2.534556      1.605765
      0.70100      0.07481      0.84453         3.838293     -1.671672      3.128032
      3.90346     10.66530      0.71690        -0.762845     -1.003269     -0.621865
      5.67811      6.08056      3.16304         0.589264      1.030821     -0.213089
      3.75181      8.69325      3.32452         0.091569     -0.782360     -0.837628
      6.47847      9.08070      3.01561        21.680517     27.727139     18.117478
      2.57466      7.91262      0.30132        -0.588534     -1.163584      2.018956
      5.31336      8.05403      0.55557         6.317197     -3.437518      2.615616
      8.60142      7.74004      0.25856        -2.916087      9.304697      1.649961
      0.96249      9.06700      3.23910         0.117924      0.086070     -0.951606
     -0.98250      5.78625      3.26541         5.460719      1.824588      2.692713
      2.28245      6.26313      2.97992        -1.499404     -0.409244     -0.752742
      3.79963     10.30795      5.81130         0.150055      0.150696     -0.160924
     -2.50623     10.76652      5.45403         2.627647     -2.076445      1.751227
      0.49686     10.80448      5.59332         3.711612     -3.180737      0.988827
      2.27840      6.01531      8.18805         0.084074     -0.164794     -4.431732
      0.35600      8.81297      8.27636        -0.613221     -1.238674    -10.800937
      3.83479      8.81345      8.17004        -0.705517      0.166904     -0.467983
     -0.66106      7.58330      5.68566         0.967649      4.035117      1.858843
      2.27025      8.01776      5.63799        -0.653450      1.184164      1.129984
      5.35595      7.81159      5.38224         2.141650     -2.498494      0.410735
     -2.31041      8.93616      8.20955         0.131304      0.750144     -0.782976
     -4.13098      5.89273      8.15798        -0.897158     -0.185017     -7.865080
     -1.20722      6.00082      8.20765         2.814976      5.087798      0.334582
 -----------------------------------------------------------------------------------
    total drift:                                0.028769      0.004185     -0.006830


--------------------------------------------------------------------------------------------------------



  FREE ENERGIE OF THE ION-ELECTRON SYSTEM (eV)
  ---------------------------------------------------
  free  energy   TOTEN  =      -437.4060538307 eV

  energy  without entropy=     -437.3148252374  energy(sigma->0) =     -437.36043953
 


--------------------------------------------------------------------------------------------------------


    POTLOK:  cpu time    0.2481: real time    0.2487


--------------------------------------------------------------------------------------------------------


     LOOP+:  cpu time14117.7702: real time14153.5869
    4ORBIT:  cpu time    0.0000: real time    0.0000

volume of typ            1:    20.8 %

volume of typ            2:     8.0 %
 
total charge     
 
# of ion       s       p       d       tot
------------------------------------------
    1        0.350   0.453   7.908   8.711
    2        0.297   0.364   7.853   8.514
    3        0.270   0.328   7.929   8.527
    4        0.305   0.377   7.867   8.549
    5        0.265   0.295   7.916   8.476
    6        0.225   0.236   7.900   8.361
    7        0.512   0.814   8.170   9.496
    8        0.268   0.292   7.898   8.458
    9        0.293   0.367   7.897   8.557
   10        0.306   0.384   7.916   8.606
   11        0.273   0.318   7.881   8.471
   12        0.368   0.509   7.926   8.803
   13        0.242   0.269   7.926   8.438
   14        0.481   0.659   8.141   9.281
   15        0.320   0.391   7.938   8.649
   16        0.325   0.389   7.894   8.608
   17        0.323   0.408   8.013   8.744
   18        0.428   0.547   8.200   9.175
   19        0.344   0.455   7.899   8.698
   20        0.328   0.416   7.916   8.659
   21        0.246   0.253   7.824   8.323
   22        0.298   0.368   7.889   8.555
   23        0.395   0.527   7.956   8.878
   24        0.315   0.365   7.982   8.662
   25        0.303   0.399   7.951   8.653
   26        0.243   0.233   7.906   8.382
   27        0.237   0.250   7.851   8.338
   28        0.307   0.374   7.889   8.570
   29        0.249   0.267   7.891   8.407
   30        0.318   0.391   7.967   8.677
   31        0.340   0.427   7.955   8.722
   32        0.319   0.403   7.865   8.587
   33        1.280   2.749   0.010   4.039
   34        1.273   2.747   0.008   4.028
   35        1.281   2.726   0.009   4.017
   36        1.278   2.710   0.006   3.994
   37        1.276   2.747   0.010   4.033
   38        1.285   2.694   0.007   3.986
   39        1.276   2.736   0.009   4.021
   40        1.269   2.810   0.016   4.095
   41        1.298   2.616   0.002   3.916
   42        1.264   2.821   0.018   4.103
   43        1.267   2.815   0.014   4.097
   44        1.291   2.666   0.007   3.964
   45        1.283   2.678   0.005   3.965
   46        1.292   2.804   0.021   4.116
   47        1.291   2.635   0.004   3.930
   48        1.307   2.976   0.049   4.333
   49        1.271   2.732   0.007   4.011
   50        1.281   2.775   0.014   4.069
   51        1.274   2.711   0.006   3.992
   52        1.274   2.772   0.012   4.058
   53        1.285   2.747   0.012   4.044
   54        1.298   2.929   0.041   4.268
   55        1.271   2.762   0.009   4.042
   56        1.292   2.784   0.019   4.095
   57        1.287   2.682   0.005   3.974
   58        1.267   2.861   0.017   4.145
   59        1.284   2.699   0.007   3.990
   60        1.280   2.690   0.005   3.974
   61        1.285   2.682   0.005   3.972
   62        1.326   3.005   0.066   4.397
   63        1.279   2.710   0.007   3.997
   64        1.282   2.784   0.015   4.081
   65        1.290   2.773   0.015   4.078
   66        1.269   2.741   0.008   4.018
   67        1.278   2.791   0.015   4.083
   68        1.288   2.664   0.006   3.958
   69        1.266   2.782   0.011   4.059
   70        1.273   2.815   0.016   4.104
   71        1.289   2.721   0.011   4.021
   72        1.282   2.755   0.013   4.051
   73        1.286   2.777   0.017   4.081
   74        1.292   2.699   0.009   4.000
   75        1.262   2.789   0.012   4.063
   76        1.278   2.695   0.006   3.978
   77        1.281   2.753   0.011   4.045
   78        1.276   2.736   0.009   4.021
   79        1.282   2.809   0.018   4.109
   80        1.284   2.750   0.012   4.047
--------------------------------------------------
tot          71.62  144.83  254.55  470.99
 
magnetization (x)
 
# of ion       s       p       d       tot
------------------------------------------
    1        0.001   0.000   0.077   0.078
    2        0.001   0.017   0.811   0.828
    3        0.001   0.001  -0.061  -0.059
    4        0.002   0.013   0.731   0.745
    5       -0.000   0.004   0.077   0.082
    6       -0.000   0.007   0.428   0.435
    7       -0.000   0.003   0.131   0.134
    8        0.003   0.012   0.891   0.906
    9        0.003   0.003   0.284   0.290
   10        0.001  -0.001   0.102   0.102
   11        0.001   0.009   0.625   0.634
   12        0.000   0.008   0.319   0.326
   13        0.000  -0.000  -0.187  -0.187
   14        0.003   0.003   0.139   0.145
   15       -0.000  -0.001  -0.186  -0.187
   16       -0.001   0.006   0.163   0.168
   17       -0.002  -0.001  -0.060  -0.063
   18       -0.005  -0.004  -0.050  -0.059
   19        0.001  -0.003  -0.022  -0.024
   20        0.001   0.005   0.203   0.209
   21        0.003   0.020   1.236   1.258
   22        0.000  -0.003  -0.260  -0.263
   23       -0.000   0.000   0.009   0.010
   24       -0.001   0.001  -0.029  -0.029
   25       -0.002   0.002   0.156   0.156
   26        0.005   0.015   0.992   1.012
   27        0.000  -0.001  -0.002  -0.003
   28       -0.001   0.003   0.446   0.448
   29       -0.002  -0.005  -0.368  -0.375
   30       -0.006  -0.013  -0.661  -0.681
   31        0.001   0.001  -0.072  -0.070
   32        0.002   0.010   0.654   0.667
   33        0.002   0.050   0.000   0.052
   34        0.002   0.058   0.000   0.060
   35        0.001   0.032   0.000   0.033
   36        0.001   0.039   0.000   0.040
   37        0.005   0.143   0.000   0.148
   38        0.006   0.267   0.000   0.274
   39        0.003   0.077   0.000   0.080
   40        0.006   0.120   0.000   0.127
   41        0.012   0.554   0.000   0.566
   42        0.003   0.035   0.000   0.038
   43        0.001   0.001   0.000   0.002
   44        0.001  -0.002  -0.000  -0.001
   45        0.003   0.027   0.000   0.031
   46        0.001   0.010  -0.000   0.011
   47        0.008   0.361  -0.000   0.369
   48        0.001   0.005   0.000   0.006
   49        0.005   0.070   0.000   0.075
   50        0.003   0.109   0.000   0.112
   51        0.001   0.058   0.000   0.059
   52        0.003   0.092   0.000   0.096
   53       -0.000  -0.031   0.000  -0.031
   54        0.000   0.026   0.001   0.027
   55        0.004   0.079   0.000   0.083
   56       -0.005  -0.241  -0.000  -0.247
   57        0.001   0.073  -0.000   0.074
   58        0.002   0.022   0.000   0.024
   59        0.003   0.115   0.000   0.118
   60        0.001   0.021  -0.000   0.023
   61        0.007   0.241   0.000   0.248
   62       -0.000  -0.031   0.000  -0.032
   63        0.003   0.094   0.000   0.098
   64       -0.000  -0.011  -0.000  -0.011
   65        0.000   0.010   0.000   0.011
   66        0.002   0.025   0.000   0.027
   67        0.001   0.025   0.000   0.027
   68        0.010   0.494   0.000   0.504
   69        0.002   0.024   0.000   0.026
   70       -0.002  -0.043  -0.000  -0.045
   71        0.003   0.115   0.000   0.118
   72        0.002   0.057   0.000   0.059
   73       -0.000  -0.007   0.000  -0.007
   74        0.006   0.299   0.000   0.305
   75        0.001   0.018   0.000   0.020
   76        0.007   0.217   0.000   0.225
   77        0.002   0.101   0.000   0.104
   78       -0.001  -0.064  -0.000  -0.065
   79        0.002   0.050   0.000   0.052
   80        0.000   0.027   0.000   0.027
--------------------------------------------------
tot           0.13    3.92    6.52   10.57
 

 total amount of memory used by VASP MPI-rank0   567400. kBytes
=======================================================================

   base      :      30000. kBytes
   nonlr-proj:      52687. kBytes
   fftplans  :      10810. kBytes
   grid      :      61419. kBytes
   one-center:       2488. kBytes
   wavefun   :     409996. kBytes
 
  
  
 General timing and accounting informations for this job:
 ========================================================
  
                  Total CPU time used (sec):    14217.072
                            User time (sec):    14204.750
                          System time (sec):       12.322
                         Elapsed time (sec):    14270.691
  
                   Maximum memory used (kb):      673024.
                   Average memory used (kb):           0.
  
                          Minor page faults:        43194
                          Major page faults:           74
                 Voluntary context switches:         1335
