 vasp.5.4.4.18Apr17-6-g9f103f2a35 (build May 12 2020 04:58:55) complex          
  
 MD_VERSION_INFO: Compiled 2020-05-12T11:58:55-UTC in devlin.sd.materialsdesign.
 com:/home/medea2/data/build/wwolf/vasp-gpu5.4.4/13047/x86_64/src/src/build/std 
 from svn 13047
 
 This VASP executable licensed from Materials Design, Inc.
 
 executed on                        Lin64 date 2022.11.16  13:32:00
 running on   16 total cores
 distrk:  each k-point on   16 cores,    1 groups
 distr:  one band on NCORES_PER_BAND=   1 cores,   16 groups


--------------------------------------------------------------------------------------------------------


 INCAR:
 POTCAR:    PAW_PBE Li_sv 10Sep2004               
 POTCAR:    PAW_PBE Mn_pv 02Aug2007               
 POTCAR:    PAW_PBE O 08Apr2002                   
 POTCAR:    PAW_PBE Co 02Aug2007                  
 POTCAR:    PAW_PBE Ni 02Aug2007                  

 ----------------------------------------------------------------------------- 
|                                                                             |
|           W    W    AA    RRRRR   N    N  II  N    N   GGGG   !!!           |
|           W    W   A  A   R    R  NN   N  II  NN   N  G    G  !!!           |
|           W    W  A    A  R    R  N N  N  II  N N  N  G       !!!           |
|           W WW W  AAAAAA  RRRRR   N  N N  II  N  N N  G  GGG   !            |
|           WW  WW  A    A  R   R   N   NN  II  N   NN  G    G                |
|           W    W  A    A  R    R  N    N  II  N    N   GGGG   !!!           |
|                                                                             |
|      For optimal performance we recommend to set                            |
|        NCORE= 4 - approx SQRT( number of cores)                             |
|      NCORE specifies how many cores store one orbital (NPAR=cpu/NCORE).     |
|      This setting can  greatly improve the performance of VASP for DFT.     |
|      The default,   NCORE=1            might be grossly inefficient         |
|      on modern multi-core architectures or massively parallel machines.     |
|      Do your own testing !!!!                                               |
|      Unfortunately you need to use the default for GW and RPA calculations. |
|      (for HF NCORE is supported but not extensively tested yet)             |
|                                                                             |
 ----------------------------------------------------------------------------- 


 ----------------------------------------------------------------------------- 
|                                                                             |
|  ADVICE TO THIS USER RUNNING 'VASP/VAMP'   (HEAR YOUR MASTER'S VOICE ...):  |
|                                                                             |
|      You have switched on vdW-DFT.                                          |
|      This routine was written and supplied by Jiri Klimes.                  |
|      We recommed that you carefully read and cite the following             |
|      publication                                                            |
|      J. Klimes, D.R. Bowler, A. Michelides                                  |
|        J. Phys.: Cond Matt. 22 022201 (2010)                                |
|      J. Klimes, D.R. Bowler, A. Michelides                                  |
|        Phys. Rev. B. 83, 195131 (2011)                                      |
|      and references therein.                                                |
|                                                                             |
 ----------------------------------------------------------------------------- 

 POTCAR:    PAW_PBE Li_sv 10Sep2004               
  local pseudopotential read in
  atomic valenz-charges read in
  non local Contribution for L=           0  read in
    real space projection operators read in
  non local Contribution for L=           0  read in
    real space projection operators read in
  non local Contribution for L=           1  read in
    real space projection operators read in
    PAW grid and wavefunctions read in
 
   number of l-projection  operators is LMAX  =           3
   number of lm-projection operators is LMMAX =           5
 
 POTCAR:    PAW_PBE Mn_pv 02Aug2007               
  local pseudopotential read in
  partial core-charges read in
  partial kinetic energy density read in
  atomic valenz-charges read in
  non local Contribution for L=           1  read in
    real space projection operators read in
  non local Contribution for L=           1  read in
    real space projection operators read in
  non local Contribution for L=           2  read in
    real space projection operators read in
  non local Contribution for L=           2  read in
    real space projection operators read in
  non local Contribution for L=           0  read in
    real space projection operators read in
  non local Contribution for L=           0  read in
    real space projection operators read in
    PAW grid and wavefunctions read in
 
   number of l-projection  operators is LMAX  =           6
   number of lm-projection operators is LMMAX =          18
 
 POTCAR:    PAW_PBE O 08Apr2002                   
  local pseudopotential read in
  partial core-charges read in
  partial kinetic energy density read in
  kinetic energy density of atom read in
  atomic valenz-charges read in
  non local Contribution for L=           0  read in
    real space projection operators read in
  non local Contribution for L=           0  read in
    real space projection operators read in
  non local Contribution for L=           1  read in
    real space projection operators read in
  non local Contribution for L=           1  read in
    real space projection operators read in
    PAW grid and wavefunctions read in
 
   number of l-projection  operators is LMAX  =           4
   number of lm-projection operators is LMMAX =           8
 
 POTCAR:    PAW_PBE Co 02Aug2007                  
  local pseudopotential read in
  partial core-charges read in
  partial kinetic energy density read in
  atomic valenz-charges read in
  non local Contribution for L=           2  read in
    real space projection operators read in
  non local Contribution for L=           2  read in
    real space projection operators read in
  non local Contribution for L=           0  read in
    real space projection operators read in
  non local Contribution for L=           0  read in
    real space projection operators read in
  non local Contribution for L=           1  read in
    real space projection operators read in
  non local Contribution for L=           1  read in
    real space projection operators read in
    PAW grid and wavefunctions read in
 
   number of l-projection  operators is LMAX  =           6
   number of lm-projection operators is LMMAX =          18
 
 POTCAR:    PAW_PBE Ni 02Aug2007                  
  local pseudopotential read in
  partial core-charges read in
  partial kinetic energy density read in
  atomic valenz-charges read in
  non local Contribution for L=           2  read in
    real space projection operators read in
  non local Contribution for L=           2  read in
    real space projection operators read in
  non local Contribution for L=           0  read in
    real space projection operators read in
  non local Contribution for L=           0  read in
    real space projection operators read in
  non local Contribution for L=           1  read in
    real space projection operators read in
  non local Contribution for L=           1  read in
    real space projection operators read in
    PAW grid and wavefunctions read in
 
   number of l-projection  operators is LMAX  =           6
   number of lm-projection operators is LMMAX =          18
 
 Optimization of the real space projectors (new method)

 maximal supplied QI-value         = 22.11
 optimisation between [QCUT,QGAM] = [ 11.28, 22.77] = [ 35.61,145.23] Ry 
 Optimized for a Real-space Cutoff    1.10 Angstroem

   l    n(q)    QCUT    max X(q) W(low)/X(q) W(high)/X(q)  e(spline) 
   0      7    11.276    10.506    0.54E-04    0.58E-04    0.16E-07
   0      7    11.276     8.367    0.11E-03    0.14E-03    0.35E-07
   1      7    11.276     8.983    0.23E-03    0.43E-03    0.86E-07
 Optimization of the real space projectors (new method)

 maximal supplied QI-value         = 16.25
 optimisation between [QCUT,QGAM] = [ 11.38, 22.75] = [ 36.24,144.96] Ry 
 Optimized for a Real-space Cutoff    1.47 Angstroem

   l    n(q)    QCUT    max X(q) W(low)/X(q) W(high)/X(q)  e(spline) 
   1     10    11.376     3.658    0.62E-04    0.11E-03    0.11E-06
   1     10    11.376     5.612    0.12E-03    0.20E-03    0.19E-06
   2      9    11.376    55.373    0.10E-03    0.85E-04    0.19E-06
   2      9    11.376    50.863    0.11E-03    0.88E-04    0.19E-06
   0     10    11.376    79.536    0.52E-04    0.21E-04    0.79E-07
   0     10    11.376    38.668    0.45E-04    0.19E-04    0.74E-07
 Optimization of the real space projectors (new method)

 maximal supplied QI-value         = 24.76
 optimisation between [QCUT,QGAM] = [ 11.39, 22.77] = [ 36.31,145.25] Ry 
 Optimized for a Real-space Cutoff    1.10 Angstroem

   l    n(q)    QCUT    max X(q) W(low)/X(q) W(high)/X(q)  e(spline) 
   0      7    11.387    20.381    0.22E-03    0.48E-03    0.18E-06
   0      7    11.387    15.268    0.22E-03    0.52E-03    0.19E-06
   1      7    11.387     5.964    0.22E-03    0.73E-03    0.24E-06
   1      7    11.387     5.382    0.19E-03    0.60E-03    0.21E-06
 Optimization of the real space projectors (new method)

 maximal supplied QI-value         = 16.25
 optimisation between [QCUT,QGAM] = [ 11.38, 22.75] = [ 36.24,144.96] Ry 
 Optimized for a Real-space Cutoff    1.43 Angstroem

   l    n(q)    QCUT    max X(q) W(low)/X(q) W(high)/X(q)  e(spline) 
   2      9    11.376    65.824    0.18E-03    0.28E-04    0.14E-06
   2      9    11.376    61.429    0.18E-03    0.29E-04    0.14E-06
   0     10    11.376    56.174    0.51E-04    0.12E-03    0.20E-06
   0     10    11.376    31.263    0.46E-04    0.11E-03    0.18E-06
   1      9    11.376    19.828    0.23E-03    0.17E-03    0.10E-06
   1      9    11.376    15.139    0.20E-03    0.14E-03    0.89E-07
 Optimization of the real space projectors (new method)

 maximal supplied QI-value         = 16.25
 optimisation between [QCUT,QGAM] = [ 11.38, 22.75] = [ 36.24,144.96] Ry 
 Optimized for a Real-space Cutoff    1.47 Angstroem

   l    n(q)    QCUT    max X(q) W(low)/X(q) W(high)/X(q)  e(spline) 
   2      9    11.376    60.317    0.17E-03    0.16E-04    0.16E-06
   2      9    11.376    55.921    0.17E-03    0.16E-04    0.17E-06
   0     10    11.376    51.690    0.45E-04    0.60E-04    0.21E-06
   0     10    11.376    30.015    0.37E-04    0.55E-04    0.19E-06
   1     10    11.376    18.849    0.83E-04    0.11E-03    0.92E-07
   1     10    11.376    14.624    0.69E-04    0.92E-04    0.82E-07

 ----------------------------------------------------------------------------- 
|                                                                             |
|  ADVICE TO THIS USER RUNNING 'VASP/VAMP'   (HEAR YOUR MASTER'S VOICE ...):  |
|                                                                             |
|      You enforced a specific xc-type in the INCAR file,                     |
|      a different type was found on the POTCAR file                          |
|          I HOPE YOU KNOW, WHAT YOU ARE  DOING                               |
|                                                                             |
 ----------------------------------------------------------------------------- 

  PAW_PBE Li_sv 10Sep2004               :
 energy of atom  1       EATOM= -202.7858
 kinetic energy error for atom=    0.0143 (will be added to EATOM!!)
  PAW_PBE Mn_pv 02Aug2007               :
 energy of atom  2       EATOM=-2025.2664
 kinetic energy error for atom=    0.0062 (will be added to EATOM!!)
  PAW_PBE O 08Apr2002                   :
 energy of atom  3       EATOM= -432.3788
 kinetic energy error for atom=    0.0224 (will be added to EATOM!!)
  PAW_PBE Co 02Aug2007                  :
 energy of atom  4       EATOM= -813.3670
 kinetic energy error for atom=    0.0028 (will be added to EATOM!!)
  PAW_PBE Ni 02Aug2007                  :
 energy of atom  5       EATOM=-1077.6739
 kinetic energy error for atom=    0.0030 (will be added to EATOM!!)
 
 
 POSCAR: ce129622_1                              
  positions in direct lattice
  No initial velocities read in

 METAGGA = SCAN     LMAXTAU =  6    LMIXTAU =  T

 exchange correlation table for  LEXCH =       14
   RHO(1)=    0.500       N(1)  =     2000
   RHO(2)=  100.500       N(2)  =     4000
 


--------------------------------------------------------------------------------------------------------


 ion  position               nearest neighbor table
   1  0.742  0.089  0.252-  25 2.00  17 2.04   9 2.04  13 2.05  33 2.23  41 2.24  50 2.78   7 2.83

   2  0.258  0.089  0.748-  26 2.00  18 2.04  10 2.04  14 2.05  34 2.23  42 2.24  50 2.78   7 2.83

   3  0.745  0.803  0.751-  35 2.00  27 2.06  19 2.07  46 2.13  38 2.17  43 2.19  54 2.84
   4  0.255  0.803  0.249-  36 2.00  28 2.06  20 2.07  45 2.13  37 2.17  44 2.19  54 2.84
   5  0.243  0.311  0.751-  39 1.99  31 2.01  23 2.02  42 2.19  47 2.19  34 2.24  52 2.79  58 2.83

   6  0.757  0.311  0.249-  40 1.99  32 2.01  24 2.02  41 2.19  48 2.19  33 2.24  52 2.79  58 2.83

   7  0.000  0.000  0.000-  17 1.85  18 1.85   9 1.89  10 1.89  19 1.92  20 1.92  59 2.77  60 2.79
                            53 2.80  53 2.80  54 2.81  54 2.81   1 2.83   2 2.83
   8  0.500  0.500  0.000-  21 1.87  22 1.87  11 1.90  12 1.90  23 1.91  24 1.91  61 2.76  62 2.79
                            51 2.80  51 2.80  52 2.80  52 2.80
   9  0.635  1.000  0.101-  53 1.87   7 1.89  54 1.89   1 2.04
  10  0.365  1.000  0.899-  53 1.87   7 1.89  54 1.89   2 2.04
  11  0.132  0.501  0.101-  51 1.85  52 1.88   8 1.90
  12  0.868  0.501  0.899-  51 1.85  52 1.88   8 1.90
  13  0.864  0.001  0.401-  55 1.86  56 1.86  50 1.87   1 2.05
  14  0.136  0.001  0.599-  55 1.86  56 1.86  50 1.87   2 2.05
  15  0.369  0.501  0.401-  57 1.84  58 1.85  49 1.89
  16  0.631  0.501  0.599-  57 1.84  58 1.85  49 1.89
  17  0.099  0.099  0.111-   7 1.85  59 1.86   1 2.04  53 2.07
  18  0.901  0.099  0.889-   7 1.85  59 1.86   2 2.04  53 2.07
  19  0.858  0.897  0.898-  54 1.86  60 1.87   7 1.92   3 2.07
  20  0.142  0.897  0.102-  54 1.86  60 1.87   7 1.92   4 2.07
  21  0.637  0.600  0.101-  61 1.87   8 1.87  51 1.88
  22  0.363  0.600  0.899-  61 1.87   8 1.87  51 1.88
  23  0.359  0.398  0.899-  52 1.86  62 1.87   8 1.91   5 2.02
  24  0.641  0.398  0.101-  52 1.86  62 1.87   8 1.91   6 2.02
  25  0.395  0.102  0.393-  65 1.83  50 1.86   1 2.00  55 2.03
  26  0.605  0.102  0.607-  65 1.83  50 1.86   2 2.00  55 2.03
  27  0.639  0.897  0.602-  66 1.85  56 1.87  50 1.92   3 2.06
  28  0.361  0.897  0.398-  66 1.85  56 1.87  50 1.92   4 2.06
  29  0.864  0.601  0.401-  63 1.84  49 1.87  57 1.87
  30  0.136  0.601  0.599-  63 1.84  49 1.87  57 1.87
  31  0.139  0.398  0.600-  64 1.85  58 1.86  49 1.91   5 2.01
  32  0.861  0.398  0.400-  64 1.85  58 1.86  49 1.91   6 2.01
  33  0.643  0.199  0.100-  59 1.85  62 1.88  53 1.88   1 2.23   6 2.24
  34  0.357  0.199  0.900-  59 1.85  62 1.88  53 1.88   2 2.23   5 2.24
  35  0.397  0.799  0.893-  54 1.84  61 1.85   3 2.00  60 2.04
  36  0.603  0.799  0.107-  54 1.84  61 1.85   4 2.00  60 2.04
  37  0.141  0.700  0.099-  61 1.86  60 1.86  51 1.88   4 2.17
  38  0.859  0.700  0.901-  61 1.86  60 1.86  51 1.88   3 2.17
  39  0.898  0.300  0.892-  52 1.84  59 1.85   5 1.99  62 2.05
  40  0.102  0.300  0.108-  52 1.84  59 1.85   6 1.99  62 2.05
  41  0.857  0.202  0.398-  65 1.85  64 1.88  55 1.91   6 2.19   1 2.24
  42  0.143  0.202  0.602-  65 1.85  64 1.88  55 1.91   5 2.19   2 2.24
  43  0.134  0.801  0.601-  56 1.87  63 1.88  66 1.89   3 2.19
  44  0.866  0.801  0.399-  56 1.87  63 1.88  66 1.89   4 2.19
  45  0.361  0.702  0.399-  66 1.86  63 1.87  57 1.90   4 2.13
  46  0.639  0.702  0.601-  66 1.86  63 1.87  57 1.90   3 2.13
  47  0.633  0.302  0.602-  58 1.88  65 1.89  64 1.90   5 2.19
  48  0.367  0.302  0.398-  58 1.88  65 1.89  64 1.90   6 2.19
  49  0.000  0.501  0.500-  29 1.87  30 1.87  15 1.89  16 1.89  31 1.91  32 1.91  63 2.75  64 2.78
                            57 2.79  57 2.79  58 2.79  58 2.79
  50  0.500  0.000  0.500-  25 1.86  26 1.86  13 1.87  14 1.87  27 1.92  28 1.92  66 2.77  65 2.77
                             1 2.78   2 2.78  56 2.79  56 2.79  55 2.80  55 2.80
  51  0.000  0.600  0.000-  11 1.85  12 1.85  37 1.88  38 1.88  21 1.88  22 1.88  60 2.76  52 2.78
                            61 2.80  61 2.80   8 2.80   8 2.80
  52  0.000  0.399  0.000-  39 1.84  40 1.84  23 1.86  24 1.86  11 1.88  12 1.88  59 2.77  51 2.78
                             5 2.79   6 2.79   8 2.80   8 2.80  62 2.80  62 2.80
  53  0.500  0.100  0.000-   9 1.87  10 1.87  33 1.88  34 1.88  17 2.07  18 2.07  62 2.76  54 2.79
                             7 2.80   7 2.80  59 2.80  59 2.80
  54  0.500  0.899  0.000-  35 1.84  36 1.84  19 1.86  20 1.86   9 1.89  10 1.89  61 2.76  53 2.79
                            60 2.80  60 2.80   7 2.81   7 2.81   3 2.84   4 2.84
  55  0.000  0.101  0.500-  13 1.86  14 1.86  41 1.91  42 1.91  25 2.03  26 2.03  56 2.77  64 2.77
                            65 2.80  65 2.80  50 2.80  50 2.80
  56  0.000  0.901  0.500-  13 1.86  14 1.86  43 1.87  44 1.87  27 1.87  28 1.87  55 2.77  63 2.79
                            50 2.79  50 2.79  66 2.80  66 2.80
  57  0.500  0.600  0.500-  15 1.84  16 1.84  29 1.87  30 1.87  45 1.90  46 1.90  58 2.75  66 2.77
                            63 2.79  63 2.79  49 2.79  49 2.79
  58  0.500  0.402  0.500-  15 1.85  16 1.85  31 1.86  32 1.86  47 1.88  48 1.88  57 2.75  65 2.79
                            49 2.79  49 2.79  64 2.81  64 2.81   5 2.83   6 2.83
  59  0.000  0.200  0.000-  33 1.85  34 1.85  39 1.85  40 1.85  17 1.86  18 1.86  52 2.77   7 2.77
                            62 2.79  62 2.79  53 2.80  53 2.80
  60  0.000  0.799  0.000-  37 1.86  38 1.86  19 1.87  20 1.87  35 2.04  36 2.04  51 2.76   7 2.79
                            61 2.79  61 2.79  54 2.80  54 2.80
  61  0.500  0.700  0.000-  35 1.85  36 1.85  37 1.86  38 1.86  21 1.87  22 1.87  54 2.76   8 2.76
                            60 2.79  60 2.79  51 2.80  51 2.80
  62  0.500  0.299  0.000-  23 1.87  24 1.87  33 1.88  34 1.88  39 2.05  40 2.05  53 2.76  59 2.79
                            59 2.79   8 2.79  52 2.80  52 2.80
  63  0.000  0.699  0.500-  29 1.84  30 1.84  45 1.87  46 1.87  43 1.88  44 1.88  49 2.75  56 2.79
                            57 2.79  57 2.79  66 2.80  66 2.80
  64  0.000  0.300  0.500-  31 1.85  32 1.85  41 1.88  42 1.88  47 1.90  48 1.90  55 2.77  49 2.78
                            65 2.80  65 2.80  58 2.81  58 2.81
  65  0.500  0.200  0.500-  25 1.83  26 1.83  41 1.85  42 1.85  47 1.89  48 1.89  50 2.77  58 2.79
                            55 2.80  55 2.80  64 2.80  64 2.80
  66  0.500  0.800  0.500-  27 1.85  28 1.85  45 1.86  46 1.86  43 1.89  44 1.89  57 2.77  50 2.77
                            63 2.80  63 2.80  56 2.80  56 2.80
 
  LATTYP: Found a simple monoclinic cell.
 ALAT       =    11.4806057828
 B/A-ratio  =     1.2069909839
 C/A-ratio  =     1.7986580327
 COS(beta)  =    -0.9807005935
  
  Lattice vectors:
  
 A1 = (  -6.3984977900,   0.0000000000,  -9.5322366300)
 A2 = (   0.0000000000, -13.8569876700,   0.0000000000)
 A3 = (   7.9344376500,   0.0000000000,  19.0644732600)


Analysis of symmetry for initial positions (statically):
=====================================================================
 Subroutine PRICEL returns:
 Original cell was already a primitive cell.
 

 Routine SETGRP: Setting up the symmetry group for a 
 simple monoclinic supercell.


 Subroutine GETGRP returns: Found  2 space group operations
 (whereof  2 operations were pure point group operations)
 out of a pool of  4 trial point group operations.


The static configuration has the point symmetry C_2 .


Analysis of symmetry for dynamics (positions and initial velocities):
=====================================================================
 Subroutine PRICEL returns:
 Original cell was already a primitive cell.
 

 Routine SETGRP: Setting up the symmetry group for a 
 simple monoclinic supercell.


 Subroutine GETGRP returns: Found  2 space group operations
 (whereof  2 operations were pure point group operations)
 out of a pool of  4 trial point group operations.


The dynamic configuration has the point symmetry C_2 .


Analysis of structural, dynamic, and magnetic symmetry:
=====================================================================
 Subroutine PRICEL returns:
 Original cell was already a primitive cell.
 

 Routine SETGRP: Setting up the symmetry group for a 
 simple monoclinic supercell.


 Subroutine GETGRP returns: Found  2 space group operations
 (whereof  2 operations were pure point group operations)
 out of a pool of  4 trial point group operations.


The magnetic configuration has the point symmetry C_2 .


 Subroutine INISYM returns: Found  2 space group operations
 (whereof  2 operations are pure point group operations),
 and found     1 'primitive' translations

 
 
 KPOINTS: Automatic mesh                          

Automatic generation of k-mesh.
Space group operators:
 irot       det(A)        alpha          n_x          n_y          n_z        tau_x        tau_y        tau_z
    1     1.000000     0.000001     1.000000     0.000000     0.000000     0.000000     0.000000     0.000000
    2     1.000000   179.999999     0.000000     1.000000     0.000000     0.000000     0.000000     0.000000
 
 Subroutine IBZKPT returns following result:
 ===========================================
 
 Found      5 irreducible k-points:
 
 Following reciprocal coordinates:
            Coordinates               Weight
  0.000000  0.000000  0.000000      1.000000
  0.333333  0.000000 -0.000000      2.000000
  0.000000  0.000000  0.333333      2.000000
  0.333333  0.000000  0.333333      2.000000
 -0.333333  0.000000  0.333333      2.000000
 
 Following cartesian coordinates:
            Coordinates               Weight
  0.000000  0.000000  0.000000      1.000000
  0.068551  0.000000 -0.011046      2.000000
  0.000000  0.000000  0.034969      2.000000
  0.068551  0.000000  0.023923      2.000000
 -0.068551  0.000000  0.046015      2.000000
 

 ----------------------------------------------------------------------------- 
|                                                                             |
|           W    W    AA    RRRRR   N    N  II  N    N   GGGG   !!!           |
|           W    W   A  A   R    R  NN   N  II  NN   N  G    G  !!!           |
|           W    W  A    A  R    R  N N  N  II  N N  N  G       !!!           |
|           W WW W  AAAAAA  RRRRR   N  N N  II  N  N N  G  GGG   !            |
|           WW  WW  A    A  R   R   N   NN  II  N   NN  G    G                |
|           W    W  A    A  R    R  N    N  II  N    N   GGGG   !!!           |
|                                                                             |
|      The number of bands has been changed from the values supplied          |
|      in the INCAR file. This is a result of running the parallel version.   |
|      The orbitals not found in the WAVECAR file will be initialized with    |
|      random numbers, which is usually adequate. For correlated              |
|      calculations, however, you should redo the groundstate calculation.    |
|      I found NBANDS    =      459  now  NBANDS  =     464                   |
|                                                                             |
 ----------------------------------------------------------------------------- 



--------------------------------------------------------------------------------------------------------




 Dimension of arrays:
   k-points           NKPTS =      5   k-points in BZ     NKDIM =      5   number of bands    NBANDS=    464
   number of dos      NEDOS =    301   number of ions     NIONS =     66
   non local maximal  LDIM  =      6   non local SUM 2l+1 LMDIM =     18
   total plane-waves  NPLWV = 272160
   max r-space proj   IRMAX =   5738   max aug-charges    IRDMAX=  16909
   dimension x,y,z NGX =    36 NGY =  108 NGZ =   70
   dimension x,y,z NGXF=    72 NGYF=  216 NGZF=  140
   support grid    NGXF=    72 NGYF=  216 NGZF=  140
   ions per type =               6   2  40   2  16
   NGX,Y,Z   is equivalent  to a cutoff of  12.31, 12.96, 12.05 a.u.
   NGXF,Y,Z  is equivalent  to a cutoff of  24.62, 25.91, 24.11 a.u.

 SYSTEM =  unknown system                          
 POSCAR =  ce129622_1                              

 Startparameter for this run:
   NWRITE =      1    write-flag & timer
   PREC   = accura    normal or accurate (medium, high low for compatibility)
   ISTART =      0    job   : 0-new  1-cont  2-samecut
   ICHARG =      2    charge: 1-file 2-atom 10-const
   ISPIN  =      2    spin polarized calculation?
   LNONCOLLINEAR =      F non collinear calculations
   LSORBIT =      F    spin-orbit coupling
   INIWAV =      1    electr: 0-lowe 1-rand  2-diag
   LASPH  =      T    aspherical Exc in radial PAW
   METAGGA=      F    non-selfconsistent MetaGGA calc.

 Electronic Relaxation 1
   ENCUT  =  500.0 eV  36.75 Ry    6.06 a.u.   8.87 25.26 17.60*2*pi/ulx,y,z
   ENINI  =  500.0     initial cutoff
   ENAUG  =  628.9 eV  augmentation charge cutoff
   NELM   =   1000;   NELMIN=  2; NELMDL= -5     # of ELM steps 
   EDIFF  = 0.1E-04   stopping-criterion for ELM
   LREAL  =      T    real-space projection
   NLSPLINE    = F    spline interpolate recip. space projectors
   LCOMPAT=      F    compatible to vasp.4.4
   GGA_COMPAT  = T    GGA compatible to vasp.4.4-vasp.4.6
   LMAXPAW     = -100 max onsite density
   LMAXMIX     =    2 max onsite mixed and CHGCAR
   VOSKOWN=      1    Vosko Wilk Nusair interpolation
   ROPT   =   -0.00025  -0.00025  -0.00025  -0.00025
   ROPT   =   -0.00025
 Ionic relaxation
   EDIFFG = 0.1E-03   stopping-criterion for IOM
   NSW    =      0    number of steps for IOM
   NBLOCK =      1;   KBLOCK =      1    inner block; outer block 
   IBRION =     -1    ionic relax: 0-MD 1-quasi-New 2-CG
   NFREE  =      0    steps in history (QN), initial steepest desc. (CG)
   ISIF   =      2    stress and relaxation
   IWAVPR =     10    prediction:  0-non 1-charg 2-wave 3-comb
   ISYM   =      2    0-nonsym 1-usesym 2-fastsym
   LCORR  =      T    Harris-Foulkes like correction to forces

   POTIM  = 0.5000    time-step for ionic-motion
   TEIN   =    0.0    initial temperature
   TEBEG  =    0.0;   TEEND  =   0.0 temperature during run
   SMASS  =  -3.00    Nose mass-parameter (am)
   estimated Nose-frequenzy (Omega)   =  0.10E-29 period in steps =****** mass=  -0.540E-27a.u.
   SCALEE = 1.0000    scale energy and forces
   NPACO  =    256;   APACO  = 16.0  distance and # of slots for P.C.
   PSTRESS=    0.0 pullay stress

  Mass of Ions in am
   POMASS =   7.01 54.94 16.00 58.93 58.69
  Ionic Valenz
   ZVAL   =   3.00 13.00  6.00  9.00 10.00
  Atomic Wigner-Seitz radii
   RWIGS  =   1.23  1.17  0.73  1.16  1.15
  virtual crystal weights 
   VCA    =   1.00  1.00  1.00  1.00  1.00
   NELECT =     462.0000    total number of electrons
   NUPDOWN=      -1.0000    fix difference up-down

 DOS related values:
   EMIN   =  10.00;   EMAX   =-10.00  energy-range for DOS
   EFERMI =   0.00
   ISMEAR =     0;   SIGMA  =   0.05  broadening in eV -4-tet -1-fermi 0-gaus

 Electronic relaxation 2 (details)
   IALGO  =     58    algorithm
   LDIAG  =      T    sub-space diagonalisation (order eigenvalues)
   LSUBROT=      F    optimize rotation matrix (better conditioning)
   TURBO    =      0    0=normal 1=particle mesh
   IRESTART =      0    0=no restart 2=restart with 2 vectors
   NREBOOT  =      0    no. of reboots
   NMIN     =      0    reboot dimension
   EREF     =   0.00    reference energy to select bands
   IMIX   =      4    mixing-type and parameters
     AMIX     =   0.40;   BMIX     =  1.00
     AMIX_MAG =   1.60;   BMIX_MAG =  1.00
     AMIN     =   0.10
     WC   =   100.;   INIMIX=   1;  MIXPRE=   1;  MAXMIX= -45

 Intra band minimization:
   WEIMIN = 0.0000     energy-eigenvalue tresh-hold
   EBREAK =  0.54E-08  absolut break condition
   DEPER  =   0.30     relativ break condition  

   TIME   =   0.20     timestep for ELM

  volume/ion in A,a.u.               =       9.73        65.67
  Fermi-wavevector in a.u.,A,eV,Ry     =   1.466829  2.771904 29.274103  2.151586
  Thomas-Fermi vector in A             =   2.582519
 
 Write flags
   LWAVE        =      F    write WAVECAR
   LDOWNSAMPLE  =      F    k-point downsampling of WAVECAR
   LCHARG       =      T    write CHGCAR
   LVTOT        =      F    write LOCPOT, total local potential
   LVHAR        =      F    write LOCPOT, Hartree potential only
   LELF         =      F    write electronic localiz. function (ELF)
   LORBIT       =      0    0 simple, 1 ext, 2 COOP (PROOUT), +10 PAW based schemes


 Dipole corrections
   LMONO  =      F    monopole corrections only (constant potential shift)
   LDIPOL =      F    correct potential (dipole corrections)
   IDIPOL =      0    1-x, 2-y, 3-z, 4-all directions 
   EPSILON=  1.0000000 bulk dielectric constant

 Exchange correlation treatment:
   GGA     =    PS    GGA type
   LEXCH   =    14    internal setting for exchange type
   VOSKOWN=      1    Vosko Wilk Nusair interpolation
   LHFCALC =     F    Hartree Fock is set to
   LHFONE  =     F    Hartree Fock one center treatment
   AEXX    =    0.0000 exact exchange contribution

 vdW DFT:
   LUSE_VDW   =     T    switch on vdW DFT
   Zab_VDW    =-.8491    correlation parameter
   PARAM1     =0.1234
   PARAM2     =1.0000
   PARAM3     =0.0000
   -- rVV10 --
   BPARAM     =15.7000
   CPARAM     = 0.0093

 Linear response parameters
   LEPSILON=     F    determine dielectric tensor
   LRPA    =     F    only Hartree local field effects (RPA)
   LNABLA  =     F    use nabla operator in PAW spheres
   LVEL    =     F    velocity operator in full k-point grid
   LINTERFAST=   F  fast interpolation
   KINTER  =     0    interpolate to denser k-point grid
   CSHIFT  =0.1000    complex shift for real part using Kramers Kronig
   OMEGAMAX=  -1.0    maximum frequency
   DEG_THRESHOLD= 0.2000000E-02 threshold for treating states as degnerate
   RTIME   =   -0.100 relaxation time in fs
  (WPLASMAI=    0.000 imaginary part of plasma frequency in eV, 0.658/RTIME)
   DFIELD  = 0.0000000 0.0000000 0.0000000 field for delta impulse in time
 
 Orbital magnetization related:
   ORBITALMAG=     F  switch on orbital magnetization
   LCHIMAG   =     F  perturbation theory with respect to B field
   DQ        =  0.001000  dq finite difference perturbation B field
   LLRAUG    =     F  two centre corrections for induced B field



--------------------------------------------------------------------------------------------------------


 Static calculation
 charge density and potential will be updated during run
 spin polarized calculation
 Conjugate gradient for all bands (Freysoldt, et al. PRB 79, 241103 (2009))
 preconditioned conjugated gradient                                        
 perform sub-space diagonalisation
    before iterative eigenvector-optimisation
 modified Broyden-mixing scheme, WC =      100.0
 initial mixing is a Kerker type mixing with AMIX =  0.4000 and BMIX =      1.0000
 Hartree-type preconditioning will be used
 using additional bands          233
 real space projection scheme for non local part
 use partial core corrections
 no Harris-corrections to forces 
 use gradient corrections 
 use of overlap-Matrix (Vanderbilt PP)
 Gauss-broadening in eV      SIGMA  =   0.05


--------------------------------------------------------------------------------------------------------


  energy-cutoff  :      500.00
  volume of cell :      642.29
      direct lattice vectors                 reciprocal lattice vectors
     4.862557930  0.000000000  0.000000000     0.205653077  0.000000000 -0.033137108
     0.000000000 13.856987670  0.000000000     0.000000000  0.072165757  0.000000000
     1.535939860  0.000000000  9.532236630     0.000000000  0.000000000  0.104907173

  length of vectors
     4.862557930 13.856987670  9.655187540     0.208305679  0.072165757  0.104907173


 
 k-points in units of 2pi/SCALE and weight: Automatic mesh                          
   0.00000000  0.00000000  0.00000000       0.111
   0.06855103  0.00000000 -0.01104570       0.222
   0.00000000  0.00000000  0.03496906       0.222
   0.06855103  0.00000000  0.02392335       0.222
  -0.06855103  0.00000000  0.04601476       0.222
 
 k-points in reciprocal lattice and weights: Automatic mesh                          
   0.00000000  0.00000000  0.00000000       0.111
   0.33333333  0.00000000 -0.00000000       0.222
   0.00000000  0.00000000  0.33333333       0.222
   0.33333333  0.00000000  0.33333333       0.222
  -0.33333333  0.00000000  0.33333333       0.222
 
 position of ions in fractional coordinates (direct lattice) 
   0.74192016  0.08879431  0.25193383
   0.25807984  0.08879431  0.74806617
   0.74523490  0.80309702  0.75078665
   0.25476510  0.80309702  0.24921335
   0.24292175  0.31095795  0.75053636
   0.75707825  0.31095795  0.24946364
   0.00000000  0.00006923  0.00000000
   0.50000000  0.50007141  0.00000000
   0.63491791  0.99988095  0.10122334
   0.36508209  0.99988095  0.89877666
   0.13195076  0.50076036  0.10061002
   0.86804924  0.50076036  0.89938998
   0.86352386  0.00085675  0.40135344
   0.13647614  0.00085675  0.59864656
   0.36868037  0.50129684  0.40116293
   0.63131963  0.50129684  0.59883707
   0.09895280  0.09949841  0.11058801
   0.90104720  0.09949841  0.88941199
   0.85838009  0.89681478  0.89829364
   0.14161991  0.89681478  0.10170636
   0.63678652  0.60003917  0.10071331
   0.36321348  0.60003917  0.89928669
   0.35919448  0.39759115  0.89940526
   0.64080552  0.39759115  0.10059474
   0.39528954  0.10165607  0.39310308
   0.60471046  0.10165607  0.60689692
   0.63878019  0.89688562  0.60182431
   0.36121981  0.89688562  0.39817569
   0.86381422  0.60140057  0.40144487
   0.13618578  0.60140057  0.59855513
   0.13922398  0.39804424  0.60024599
   0.86077602  0.39804424  0.39975401
   0.64327839  0.19935534  0.09999306
   0.35672161  0.19935534  0.90000694
   0.39660067  0.79945476  0.89284088
   0.60339933  0.79945476  0.10715912
   0.14051429  0.69998098  0.09926798
   0.85948571  0.69998098  0.90073202
   0.89752156  0.30010536  0.89197935
   0.10247844  0.30010536  0.10802065
   0.85679920  0.20199007  0.39813625
   0.14320080  0.20199007  0.60186375
   0.13407975  0.80076406  0.60091212
   0.86592025  0.80076406  0.39908788
   0.36057478  0.70203251  0.39893160
   0.63942522  0.70203251  0.60106840
   0.63279905  0.30153852  0.60220482
   0.36720095  0.30153852  0.39779518
   0.00000000  0.50101313  0.50000000
   0.50000000  0.00009374  0.50000000
   0.00000000  0.59989317  0.00000000
   0.00000000  0.39932514  0.00000000
   0.50000000  0.09967356  0.00000000
   0.50000000  0.89856639  0.00000000
   0.00000000  0.10062188  0.50000000
   0.00000000  0.90098694  0.50000000
   0.50000000  0.60031187  0.50000000
   0.50000000  0.40162980  0.50000000
   0.00000000  0.19977505  0.00000000
   0.00000000  0.79872299  0.00000000
   0.50000000  0.69952899  0.00000000
   0.50000000  0.29853693  0.00000000
   0.00000000  0.69948452  0.50000000
   0.00000000  0.30049549  0.50000000
   0.50000000  0.20028801  0.50000000
   0.50000000  0.80014100  0.50000000
 
 position of ions in cartesian coordinates  (Angst):
   3.99458497  1.23042166  2.40149288
   2.40391282  1.23042166  7.13074375
   4.77691101 11.12850550  7.15667601
   1.62158678 11.12850550  2.37556062
   2.33399979  4.30894048  7.15429018
   4.06449800  4.30894048  2.37794645
   0.00000000  0.00095932  0.00000000
   2.43127897  6.92948336  0.00000000
   3.24279808 13.85533800  0.96488483
   3.15569971 13.85533800  8.56735180
   0.79614915  6.93903013  0.95903852
   5.60234864  6.93903013  8.57319811
   4.81538954  0.01187197  3.82579596
   1.58310825  0.01187197  5.70644067
   2.40889179  6.94646413  3.82397998
   3.98960600  6.94646413  5.70825665
   0.65102025  1.37874824  1.05415108
   5.74747754  1.37874824  8.47808555
   5.55364792 12.42715135  8.56274754
   0.84484987 12.42715135  0.96948909
   3.25110093  8.31473538  0.96002310
   3.14739686  8.31473538  8.57221353
   3.12803636  5.50941566  8.57334376
   3.27046143  5.50941566  0.95889287
   2.52590098  1.40864691  3.74715158
   3.87259681  1.40864691  5.78508505
   4.03047162 12.42813298  5.73673173
   2.36802617 12.42813298  3.79550490
   4.81694186  8.33360028  3.82666749
   1.58155593  8.33360028  5.70556914
   1.59892641  5.51569413  5.72168681
   4.79957138  5.51569413  3.81054982
   3.28156176  2.76246449  0.95315751
   3.11693603  2.76246449  8.57907912
   3.29984363 11.07803475  8.51077054
   3.09865416 11.07803475  1.02146609
   0.83572852  9.69962781  0.94624588
   5.56276927  9.69962781  8.58599075
   5.73427722  4.15855627  8.50255823
   0.66422057  4.15855627  1.02967840
   4.77774908  2.79897391  3.79512895
   1.62074871  2.79897391  5.73710768
   1.57493543 11.09617771  5.72803652
   4.82356236 11.09617771  3.80420011
   2.36605070  9.72805584  3.80271041
   4.03244709  9.72805584  5.72952622
   4.00197243  4.17841555  5.74035884
   2.39652536  4.17841555  3.79187779
   0.76796993  6.94253276  4.76611831
   3.19924890  0.00129895  4.76611831
   0.00000000  8.31271226  0.00000000
   0.00000000  5.53344354  0.00000000
   2.43127897  1.38117529  0.00000000
   2.43127897 12.45142339  0.00000000
   0.76796993  1.39431615  4.76611831
   0.76796993 12.48496492  4.76611831
   3.19924890  8.31851418  4.76611831
   3.19924890  5.56537919  4.76611831
   0.00000000  2.76828040  0.00000000
   0.00000000 11.06789462  0.00000000
   2.43127897  9.69336459  0.00000000
   2.43127897  4.13682256  0.00000000
   0.76796993  9.69274837  4.76611831
   0.76796993  4.16396230  4.76611831
   3.19924890  2.77538849  4.76611831
   3.19924890 11.08754397  4.76611831
 


--------------------------------------------------------------------------------------------------------


 k-point  1 :   0.0000 0.0000 0.0000  plane waves:   16287
 k-point  2 :   0.3333 0.0000-0.0000  plane waves:   16345
 k-point  3 :   0.0000 0.0000 0.3333  plane waves:   16291
 k-point  4 :   0.3333 0.0000 0.3333  plane waves:   16320
 k-point  5 :  -0.3333 0.0000 0.3333  plane waves:   16292

 maximum and minimum number of plane-waves per node :     16345    16287

 maximum number of plane-waves:     16345
 maximum index in each direction: 
   IXMAX=    9   IYMAX=   25   IZMAX=   17
   IXMIN=   -9   IYMIN=  -25   IZMIN=  -17

 The following grids will avoid any aliasing or wrap around errors in the Hartre
 e energy
  - symmetry arguments have not been applied
  - exchange correlation energies might require even more grid points
  - we recommend to set PREC=Normal or Accurate and rely on VASP defaults
 WARNING: aliasing errors must be expected set NGX to    40 to avoid them
 NGY is ok and might be reduce to   108
 NGZ is ok and might be reduce to    70

 serial   3D FFT for wavefunctions
 parallel 3D FFT for charge:
    minimum data exchange during FFTs selected (reduces bandwidth)


 total amount of memory used by VASP MPI-rank0   364261. kBytes
=======================================================================

   base      :      30000. kBytes
   nonlr-proj:      30728. kBytes
   fftplans  :       6155. kBytes
   grid      :      57684. kBytes
   one-center:       2052. kBytes
   wavefun   :     237642. kBytes
 
     INWAV:  cpu time    0.0000: real time    0.0000
 Broyden mixing: mesh for mixing (old mesh)
   NGX = 17   NGY = 51   NGZ = 35
  (NGX  = 72   NGY  =216   NGZ  =140)
  gives a total of  30345 points

 initial charge density was supplied:
 charge density of overlapping atoms calculated
 number of electron     462.0000000 magnetization      58.0000000
 keeping initial charge density in first step


--------------------------------------------------------------------------------------------------------


 Maximum index for non-local projection operator         5520
 Maximum index for augmentation-charges         1358 (set IRDMAX)


--------------------------------------------------------------------------------------------------------


 First call to EWALD:  gamma=   0.205
 Maximum number of real-space cells 5x 2x 3
 Maximum number of reciprocal cells 2x 4x 3

    FEWALD:  cpu time    0.0029: real time    0.0029


--------------------------------------- Iteration      1(   1)  ---------------------------------------


    POTLOK:  cpu time    2.5225: real time    2.5286
    SETDIJ:  cpu time    2.5140: real time    2.5200
    TRIAL :  cpu time   59.1605: real time   59.3208
    CORREC:  cpu time    0.0007: real time    0.0007
    --------------------------------------------
      LOOP:  cpu time   64.2286: real time   64.4494

 eigenvalue-minimisations  :  9472
 total energy-change (2. order) : 0.6545709E+04  (-0.2062167E+05)
 number of electron     462.0000000 magnetization      58.0000000
 augmentation part      462.0000000 magnetization      58.0000000

 Free energy of the ion-electron system (eV)
  ---------------------------------------------------
  alpha Z        PSCENC =      1487.55308362
  Ewald energy   TEWEN  =    -26794.53282764
  -Hartree energ DENC   =    -15201.97947290
  -exchange      EXHF   =         0.00000000
  -V(xc)+E(xc)   XCENC  =      -193.63908816
  PAW double counting   =     35136.92694073   -36695.59683049
  entropy T*S    EENTRO =        -0.01382236
  eigenvalues    EBANDS =      7468.51463211
  atomic energy  EATOM  =     41338.47602547
  ---------------------------------------------------
  free energy    TOTEN  =      6545.70864038 eV

  energy without entropy =     6545.72246273  energy(sigma->0) =     6545.71555156


--------------------------------------------------------------------------------------------------------




--------------------------------------- Iteration      1(   2)  ---------------------------------------


    TRIAL :  cpu time   60.2536: real time   60.3971
    CORREC:  cpu time    0.0007: real time    0.0007
    --------------------------------------------
      LOOP:  cpu time   60.2545: real time   60.3980

 eigenvalue-minimisations  :  9280
 total energy-change (2. order) :-0.4302644E+04  (-0.3813670E+04)
 number of electron     462.0000000 magnetization      58.0000000
 augmentation part      462.0000000 magnetization      58.0000000

 Free energy of the ion-electron system (eV)
  ---------------------------------------------------
  alpha Z        PSCENC =      1487.55308362
  Ewald energy   TEWEN  =    -26794.53282764
  -Hartree energ DENC   =    -15201.97947290
  -exchange      EXHF   =         0.00000000
  -V(xc)+E(xc)   XCENC  =      -193.63908816
  PAW double counting   =     35136.92694073   -36695.59683049
  entropy T*S    EENTRO =        -0.03283554
  eigenvalues    EBANDS =      3165.88915981
  atomic energy  EATOM  =     41338.47602547
  ---------------------------------------------------
  free energy    TOTEN  =      2243.06415489 eV

  energy without entropy =     2243.09699043  energy(sigma->0) =     2243.08057266


--------------------------------------------------------------------------------------------------------




--------------------------------------- Iteration      1(   3)  ---------------------------------------


    TRIAL :  cpu time   63.4938: real time   63.6443
    CORREC:  cpu time    0.0007: real time    0.0007
    --------------------------------------------
      LOOP:  cpu time   63.4946: real time   63.6452

 eigenvalue-minimisations  : 10016
 total energy-change (2. order) :-0.7255151E+03  (-0.6353892E+03)
 number of electron     462.0000000 magnetization      58.0000000
 augmentation part      462.0000000 magnetization      58.0000000

 Free energy of the ion-electron system (eV)
  ---------------------------------------------------
  alpha Z        PSCENC =      1487.55308362
  Ewald energy   TEWEN  =    -26794.53282764
  -Hartree energ DENC   =    -15201.97947290
  -exchange      EXHF   =         0.00000000
  -V(xc)+E(xc)   XCENC  =      -193.63908816
  PAW double counting   =     35136.92694073   -36695.59683049
  entropy T*S    EENTRO =        -0.04042086
  eigenvalues    EBANDS =      2440.38162709
  atomic energy  EATOM  =     41338.47602547
  ---------------------------------------------------
  free energy    TOTEN  =      1517.54903685 eV

  energy without entropy =     1517.58945771  energy(sigma->0) =     1517.56924728


--------------------------------------------------------------------------------------------------------




--------------------------------------- Iteration      1(   4)  ---------------------------------------


    TRIAL :  cpu time   65.7595: real time   65.9153
    CORREC:  cpu time    0.0007: real time    0.0007
    --------------------------------------------
      LOOP:  cpu time   65.7603: real time   65.9161

 eigenvalue-minimisations  : 10704
 total energy-change (2. order) :-0.4014694E+02  (-0.3934083E+02)
 number of electron     462.0000000 magnetization      58.0000000
 augmentation part      462.0000000 magnetization      58.0000000

 Free energy of the ion-electron system (eV)
  ---------------------------------------------------
  alpha Z        PSCENC =      1487.55308362
  Ewald energy   TEWEN  =    -26794.53282764
  -Hartree energ DENC   =    -15201.97947290
  -exchange      EXHF   =         0.00000000
  -V(xc)+E(xc)   XCENC  =      -193.63908816
  PAW double counting   =     35136.92694073   -36695.59683049
  entropy T*S    EENTRO =        -0.04261799
  eigenvalues    EBANDS =      2400.23688125
  atomic energy  EATOM  =     41338.47602547
  ---------------------------------------------------
  free energy    TOTEN  =      1477.40209389 eV

  energy without entropy =     1477.44471187  energy(sigma->0) =     1477.42340288


--------------------------------------------------------------------------------------------------------




--------------------------------------- Iteration      1(   5)  ---------------------------------------


    TRIAL :  cpu time   72.5281: real time   72.7002
    CORREC:  cpu time    0.0007: real time    0.0007
    CHARGE:  cpu time    8.4166: real time    8.4366
    --------------------------------------------
      LOOP:  cpu time   80.9455: real time   81.1376

 eigenvalue-minimisations  : 12368
 total energy-change (2. order) :-0.5251639E+00  (-0.5247948E+00)
 number of electron     462.0000029 magnetization      11.2893121
 augmentation part      178.8784211 magnetization      11.0041772

 Free energy of the ion-electron system (eV)
  ---------------------------------------------------
  alpha Z        PSCENC =      1487.55308362
  Ewald energy   TEWEN  =    -26794.53282764
  -Hartree energ DENC   =    -15201.97947290
  -exchange      EXHF   =         0.00000000
  -V(xc)+E(xc)   XCENC  =      -193.63908816
  PAW double counting   =     35136.92694073   -36695.59683049
  entropy T*S    EENTRO =        -0.04265885
  eigenvalues    EBANDS =      2399.71175822
  atomic energy  EATOM  =     41338.47602547
  ---------------------------------------------------
  free energy    TOTEN  =      1476.87692999 eV

  energy without entropy =     1476.91958884  energy(sigma->0) =     1476.89825942


--------------------------------------------------------------------------------------------------------




--------------------------------------- Iteration      1(   6)  ---------------------------------------


    POTLOK:  cpu time    2.1648: real time    2.1700
    SETDIJ:  cpu time    2.5697: real time    2.5758
    TRIAL :  cpu time   46.7930: real time   46.9041
    CORREC:  cpu time   25.9220: real time   25.9836
    CHARGE:  cpu time    9.4963: real time    9.5189
    --------------------------------------------
      LOOP:  cpu time   86.9463: real time   87.1528

 eigenvalue-minimisations  :     0
 total energy-change (2. order) :-0.2258177E+04  (-0.4426956E+03)
 number of electron     462.0000029 magnetization      10.4772421
 augmentation part      171.4286465 magnetization      11.6737778

 Free energy of the ion-electron system (eV)
  ---------------------------------------------------
  alpha Z        PSCENC =      1487.55308362
  Ewald energy   TEWEN  =    -26794.53282764
  -Hartree energ DENC   =    -16245.02542840
  -exchange      EXHF   =         0.00000000
  -V(xc)+E(xc)   XCENC  =       949.11370598
  PAW double counting   =     56860.56643068   -58986.57199406
  entropy T*S    EENTRO =        -0.02913652
  eigenvalues    EBANDS =       609.16395897
  atomic energy  EATOM  =     41338.47602547
  ---------------------------------------------------
  free energy    TOTEN  =      -781.29970424 eV

  energy without entropy =     -781.27056772  energy(sigma->0) =     -781.28513598


--------------------------------------------------------------------------------------------------------




--------------------------------------- Iteration      1(   7)  ---------------------------------------


    POTLOK:  cpu time    2.5130: real time    2.5189
    SETDIJ:  cpu time    2.5745: real time    2.5806
    TRIAL :  cpu time   50.2611: real time   50.3803
    CORREC:  cpu time   27.3056: real time   27.3704
    CHARGE:  cpu time    9.0763: real time    9.0979
    --------------------------------------------
      LOOP:  cpu time   91.7310: real time   91.9486

 eigenvalue-minimisations  :     0
 total energy-change (2. order) :-0.3731045E+03  (-0.2896092E+03)
 number of electron     462.0000041 magnetization      13.7220839
 augmentation part      160.7730032 magnetization      13.6435568

 Free energy of the ion-electron system (eV)
  ---------------------------------------------------
  alpha Z        PSCENC =      1487.55308362
  Ewald energy   TEWEN  =    -26794.53282764
  -Hartree energ DENC   =    -15258.20046549
  -exchange      EXHF   =         0.00000000
  -V(xc)+E(xc)   XCENC  =      1008.14926277
  PAW double counting   =     53605.29758481   -55461.28926813
  entropy T*S    EENTRO =        -0.06351765
  eigenvalues    EBANDS =     -1079.82841915
  atomic energy  EATOM  =     41338.47602547
  ---------------------------------------------------
  free energy    TOTEN  =     -1154.40416026 eV

  energy without entropy =    -1154.34064262  energy(sigma->0) =    -1154.37240144


--------------------------------------------------------------------------------------------------------




--------------------------------------- Iteration      1(   8)  ---------------------------------------


    POTLOK:  cpu time    2.1672: real time    2.1723
    SETDIJ:  cpu time    2.7857: real time    2.7923
    TRIAL :  cpu time   52.2928: real time   52.4167
    CORREC:  cpu time   27.4197: real time   27.4848
    CHARGE:  cpu time    8.4091: real time    8.4291
    --------------------------------------------
      LOOP:  cpu time   93.0748: real time   93.2956

 eigenvalue-minimisations  :     0
 total energy-change (2. order) :-0.3071182E+03  (-0.5981918E+02)
 number of electron     462.0000046 magnetization      15.9867904
 augmentation part      158.4339457 magnetization      14.7925587

 Free energy of the ion-electron system (eV)
  ---------------------------------------------------
  alpha Z        PSCENC =      1487.55308362
  Ewald energy   TEWEN  =    -26794.53282764
  -Hartree energ DENC   =    -14323.62840957
  -exchange      EXHF   =         0.00000000
  -V(xc)+E(xc)   XCENC  =      1098.51918141
  PAW double counting   =     50843.22661033   -52383.43197616
  entropy T*S    EENTRO =        -0.04466476
  eigenvalues    EBANDS =     -2727.64049401
  atomic energy  EATOM  =     41338.47602547
  ---------------------------------------------------
  free energy    TOTEN  =     -1461.52232419 eV

  energy without entropy =    -1461.47765944  energy(sigma->0) =    -1461.49999181


--------------------------------------------------------------------------------------------------------




--------------------------------------- Iteration      1(   9)  ---------------------------------------


    POTLOK:  cpu time    2.1655: real time    2.1707
    SETDIJ:  cpu time    2.5729: real time    2.5790
    TRIAL :  cpu time   52.3451: real time   52.4694
    CORREC:  cpu time   25.1827: real time   25.2425
    CHARGE:  cpu time    8.3188: real time    8.3385
    --------------------------------------------
      LOOP:  cpu time   90.5854: real time   90.8004

 eigenvalue-minimisations  :     0
 total energy-change (2. order) : 0.1275225E+02  (-0.5540988E+02)
 number of electron     462.0000051 magnetization      10.4919684
 augmentation part      156.9378413 magnetization      11.4647831

 Free energy of the ion-electron system (eV)
  ---------------------------------------------------
  alpha Z        PSCENC =      1487.55308362
  Ewald energy   TEWEN  =    -26794.53282764
  -Hartree energ DENC   =    -14316.77213129
  -exchange      EXHF   =         0.00000000
  -V(xc)+E(xc)   XCENC  =      1126.27910061
  PAW double counting   =     50161.14635067   -51654.25565151
  entropy T*S    EENTRO =        -0.03441891
  eigenvalues    EBANDS =     -2796.61935462
  atomic energy  EATOM  =     41338.47602547
  ---------------------------------------------------
  free energy    TOTEN  =     -1448.77006945 eV

  energy without entropy =    -1448.73565054  energy(sigma->0) =    -1448.75286000


--------------------------------------------------------------------------------------------------------




--------------------------------------- Iteration      1(  10)  ---------------------------------------


    POTLOK:  cpu time    2.2713: real time    2.2767
    SETDIJ:  cpu time    2.5672: real time    2.5733
    TRIAL :  cpu time   53.1815: real time   53.3077
    CORREC:  cpu time   28.6929: real time   28.7611
    CHARGE:  cpu time    9.6696: real time    9.6925
    --------------------------------------------
      LOOP:  cpu time   96.3830: real time   96.6117

 eigenvalue-minimisations  :     0
 total energy-change (2. order) :-0.8933843E+02  (-0.4204049E+02)
 number of electron     462.0000049 magnetization      12.8145406
 augmentation part      157.6963446 magnetization      12.5173069

 Free energy of the ion-electron system (eV)
  ---------------------------------------------------
  alpha Z        PSCENC =      1487.55308362
  Ewald energy   TEWEN  =    -26794.53282764
  -Hartree energ DENC   =    -14182.44261023
  -exchange      EXHF   =         0.00000000
  -V(xc)+E(xc)   XCENC  =      1152.74734912
  PAW double counting   =     49164.41457568   -50645.43242774
  entropy T*S    EENTRO =        -0.04102803
  eigenvalues    EBANDS =     -3058.85724554
  atomic energy  EATOM  =     41338.47602547
  ---------------------------------------------------
  free energy    TOTEN  =     -1538.10849616 eV

  energy without entropy =    -1538.06746813  energy(sigma->0) =    -1538.08798215


--------------------------------------------------------------------------------------------------------




--------------------------------------- Iteration      1(  11)  ---------------------------------------


    POTLOK:  cpu time    2.6103: real time    2.6165
    SETDIJ:  cpu time    2.5746: real time    2.5807
    TRIAL :  cpu time   55.2264: real time   55.3574
    CORREC:  cpu time   25.5889: real time   25.6497
    CHARGE:  cpu time    8.7964: real time    8.8174
    --------------------------------------------
      LOOP:  cpu time   94.7970: real time   95.0220

 eigenvalue-minimisations  :     0
 total energy-change (2. order) :-0.4098793E+02  (-0.2387587E+02)
 number of electron     462.0000047 magnetization      13.6112891
 augmentation part      158.1931241 magnetization      12.8194035

 Free energy of the ion-electron system (eV)
  ---------------------------------------------------
  alpha Z        PSCENC =      1487.55308362
  Ewald energy   TEWEN  =    -26794.53282764
  -Hartree energ DENC   =    -14509.94511950
  -exchange      EXHF   =         0.00000000
  -V(xc)+E(xc)   XCENC  =      1168.31893739
  PAW double counting   =     48854.55228462   -50417.63746479
  entropy T*S    EENTRO =        -0.04885034
  eigenvalues    EBANDS =     -2705.84032078
  atomic energy  EATOM  =     41338.47602547
  ---------------------------------------------------
  free energy    TOTEN  =     -1579.09642965 eV

  energy without entropy =    -1579.04757931  energy(sigma->0) =    -1579.07200448


--------------------------------------------------------------------------------------------------------




--------------------------------------- Iteration      1(  12)  ---------------------------------------


    POTLOK:  cpu time    2.4242: real time    2.4300
    SETDIJ:  cpu time    2.5749: real time    2.5811
    TRIAL :  cpu time   54.8932: real time   55.0234
    CORREC:  cpu time   29.5134: real time   29.5834
    CHARGE:  cpu time    8.6089: real time    8.6293
    --------------------------------------------
      LOOP:  cpu time   98.0150: real time   98.2475

 eigenvalue-minimisations  :     0
 total energy-change (2. order) :-0.1409008E+02  (-0.6061264E+02)
 number of electron     462.0000050 magnetization      11.9543985
 augmentation part      158.0447466 magnetization      11.7777835

 Free energy of the ion-electron system (eV)
  ---------------------------------------------------
  alpha Z        PSCENC =      1487.55308362
  Ewald energy   TEWEN  =    -26794.53282764
  -Hartree energ DENC   =    -14779.11376411
  -exchange      EXHF   =         0.00000000
  -V(xc)+E(xc)   XCENC  =      1178.44648884
  PAW double counting   =     48988.67793137   -50617.64283448
  entropy T*S    EENTRO =        -0.01919308
  eigenvalues    EBANDS =     -2395.00176417
  atomic energy  EATOM  =     41338.47602547
  ---------------------------------------------------
  free energy    TOTEN  =     -1593.18651144 eV

  energy without entropy =    -1593.16731835  energy(sigma->0) =    -1593.17691489


--------------------------------------------------------------------------------------------------------




--------------------------------------- Iteration      1(  13)  ---------------------------------------


    POTLOK:  cpu time    2.3219: real time    2.3274
    SETDIJ:  cpu time    2.5714: real time    2.5775
    TRIAL :  cpu time   52.9485: real time   53.0742
    CORREC:  cpu time   27.4563: real time   27.5214
    CHARGE:  cpu time    9.0350: real time    9.0564
    --------------------------------------------
      LOOP:  cpu time   94.3335: real time   94.5573

 eigenvalue-minimisations  :     0
 total energy-change (2. order) :-0.1393518E+02  (-0.1171991E+02)
 number of electron     462.0000051 magnetization      10.5244710
 augmentation part      157.7813537 magnetization      10.8554575

 Free energy of the ion-electron system (eV)
  ---------------------------------------------------
  alpha Z        PSCENC =      1487.55308362
  Ewald energy   TEWEN  =    -26794.53282764
  -Hartree energ DENC   =    -14736.94145321
  -exchange      EXHF   =         0.00000000
  -V(xc)+E(xc)   XCENC  =      1177.60381606
  PAW double counting   =     48971.44621608   -50603.26307509
  entropy T*S    EENTRO =        -0.02255444
  eigenvalues    EBANDS =     -2447.44427943
  atomic energy  EATOM  =     41338.47602547
  ---------------------------------------------------
  free energy    TOTEN  =     -1607.12168722 eV

  energy without entropy =    -1607.09913278  energy(sigma->0) =    -1607.11041000


--------------------------------------------------------------------------------------------------------




--------------------------------------- Iteration      1(  14)  ---------------------------------------


    POTLOK:  cpu time    2.6260: real time    2.6323
    SETDIJ:  cpu time    2.5777: real time    2.5838
    TRIAL :  cpu time   53.3112: real time   53.4392
    CORREC:  cpu time   26.8434: real time   26.9071
    CHARGE:  cpu time    8.4978: real time    8.5180
    --------------------------------------------
      LOOP:  cpu time   93.8568: real time   94.0810

 eigenvalue-minimisations  :     0
 total energy-change (2. order) :-0.1176133E+02  (-0.6515777E+01)
 number of electron     462.0000048 magnetization      12.8075335
 augmentation part      156.7905365 magnetization      12.1214846

 Free energy of the ion-electron system (eV)
  ---------------------------------------------------
  alpha Z        PSCENC =      1487.55308362
  Ewald energy   TEWEN  =    -26794.53282764
  -Hartree energ DENC   =    -14732.54592850
  -exchange      EXHF   =         0.00000000
  -V(xc)+E(xc)   XCENC  =      1177.52941133
  PAW double counting   =     48961.70686368   -50594.86070469
  entropy T*S    EENTRO =        -0.04664639
  eigenvalues    EBANDS =     -2462.18638751
  atomic energy  EATOM  =     41338.47602547
  ---------------------------------------------------
  free energy    TOTEN  =     -1618.88301869 eV

  energy without entropy =    -1618.83637230  energy(sigma->0) =    -1618.85969549


--------------------------------------------------------------------------------------------------------




--------------------------------------- Iteration      1(  15)  ---------------------------------------


    POTLOK:  cpu time    2.6913: real time    2.6977
    SETDIJ:  cpu time    2.5765: real time    2.5826
    TRIAL :  cpu time   50.2822: real time   50.4081
    CORREC:  cpu time   26.4989: real time   26.5618
    CHARGE:  cpu time    8.4353: real time    8.4554
    --------------------------------------------
      LOOP:  cpu time   90.4846: real time   90.7059

 eigenvalue-minimisations  :     0
 total energy-change (2. order) :-0.5845294E+01  (-0.1218355E+02)
 number of electron     462.0000051 magnetization      10.0907371
 augmentation part      156.7970540 magnetization      10.4318275

 Free energy of the ion-electron system (eV)
  ---------------------------------------------------
  alpha Z        PSCENC =      1487.55308362
  Ewald energy   TEWEN  =    -26794.53282764
  -Hartree energ DENC   =    -14731.14624054
  -exchange      EXHF   =         0.00000000
  -V(xc)+E(xc)   XCENC  =      1182.24893336
  PAW double counting   =     49006.33571413   -50630.34584299
  entropy T*S    EENTRO =        -0.00657603
  eigenvalues    EBANDS =     -2483.27051120
  atomic energy  EATOM  =     41338.47602547
  ---------------------------------------------------
  free energy    TOTEN  =     -1624.72831219 eV

  energy without entropy =    -1624.72173616  energy(sigma->0) =    -1624.72502418


--------------------------------------------------------------------------------------------------------




--------------------------------------- Iteration      1(  16)  ---------------------------------------


    POTLOK:  cpu time    2.1691: real time    2.1742
    SETDIJ:  cpu time    2.5720: real time    2.5781
    TRIAL :  cpu time   52.3045: real time   52.4285
    CORREC:  cpu time   27.0540: real time   27.1183
    CHARGE:  cpu time    8.5448: real time    8.5651
    --------------------------------------------
      LOOP:  cpu time   92.6448: real time   92.8645

 eigenvalue-minimisations  :     0
 total energy-change (2. order) :-0.5142782E+01  (-0.5689728E+01)
 number of electron     462.0000048 magnetization      13.2917568
 augmentation part      155.7438172 magnetization      12.1833125

 Free energy of the ion-electron system (eV)
  ---------------------------------------------------
  alpha Z        PSCENC =      1487.55308362
  Ewald energy   TEWEN  =    -26794.53282764
  -Hartree energ DENC   =    -14713.61959117
  -exchange      EXHF   =         0.00000000
  -V(xc)+E(xc)   XCENC  =      1181.45272272
  PAW double counting   =     48940.20489294   -50570.17253861
  entropy T*S    EENTRO =        -0.04034869
  eigenvalues    EBANDS =     -2499.22628519
  atomic energy  EATOM  =     41338.47602547
  ---------------------------------------------------
  free energy    TOTEN  =     -1629.87109390 eV

  energy without entropy =    -1629.83074521  energy(sigma->0) =    -1629.85091955


--------------------------------------------------------------------------------------------------------




--------------------------------------- Iteration      1(  17)  ---------------------------------------


    POTLOK:  cpu time    2.1705: real time    2.1756
    SETDIJ:  cpu time    2.5774: real time    2.5835
    TRIAL :  cpu time   49.0722: real time   49.1886
    CORREC:  cpu time   27.0280: real time   27.0921
    CHARGE:  cpu time    9.1527: real time    9.1744
    --------------------------------------------
      LOOP:  cpu time   90.0011: real time   90.2146

 eigenvalue-minimisations  :     0
 total energy-change (2. order) : 0.1361076E+01  (-0.1919846E+02)
 number of electron     462.0000051 magnetization      10.0018335
 augmentation part      155.9182161 magnetization      10.1746647

 Free energy of the ion-electron system (eV)
  ---------------------------------------------------
  alpha Z        PSCENC =      1487.55308362
  Ewald energy   TEWEN  =    -26794.53282764
  -Hartree energ DENC   =    -14742.77795997
  -exchange      EXHF   =         0.00000000
  -V(xc)+E(xc)   XCENC  =      1189.03384089
  PAW double counting   =     48916.95003593   -50538.04075740
  entropy T*S    EENTRO =        -0.00030071
  eigenvalues    EBANDS =     -2485.13111031
  atomic energy  EATOM  =     41338.47602547
  ---------------------------------------------------
  free energy    TOTEN  =     -1628.51001810 eV

  energy without entropy =    -1628.50971738  energy(sigma->0) =    -1628.50986774


--------------------------------------------------------------------------------------------------------




--------------------------------------- Iteration      1(  18)  ---------------------------------------


    POTLOK:  cpu time    2.3001: real time    2.3055
    SETDIJ:  cpu time    2.5693: real time    2.5753
    TRIAL :  cpu time   50.6276: real time   50.7477
    CORREC:  cpu time   25.3584: real time   25.4187
    CHARGE:  cpu time    8.4597: real time    8.4797
    --------------------------------------------
      LOOP:  cpu time   89.3156: real time   89.5274

 eigenvalue-minimisations  :     0
 total energy-change (2. order) :-0.8872909E+01  (-0.4965058E+01)
 number of electron     462.0000048 magnetization      13.4642268
 augmentation part      155.0516141 magnetization      12.0750092

 Free energy of the ion-electron system (eV)
  ---------------------------------------------------
  alpha Z        PSCENC =      1487.55308362
  Ewald energy   TEWEN  =    -26794.53282764
  -Hartree energ DENC   =    -14719.56781211
  -exchange      EXHF   =         0.00000000
  -V(xc)+E(xc)   XCENC  =      1187.42458232
  PAW double counting   =     48823.19876178   -50452.91723045
  entropy T*S    EENTRO =        -0.02708927
  eigenvalues    EBANDS =     -2507.01720943
  atomic energy  EATOM  =     41338.47602547
  ---------------------------------------------------
  free energy    TOTEN  =     -1637.38292716 eV

  energy without entropy =    -1637.35583788  energy(sigma->0) =    -1637.36938252


--------------------------------------------------------------------------------------------------------




--------------------------------------- Iteration      1(  19)  ---------------------------------------


    POTLOK:  cpu time    2.1660: real time    2.1711
    SETDIJ:  cpu time    2.4651: real time    2.4709
    TRIAL :  cpu time   51.9116: real time   52.0346
    CORREC:  cpu time   25.6219: real time   25.6826
    CHARGE:  cpu time    9.7784: real time    9.8016
    --------------------------------------------
      LOOP:  cpu time   91.9432: real time   92.1611

 eigenvalue-minimisations  :     0
 total energy-change (2. order) : 0.9337237E+01  (-0.2264266E+02)
 number of electron     462.0000052 magnetization      10.0000297
 augmentation part      155.2875914 magnetization       9.9809885

 Free energy of the ion-electron system (eV)
  ---------------------------------------------------
  alpha Z        PSCENC =      1487.55308362
  Ewald energy   TEWEN  =    -26794.53282764
  -Hartree energ DENC   =    -14771.60201743
  -exchange      EXHF   =         0.00000000
  -V(xc)+E(xc)   XCENC  =      1195.35000523
  PAW double counting   =     48790.17361888   -50414.97997633
  entropy T*S    EENTRO =        -0.00002150
  eigenvalues    EBANDS =     -2458.45651229
  atomic energy  EATOM  =     41338.47602547
  ---------------------------------------------------
  free energy    TOTEN  =     -1628.04568976 eV

  energy without entropy =    -1628.04566825  energy(sigma->0) =    -1628.04567900


--------------------------------------------------------------------------------------------------------




--------------------------------------- Iteration      1(  20)  ---------------------------------------


    POTLOK:  cpu time    2.7965: real time    2.8032
    SETDIJ:  cpu time    2.7020: real time    2.7084
    TRIAL :  cpu time   47.3905: real time   47.5029
    CORREC:  cpu time   25.8504: real time   25.9118
    CHARGE:  cpu time    8.4701: real time    8.4902
    --------------------------------------------
      LOOP:  cpu time   87.2099: real time   87.4168

 eigenvalue-minimisations  :     0
 total energy-change (2. order) :-0.1465816E+02  (-0.4150503E+01)
 number of electron     462.0000049 magnetization      11.9429191
 augmentation part      154.6951527 magnetization      10.9668877

 Free energy of the ion-electron system (eV)
  ---------------------------------------------------
  alpha Z        PSCENC =      1487.55308362
  Ewald energy   TEWEN  =    -26794.53282764
  -Hartree energ DENC   =    -14742.86706879
  -exchange      EXHF   =         0.00000000
  -V(xc)+E(xc)   XCENC  =      1193.29061955
  PAW double counting   =     48675.98146587   -50309.60332366
  entropy T*S    EENTRO =        -0.02994416
  eigenvalues    EBANDS =     -2491.00180341
  atomic energy  EATOM  =     41338.47602547
  ---------------------------------------------------
  free energy    TOTEN  =     -1642.70385050 eV

  energy without entropy =    -1642.67390634  energy(sigma->0) =    -1642.68887842


--------------------------------------------------------------------------------------------------------




--------------------------------------- Iteration      1(  21)  ---------------------------------------


    POTLOK:  cpu time    2.1672: real time    2.1723
    SETDIJ:  cpu time    2.4525: real time    2.4583
    TRIAL :  cpu time   53.1910: real time   53.3172
    CORREC:  cpu time   27.9482: real time   28.0145
    CHARGE:  cpu time    9.4761: real time    9.4986
    --------------------------------------------
      LOOP:  cpu time   95.2353: real time   95.4612

 eigenvalue-minimisations  :     0
 total energy-change (2. order) : 0.5211755E+01  (-0.2156397E+02)
 number of electron     462.0000051 magnetization      10.1136600
 augmentation part      154.7845500 magnetization       9.8534401

 Free energy of the ion-electron system (eV)
  ---------------------------------------------------
  alpha Z        PSCENC =      1487.55308362
  Ewald energy   TEWEN  =    -26794.53282764
  -Hartree energ DENC   =    -14775.83900584
  -exchange      EXHF   =         0.00000000
  -V(xc)+E(xc)   XCENC  =      1198.94805452
  PAW double counting   =     48645.06658735   -50276.65590675
  entropy T*S    EENTRO =        -0.00715959
  eigenvalues    EBANDS =     -2460.47816225
  atomic energy  EATOM  =     41338.47602547
  ---------------------------------------------------
  free energy    TOTEN  =     -1637.49209567 eV

  energy without entropy =    -1637.48493608  energy(sigma->0) =    -1637.48851588


--------------------------------------------------------------------------------------------------------




--------------------------------------- Iteration      1(  22)  ---------------------------------------


    POTLOK:  cpu time    2.8493: real time    2.8560
    SETDIJ:  cpu time    2.4600: real time    2.4659
    TRIAL :  cpu time   50.8512: real time   50.9718
    CORREC:  cpu time   25.2966: real time   25.3567
    CHARGE:  cpu time    8.4910: real time    8.5112
    --------------------------------------------
      LOOP:  cpu time   89.9485: real time   90.1619

 eigenvalue-minimisations  :     0
 total energy-change (2. order) :-0.9410597E+01  (-0.2218846E+01)
 number of electron     462.0000051 magnetization      10.0247027
 augmentation part      154.5696141 magnetization       9.6958915

 Free energy of the ion-electron system (eV)
  ---------------------------------------------------
  alpha Z        PSCENC =      1487.55308362
  Ewald energy   TEWEN  =    -26794.53282764
  -Hartree energ DENC   =    -14768.73632204
  -exchange      EXHF   =         0.00000000
  -V(xc)+E(xc)   XCENC  =      1198.19398801
  PAW double counting   =     48567.69187649   -50203.54616698
  entropy T*S    EENTRO =        -0.00214941
  eigenvalues    EBANDS =     -2471.99519045
  atomic energy  EATOM  =     41338.47602547
  ---------------------------------------------------
  free energy    TOTEN  =     -1646.90269312 eV

  energy without entropy =    -1646.90054372  energy(sigma->0) =    -1646.90161842


--------------------------------------------------------------------------------------------------------




--------------------------------------- Iteration      1(  23)  ---------------------------------------


    POTLOK:  cpu time    2.1671: real time    2.1723
    SETDIJ:  cpu time    2.4557: real time    2.4616
    TRIAL :  cpu time   49.6204: real time   49.7380
    CORREC:  cpu time  105.4110: real time  105.6612
    CHARGE:  cpu time    8.9872: real time    9.0085
    --------------------------------------------
      LOOP:  cpu time  168.6418: real time  169.0418

 eigenvalue-minimisations  :     0
 total energy-change (2. order) :-0.2338021E+01  (-0.7062364E-04)
 number of electron     462.0000049 magnetization      10.0850053
 augmentation part      153.1494401 magnetization       9.0641572

 Free energy of the ion-electron system (eV)
  ---------------------------------------------------
  alpha Z        PSCENC =      1487.55308362
  Ewald energy   TEWEN  =    -26794.53282764
  -Hartree energ DENC   =    -14771.94028476
  -exchange      EXHF   =         0.00000000
  -V(xc)+E(xc)   XCENC  =      1200.20843331
  PAW double counting   =     48525.66864803   -50162.55748251
  entropy T*S    EENTRO =        -0.00583958
  eigenvalues    EBANDS =     -2472.11415998
  atomic energy  EATOM  =     41338.47602547
  ---------------------------------------------------
  free energy    TOTEN  =     -1649.24071387 eV

  energy without entropy =    -1649.23487429  energy(sigma->0) =    -1649.23779408


--------------------------------------------------------------------------------------------------------




--------------------------------------- Iteration      1(  24)  ---------------------------------------


    POTLOK:  cpu time    2.6087: real time    2.6149
    SETDIJ:  cpu time    2.6301: real time    2.6363
    TRIAL :  cpu time   48.5296: real time   48.6447
    CORREC:  cpu time   25.3976: real time   25.4579
    CHARGE:  cpu time    8.6007: real time    8.6211
    --------------------------------------------
      LOOP:  cpu time   87.7671: real time   87.9753

 eigenvalue-minimisations  :     0
 total energy-change (2. order) :-0.3511678E+01  (-0.4431162E+00)
 number of electron     462.0000049 magnetization      10.0104611
 augmentation part      152.8608008 magnetization       8.8906457

 Free energy of the ion-electron system (eV)
  ---------------------------------------------------
  alpha Z        PSCENC =      1487.55308362
  Ewald energy   TEWEN  =    -26794.53282764
  -Hartree energ DENC   =    -14824.47286994
  -exchange      EXHF   =         0.00000000
  -V(xc)+E(xc)   XCENC  =      1213.32143028
  PAW double counting   =     48292.12447475   -49936.82158907
  entropy T*S    EENTRO =        -0.00176307
  eigenvalues    EBANDS =     -2428.39428014
  atomic energy  EATOM  =     41338.47602547
  ---------------------------------------------------
  free energy    TOTEN  =     -1652.75239224 eV

  energy without entropy =    -1652.75062917  energy(sigma->0) =    -1652.75151071


--------------------------------------------------------------------------------------------------------




--------------------------------------- Iteration      1(  25)  ---------------------------------------


    POTLOK:  cpu time    2.1678: real time    2.1729
    SETDIJ:  cpu time    2.4674: real time    2.4733
    TRIAL :  cpu time   46.8533: real time   46.9644
    CORREC:  cpu time   26.6135: real time   26.6766
    CHARGE:  cpu time    8.9860: real time    9.0073
    --------------------------------------------
      LOOP:  cpu time   87.0883: real time   87.2948

 eigenvalue-minimisations  :     0
 total energy-change (2. order) :-0.6180720E+00  (-0.4860766E+01)
 number of electron     462.0000047 magnetization       9.9999993
 augmentation part      151.4052562 magnetization       8.2360951

 Free energy of the ion-electron system (eV)
  ---------------------------------------------------
  alpha Z        PSCENC =      1487.55308362
  Ewald energy   TEWEN  =    -26794.53282764
  -Hartree energ DENC   =    -14831.95751044
  -exchange      EXHF   =         0.00000000
  -V(xc)+E(xc)   XCENC  =      1215.87525977
  PAW double counting   =     48244.45972055   -49891.58233206
  entropy T*S    EENTRO =        -0.00002846
  eigenvalues    EBANDS =     -2421.66012048
[...]
   0.279E+02 -.182E+02 -.425E+03   -.287E+02 0.180E+02 0.453E+03   0.786E+00 0.182E+00 -.278E+02
   -.279E+02 -.182E+02 0.425E+03   0.287E+02 0.180E+02 -.453E+03   -.786E+00 0.182E+00 0.278E+02
   -.448E+01 0.321E+02 0.319E+03   0.464E+01 -.335E+02 -.341E+03   -.157E+00 0.142E+01 0.225E+02
   0.448E+01 0.321E+02 -.319E+03   -.464E+01 -.335E+02 0.341E+03   0.157E+00 0.142E+01 -.225E+02
   0.295E+02 -.211E+02 0.361E+03   -.312E+02 0.211E+02 -.389E+03   0.175E+01 -.367E-01 0.278E+02
   -.295E+02 -.211E+02 -.361E+03   0.312E+02 0.211E+02 0.389E+03   -.175E+01 -.367E-01 -.278E+02
   -.892E+02 -.413E+02 -.401E+03   0.970E+02 0.431E+02 0.423E+03   -.779E+01 -.177E+01 -.220E+02
   0.892E+02 -.413E+02 0.401E+03   -.970E+02 0.431E+02 -.423E+03   0.779E+01 -.177E+01 0.220E+02
   -.746E+01 0.335E+02 0.383E+03   0.874E+01 -.317E+02 -.405E+03   -.129E+01 -.178E+01 0.228E+02
   0.746E+01 0.335E+02 -.383E+03   -.874E+01 -.317E+02 0.405E+03   0.129E+01 -.178E+01 -.228E+02
   -.288E+02 -.297E+02 -.425E+03   0.301E+02 0.308E+02 0.453E+03   -.128E+01 -.107E+01 -.282E+02
   0.288E+02 -.297E+02 0.425E+03   -.301E+02 0.308E+02 -.453E+03   0.128E+01 -.107E+01 0.282E+02
   -.138E+02 -.198E+02 0.382E+03   0.152E+02 0.212E+02 -.405E+03   -.139E+01 -.146E+01 0.227E+02
   0.138E+02 -.198E+02 -.382E+03   -.152E+02 0.212E+02 0.405E+03   0.139E+01 -.146E+01 -.227E+02
   0.590E+02 0.256E+02 0.334E+03   -.666E+02 -.261E+02 -.355E+03   0.758E+01 0.498E+00 0.212E+02
   -.590E+02 0.256E+02 -.334E+03   0.666E+02 -.261E+02 0.355E+03   -.758E+01 0.498E+00 -.212E+02
   0.214E+02 -.299E+02 -.329E+03   -.232E+02 0.341E+02 0.352E+03   0.178E+01 -.418E+01 -.228E+02
   -.214E+02 -.299E+02 0.329E+03   0.232E+02 0.341E+02 -.352E+03   -.178E+01 -.418E+01 0.228E+02
   -.272E+01 0.330E+02 0.365E+03   0.189E+01 -.340E+02 -.393E+03   0.828E+00 0.909E+00 0.281E+02
   0.272E+01 0.330E+02 -.365E+03   -.189E+01 -.340E+02 0.393E+03   -.828E+00 0.909E+00 -.281E+02
   0.309E+02 -.864E+02 -.329E+03   -.330E+02 0.907E+02 0.351E+03   0.214E+01 -.426E+01 -.226E+02
   -.309E+02 -.864E+02 0.329E+03   0.330E+02 0.907E+02 -.351E+03   -.214E+01 -.426E+01 0.226E+02
   0.529E+02 -.212E+02 -.339E+03   -.547E+02 0.212E+02 0.360E+03   0.177E+01 0.195E-01 -.214E+02
   -.529E+02 -.212E+02 0.339E+03   0.547E+02 0.212E+02 -.360E+03   -.177E+01 0.195E-01 0.214E+02
   0.648E+02 0.342E+02 0.375E+03   -.725E+02 -.345E+02 -.397E+03   0.772E+01 0.293E+00 0.220E+02
   -.648E+02 0.342E+02 -.375E+03   0.725E+02 -.345E+02 0.397E+03   -.772E+01 0.293E+00 -.220E+02
   0.280E+02 0.418E+02 -.371E+03   -.290E+02 -.436E+02 0.395E+03   0.991E+00 0.186E+01 -.244E+02
   -.280E+02 0.418E+02 0.371E+03   0.290E+02 -.436E+02 -.395E+03   -.991E+00 0.186E+01 0.244E+02
   0.706E+02 -.236E+02 0.371E+03   -.782E+02 0.231E+02 -.392E+03   0.762E+01 0.575E+00 0.215E+02
   -.706E+02 -.236E+02 -.371E+03   0.782E+02 0.231E+02 0.392E+03   -.762E+01 0.575E+00 -.215E+02
   -.411E+02 -.307E+01 0.318E+03   0.436E+02 0.162E+01 -.339E+03   -.252E+01 0.145E+01 0.209E+02
   0.411E+02 -.307E+01 -.318E+03   -.436E+02 0.162E+01 0.339E+03   0.252E+01 0.145E+01 -.209E+02
   -.268E+02 0.257E+02 -.356E+03   0.290E+02 -.260E+02 0.380E+03   -.219E+01 0.336E+00 -.238E+02
   0.268E+02 0.257E+02 0.356E+03   -.290E+02 -.260E+02 -.380E+03   0.219E+01 0.336E+00 0.238E+02
   -.155E+02 0.600E+02 0.348E+03   0.171E+02 -.631E+02 -.372E+03   -.163E+01 0.314E+01 0.239E+02
   0.155E+02 0.600E+02 -.348E+03   -.171E+02 -.631E+02 0.372E+03   0.163E+01 0.314E+01 -.239E+02
   -.346E+02 -.321E+02 -.354E+03   0.370E+02 0.317E+02 0.378E+03   -.233E+01 0.411E+00 -.235E+02
   0.346E+02 -.321E+02 0.354E+03   -.370E+02 0.317E+02 -.378E+03   0.233E+01 0.411E+00 0.235E+02
   -.225E-06 -.126E+02 0.207E-05   0.567E-13 0.131E+02 -.477E-14   0.136E-19 -.691E+00 0.000E+00
   -.213E-07 0.599E+02 0.246E-06   -.564E-13 -.590E+02 -.128E-14   -.136E-18 -.121E+01 0.000E+00
   0.146E-06 -.268E+02 0.217E-06   0.193E-13 0.272E+02 -.837E-13   0.271E-19 -.291E+00 0.000E+00
   -.108E-06 -.678E+02 -.160E-06   0.800E-13 0.673E+02 0.280E-13   -.356E-19 0.592E+00 0.000E+00
   0.156E-06 -.377E+02 -.442E-06   0.724E-13 0.381E+02 -.436E-13   0.108E-18 -.319E+00 0.000E+00
   -.438E-07 0.920E+01 0.124E-06   0.126E-12 -.920E+01 -.548E-13   -.322E-19 0.213E+00 0.000E+00
   -.540E-06 -.159E+01 0.581E-05   -.571E-13 0.840E+00 0.498E-13   -.136E-18 0.904E+00 0.000E+00
   0.683E-06 -.633E+01 -.735E-05   -.538E-13 0.762E+01 -.107E-12   0.000E+00 -.127E+01 0.000E+00
   -.726E-06 0.732E+01 0.763E-05   0.426E-13 -.783E+01 0.624E-13   -.136E-19 0.722E+00 0.000E+00
   0.590E-06 -.837E+02 -.620E-05   0.706E-13 0.846E+02 -.108E-12   0.000E+00 -.876E+00 0.000E+00
   0.689E-07 -.478E+02 0.102E-06   0.491E-14 0.482E+02 -.126E-13   -.136E-19 -.432E+00 0.000E+00
   -.150E-06 0.649E+02 -.223E-06   -.402E-13 -.651E+02 -.131E-13   -.136E-18 0.164E+00 0.000E+00
   0.475E-07 0.513E+02 -.135E-06   0.682E-13 -.509E+02 -.108E-12   0.542E-19 -.536E+00 0.000E+00
   -.156E-06 -.154E+02 0.443E-06   0.380E-13 0.150E+02 -.726E-13   0.542E-19 0.400E+00 0.000E+00
   -.200E-06 0.651E+02 0.216E-05   -.372E-14 -.660E+02 -.137E-12   0.136E-19 0.106E+01 0.000E+00
   0.210E-06 -.449E+02 -.226E-05   0.335E-13 0.450E+02 -.175E-13   -.136E-19 -.143E+00 0.000E+00
   -.616E-06 -.310E+02 0.647E-05   0.145E-13 0.299E+02 0.603E-13   -.103E-18 0.126E+01 0.000E+00
   0.426E-06 0.356E+02 -.448E-05   -.769E-13 -.354E+02 0.522E-14   -.136E-19 -.241E+00 0.000E+00
 -----------------------------------------------------------------------------------------------
   -.168E-05 0.727E+01 -.375E-05   -.144E-12 0.348E-12 0.351E-12   0.133E-14 -.725E+01 0.000E+00
 
 
 POSITION                                       TOTAL-FORCE (eV/Angst)
 -----------------------------------------------------------------------------------
      3.99458      1.23042      2.40149        -0.005522      0.004339     -0.007939
      2.40391      1.23042      7.13074         0.005522      0.004339      0.007939
      4.77691     11.12851      7.15668        -0.005252      0.000890     -0.002685
      1.62159     11.12851      2.37556         0.005252      0.000890      0.002685
      2.33400      4.30894      7.15429         0.002583     -0.008445      0.003246
      4.06450      4.30894      2.37795        -0.002583     -0.008445     -0.003246
      0.00000      0.00096      0.00000         0.000000     -0.010885      0.000000
      2.43128      6.92948      0.00000         0.000000     -0.004796      0.000000
      3.24280     13.85534      0.96488         0.000160     -0.000774      0.002012
      3.15570     13.85534      8.56735        -0.000160     -0.000774     -0.002012
      0.79615      6.93903      0.95904         0.001667     -0.005429      0.006906
      5.60235      6.93903      8.57320        -0.001667     -0.005429     -0.006906
      4.81539      0.01187      3.82580        -0.002950      0.000839     -0.003863
      1.58311      0.01187      5.70644         0.002950      0.000839      0.003863
      2.40889      6.94646      3.82398        -0.002402      0.002078     -0.004935
      3.98961      6.94646      5.70826         0.002402      0.002078      0.004935
      0.65102      1.37875      1.05415         0.001852     -0.000280     -0.002078
      5.74748      1.37875      8.47809        -0.001852     -0.000280      0.002078
      5.55365     12.42715      8.56275        -0.005433     -0.004171     -0.006876
      0.84485     12.42715      0.96949         0.005433     -0.004171      0.006876
      3.25110      8.31474      0.96002         0.008205      0.002419      0.010847
      3.14740      8.31474      8.57221        -0.008205      0.002419     -0.010847
      3.12804      5.50942      8.57334         0.002970      0.002457      0.002236
      3.27046      5.50942      0.95889        -0.002970      0.002457     -0.002236
      2.52590      1.40865      3.74715        -0.005063      0.003347     -0.003605
      3.87260      1.40865      5.78509         0.005063      0.003347      0.003605
      4.03047     12.42813      5.73673         0.000887      0.004260      0.002828
      2.36803     12.42813      3.79550        -0.000887      0.004260     -0.002828
      4.81694      8.33360      3.82667        -0.002212      0.002488     -0.004121
      1.58156      8.33360      5.70557         0.002212      0.002488      0.004121
      1.59893      5.51569      5.72169         0.003137      0.006279      0.006227
      4.79957      5.51569      3.81055        -0.003137      0.006279     -0.006227
      3.28156      2.76246      0.95316         0.003256     -0.001317      0.002850
      3.11694      2.76246      8.57908        -0.003256     -0.001317     -0.002850
      3.29984     11.07803      8.51077        -0.004041     -0.005878     -0.003656
      3.09865     11.07803      1.02147         0.004041     -0.005878      0.003656
      0.83573      9.69963      0.94625         0.000531     -0.002341      0.004100
      5.56277      9.69963      8.58599        -0.000531     -0.002341     -0.004100
      5.73428      4.15856      8.50256        -0.006037      0.003412     -0.003674
      0.66422      4.15856      1.02968         0.006037      0.003412      0.003674
      4.77775      2.79897      3.79513        -0.001534      0.001684     -0.003750
      1.62075      2.79897      5.73711         0.001534      0.001684      0.003750
      1.57494     11.09618      5.72804         0.003062      0.001757      0.002222
      4.82356     11.09618      3.80420        -0.003062      0.001757     -0.002222
      2.36605      9.72806      3.80271        -0.001451      0.000779     -0.001707
      4.03245      9.72806      5.72953         0.001451      0.000779      0.001707
      4.00197      4.17842      5.74036         0.002738      0.004535      0.006916
      2.39653      4.17842      3.79188        -0.002738      0.004535     -0.006916
      0.76797      6.94253      4.76612         0.000000      0.002470      0.000000
      3.19925      0.00130      4.76612         0.000000      0.001299      0.000000
      0.00000      8.31271      0.00000        -0.000000      0.006491      0.000000
      0.00000      5.53344      0.00000         0.000000     -0.001095      0.000000
      2.43128      1.38118      0.00000         0.000000     -0.008061      0.000000
      2.43128     12.45142      0.00000         0.000000     -0.001510      0.000000
      0.76797      1.39432      4.76612         0.000000      0.002673      0.000000
      0.76797     12.48496      4.76612         0.000000     -0.001884      0.000000
      3.19925      8.31851      4.76612         0.000000      0.007653      0.000000
      3.19925      5.56538      4.76612         0.000000      0.003066      0.000000
      0.00000      2.76828      0.00000        -0.000000     -0.021738      0.000000
      0.00000     11.06789      0.00000         0.000000     -0.010852      0.000000
      2.43128      9.69336      0.00000        -0.000000      0.008156      0.000000
      2.43128      4.13682      0.00000         0.000000      0.007693      0.000000
      0.76797      9.69275      4.76612         0.000000      0.004566      0.000000
      0.76797      4.16396      4.76612         0.000000     -0.002524      0.000000
      3.19925      2.77539      4.76612         0.000000     -0.003751      0.000000
      3.19925     11.08754      4.76612         0.000000     -0.002822      0.000000
 -----------------------------------------------------------------------------------
    total drift:                               -0.000002      0.019957     -0.000004


--------------------------------------------------------------------------------------------------------



  FREE ENERGIE OF THE ION-ELECTRON SYSTEM (eV)
  ---------------------------------------------------
  free  energy   TOTEN  =     -1660.3771641172 eV

  energy  without entropy=    -1660.3771641172  energy(sigma->0) =    -1660.37716412
 


--------------------------------------------------------------------------------------------------------


    POTLOK:  cpu time    4.6492: real time    4.6602


--------------------------------------------------------------------------------------------------------


     LOOP+:  cpu time 5310.4387: real time 5323.3969
    4ORBIT:  cpu time    0.0000: real time    0.0000

volume of typ            1:     7.3 %

volume of typ            2:     2.1 %

volume of typ            3:    10.1 %

volume of typ            4:     2.0 %

volume of typ            5:    15.9 %
 
total charge     
 
# of ion       s       p       d       tot
------------------------------------------
    1        2.078   0.249   0.104   2.431
    2        2.078   0.249   0.104   2.431
    3        2.071   0.231   0.096   2.399
    4        2.071   0.231   0.096   2.399
    5        2.075   0.241   0.101   2.417
    6        2.075   0.241   0.101   2.417
    7        0.242   6.271   4.573  11.087
    8        0.237   6.261   4.555  11.054
    9        1.273   2.822   0.007   4.102
   10        1.273   2.822   0.007   4.102
   11        1.286   2.779   0.007   4.073
   12        1.286   2.780   0.007   4.073
   13        1.273   2.812   0.007   4.093
   14        1.273   2.812   0.007   4.093
   15        1.287   2.768   0.008   4.063
   16        1.287   2.768   0.008   4.063
   17        1.277   2.810   0.006   4.093
   18        1.277   2.810   0.006   4.093
   19        1.274   2.818   0.007   4.099
   20        1.274   2.818   0.007   4.098
   21        1.287   2.779   0.007   4.073
   22        1.287   2.779   0.007   4.073
   23        1.274   2.820   0.007   4.101
   24        1.274   2.820   0.007   4.100
   25        1.276   2.803   0.007   4.085
   26        1.276   2.803   0.007   4.085
   27        1.277   2.797   0.007   4.081
   28        1.277   2.797   0.007   4.081
   29        1.288   2.768   0.008   4.063
   30        1.288   2.768   0.008   4.063
   31        1.277   2.802   0.007   4.085
   32        1.277   2.802   0.007   4.085
   33        1.272   2.816   0.007   4.095
   34        1.272   2.816   0.007   4.095
   35        1.281   2.790   0.007   4.078
   36        1.281   2.790   0.007   4.078
   37        1.280   2.793   0.007   4.080
   38        1.280   2.793   0.007   4.080
   39        1.280   2.792   0.006   4.079
   40        1.280   2.793   0.006   4.079
   41        1.273   2.810   0.007   4.089
   42        1.273   2.810   0.007   4.089
   43        1.281   2.782   0.007   4.070
   44        1.281   2.783   0.007   4.070
   45        1.280   2.788   0.007   4.075
   46        1.280   2.788   0.007   4.075
   47        1.280   2.783   0.007   4.070
   48        1.280   2.783   0.007   4.070
   49        0.260   0.369   6.825   7.454
   50        0.265   0.380   6.839   7.484
   51        0.292   0.410   7.761   8.463
   52        0.301   0.430   7.776   8.506
   53        0.261   0.341   7.804   8.406
   54        0.299   0.425   7.771   8.495
   55        0.263   0.340   7.803   8.406
   56        0.296   0.415   7.768   8.479
   57        0.294   0.407   7.763   8.465
   58        0.301   0.425   7.775   8.501
   59        0.305   0.440   7.776   8.521
   60        0.270   0.357   7.806   8.434
   61        0.303   0.434   7.772   8.509
   62        0.265   0.346   7.803   8.414
   63        0.301   0.423   7.774   8.498
   64        0.291   0.404   7.763   8.458
   65        0.305   0.434   7.779   8.518
   66        0.297   0.418   7.766   8.480
--------------------------------------------------
tot          69.25  133.04  148.13  350.42
 
magnetization (x)
 
# of ion       s       p       d       tot
------------------------------------------
    1        0.004   0.006   0.001   0.012
    2        0.004   0.006   0.001   0.012
    3        0.001   0.003   0.001   0.005
    4        0.001   0.003   0.001   0.005
    5        0.002   0.004   0.001   0.006
    6        0.002   0.004   0.001   0.006
    7        0.013   0.014   2.665   2.693
    8        0.014   0.014   2.699   2.728
    9        0.002  -0.019   0.001  -0.017
   10        0.002  -0.019   0.001  -0.017
   11        0.001   0.001   0.000   0.002
   12        0.001   0.001   0.000   0.002
   13        0.001  -0.039   0.000  -0.038
   14        0.001  -0.039   0.000  -0.038
   15       -0.000  -0.004   0.000  -0.004
   16       -0.000  -0.004   0.000  -0.004
   17        0.008   0.094   0.001   0.103
   18        0.008   0.094   0.001   0.103
   19        0.002   0.001   0.000   0.004
   20        0.002   0.001   0.000   0.004
   21        0.001  -0.002   0.000   0.000
   22        0.001  -0.002   0.000   0.000
   23        0.002   0.002   0.000   0.004
   24        0.002   0.002   0.000   0.004
   25        0.007   0.075   0.000   0.082
   26        0.007   0.075   0.000   0.082
   27        0.000  -0.007   0.000  -0.006
   28        0.000  -0.007   0.000  -0.006
   29        0.000  -0.004   0.000  -0.004
   30        0.000  -0.004   0.000  -0.004
   31        0.000  -0.004   0.000  -0.004
   32        0.000  -0.004   0.000  -0.004
   33        0.002  -0.022   0.000  -0.020
   34        0.002  -0.022   0.000  -0.020
   35        0.007   0.098   0.000   0.105
   36        0.007   0.097   0.000   0.105
   37        0.001  -0.015   0.000  -0.013
   38        0.001  -0.015   0.000  -0.013
   39        0.007   0.096   0.000   0.103
   40        0.007   0.096   0.000   0.103
   41        0.002  -0.011   0.000  -0.009
   42        0.002  -0.011   0.000  -0.009
   43        0.000  -0.000   0.000   0.000
   44        0.000  -0.000   0.000   0.000
   45        0.000  -0.001   0.000  -0.001
   46        0.000  -0.001   0.000  -0.001
   47        0.000  -0.008   0.000  -0.008
   48        0.000  -0.008   0.000  -0.008
   49        0.000   0.000  -0.006  -0.006
   50       -0.000   0.000  -0.056  -0.056
   51        0.005   0.004   0.060   0.070
   52        0.003   0.003  -0.016  -0.009
   53        0.010   0.004   0.897   0.911
   54        0.002   0.003   0.001   0.005
   55        0.004   0.001   0.873   0.878
   56        0.001   0.001   0.058   0.059
   57        0.000   0.000   0.012   0.012
   58        0.000   0.000   0.009   0.009
   59        0.001   0.001  -0.013  -0.011
   60        0.006   0.002   0.853   0.861
   61        0.001   0.002  -0.009  -0.006
   62        0.006   0.002   0.871   0.879
   63        0.000   0.000   0.008   0.008
   64        0.001   0.001   0.082   0.084
   65       -0.001   0.000  -0.019  -0.020
   66        0.000   0.000   0.010   0.010
--------------------------------------------------
tot           0.17    0.54    8.99    9.70
 

 total amount of memory used by VASP MPI-rank0   364261. kBytes
=======================================================================

   base      :      30000. kBytes
   nonlr-proj:      30728. kBytes
   fftplans  :       6155. kBytes
   grid      :      57684. kBytes
   one-center:       2052. kBytes
   wavefun   :     237642. kBytes
 
  
  
 General timing and accounting informations for this job:
 ========================================================
  
                  Total CPU time used (sec):     5331.963
                            User time (sec):     5308.772
                          System time (sec):       23.191
                         Elapsed time (sec):     5349.883
  
                   Maximum memory used (kb):      602044.
                   Average memory used (kb):           0.
  
                          Minor page faults:       965309
                          Major page faults:           55
                 Voluntary context switches:          910
