 vasp.5.4.4.18Apr17-6-g9f103f2a35 (build May 12 2020 04:58:55) complex          
  
 MD_VERSION_INFO: Compiled 2020-05-12T11:58:55-UTC in devlin.sd.materialsdesign.
 com:/home/medea2/data/build/wwolf/vasp-gpu5.4.4/13047/x86_64/src/src/build/std 
 from svn 13047
 
 This VASP executable licensed from Materials Design, Inc.
 
 executed on                        Lin64 date 2023.03.24  18:42:25
 running on   16 total cores
 distrk:  each k-point on   16 cores,    1 groups
 distr:  one band on NCORES_PER_BAND=   1 cores,   16 groups


--------------------------------------------------------------------------------------------------------


 INCAR:
 POTCAR:    PAW_PBE Ni 02Aug2007                  
 POTCAR:    PAW_PBE O 08Apr2002                   

 ----------------------------------------------------------------------------- 
|                                                                             |
|           W    W    AA    RRRRR   N    N  II  N    N   GGGG   !!!           |
|           W    W   A  A   R    R  NN   N  II  NN   N  G    G  !!!           |
|           W    W  A    A  R    R  N N  N  II  N N  N  G       !!!           |
|           W WW W  AAAAAA  RRRRR   N  N N  II  N  N N  G  GGG   !            |
|           WW  WW  A    A  R   R   N   NN  II  N   NN  G    G                |
|           W    W  A    A  R    R  N    N  II  N    N   GGGG   !!!           |
|                                                                             |
|      For optimal performance we recommend to set                            |
|        NCORE= 4 - approx SQRT( number of cores)                             |
|      NCORE specifies how many cores store one orbital (NPAR=cpu/NCORE).     |
|      This setting can  greatly improve the performance of VASP for DFT.     |
|      The default,   NCORE=1            might be grossly inefficient         |
|      on modern multi-core architectures or massively parallel machines.     |
|      Do your own testing !!!!                                               |
|      Unfortunately you need to use the default for GW and RPA calculations. |
|      (for HF NCORE is supported but not extensively tested yet)             |
|                                                                             |
 ----------------------------------------------------------------------------- 

 POTCAR:    PAW_PBE Ni 02Aug2007                  
  local pseudopotential read in
  partial core-charges read in
  partial kinetic energy density read in
  atomic valenz-charges read in
  non local Contribution for L=           2  read in
    real space projection operators read in
  non local Contribution for L=           2  read in
    real space projection operators read in
  non local Contribution for L=           0  read in
    real space projection operators read in
  non local Contribution for L=           0  read in
    real space projection operators read in
  non local Contribution for L=           1  read in
    real space projection operators read in
  non local Contribution for L=           1  read in
    real space projection operators read in
    PAW grid and wavefunctions read in
 
   number of l-projection  operators is LMAX  =           6
   number of lm-projection operators is LMMAX =          18
 
 POTCAR:    PAW_PBE O 08Apr2002                   
  local pseudopotential read in
  partial core-charges read in
  partial kinetic energy density read in
  kinetic energy density of atom read in
  atomic valenz-charges read in
  non local Contribution for L=           0  read in
    real space projection operators read in
  non local Contribution for L=           0  read in
    real space projection operators read in
  non local Contribution for L=           1  read in
    real space projection operators read in
  non local Contribution for L=           1  read in
    real space projection operators read in
    PAW grid and wavefunctions read in
 
   number of l-projection  operators is LMAX  =           4
   number of lm-projection operators is LMMAX =           8
 
 Optimization of the real space projectors (new method)

 maximal supplied QI-value         = 16.25
 optimisation between [QCUT,QGAM] = [ 11.38, 22.75] = [ 36.24,144.96] Ry 
 Optimized for a Real-space Cutoff    1.47 Angstroem

   l    n(q)    QCUT    max X(q) W(low)/X(q) W(high)/X(q)  e(spline) 
   2      9    11.376    60.317    0.17E-03    0.16E-04    0.16E-06
   2      9    11.376    55.921    0.17E-03    0.16E-04    0.17E-06
   0     10    11.376    51.690    0.45E-04    0.60E-04    0.21E-06
   0     10    11.376    30.015    0.37E-04    0.55E-04    0.19E-06
   1     10    11.376    18.849    0.83E-04    0.11E-03    0.92E-07
   1     10    11.376    14.624    0.69E-04    0.92E-04    0.82E-07
 Optimization of the real space projectors (new method)

 maximal supplied QI-value         = 24.76
 optimisation between [QCUT,QGAM] = [ 11.39, 22.77] = [ 36.31,145.25] Ry 
 Optimized for a Real-space Cutoff    1.10 Angstroem

   l    n(q)    QCUT    max X(q) W(low)/X(q) W(high)/X(q)  e(spline) 
   0      7    11.387    20.381    0.22E-03    0.48E-03    0.18E-06
   0      7    11.387    15.268    0.22E-03    0.52E-03    0.19E-06
   1      7    11.387     5.964    0.22E-03    0.73E-03    0.24E-06
   1      7    11.387     5.382    0.19E-03    0.60E-03    0.21E-06

 ----------------------------------------------------------------------------- 
|                                                                             |
|  ADVICE TO THIS USER RUNNING 'VASP/VAMP'   (HEAR YOUR MASTER'S VOICE ...):  |
|                                                                             |
|      You enforced a specific xc-type in the INCAR file,                     |
|      a different type was found on the POTCAR file                          |
|          I HOPE YOU KNOW, WHAT YOU ARE  DOING                               |
|                                                                             |
 ----------------------------------------------------------------------------- 

  PAW_PBE Ni 02Aug2007                  :
 energy of atom  1       EATOM=-1077.6739
 kinetic energy error for atom=    0.0030 (will be added to EATOM!!)
  PAW_PBE O 08Apr2002                   :
 energy of atom  2       EATOM= -432.3788
 kinetic energy error for atom=    0.0224 (will be added to EATOM!!)
 
 
 POSCAR: NiO2_Fd-3m_scale_1_050_disp_0_20_round_1
  positions in direct lattice
  No initial velocities read in
 exchange correlation table for  LEXCH =       14
   RHO(1)=    0.500       N(1)  =     2000
   RHO(2)=  100.500       N(2)  =     4000
 


--------------------------------------------------------------------------------------------------------


 ion  position               nearest neighbor table
   1  0.074  0.585  0.101-  22 1.60  28 2.05  43 2.09  47 2.23  24 2.26  41 2.33  14 2.62   2 2.83
                             4 2.87  11 2.89   8 2.91
   2  0.335  0.799  0.138-  24 1.55  18 1.77  41 1.79  29 2.09  46 2.16   3 2.26   4 2.31   1 2.83

   3  0.385  0.623  0.338-  18 1.46  41 1.47  44 1.90  47 2.09  27 2.12  21 2.24   2 2.26   9 2.52
                             4 2.72
   4  0.136  0.835  0.329-  24 1.61  47 1.81  18 1.94  45 2.15  30 2.18   2 2.31  20 2.37   3 2.72
                             1 2.87  10 3.01
   5  0.103  0.115  0.606-  33 1.89  39 1.90  32 1.92  20 1.99  35 2.03  30 2.15   8 2.81   6 2.87
                             7 3.02
   6  0.365  0.337  0.597-  33 1.63  32 1.78  38 1.81  26 1.95  27 2.04  21 2.25  16 2.59   7 2.70
                             5 2.87   8 2.93   9 2.94
   7  0.358  0.151  0.861-  26 1.68  33 1.98  39 2.00  36 2.22  19 2.43   8 2.70   6 2.70   5 3.02

   8  0.111  0.358  0.839-  26 1.50  32 1.61  39 2.05  37 2.10  28 2.18   7 2.70   5 2.81   1 2.91
                             6 2.93  11 3.00
   9  0.586  0.609  0.562-  44 1.39  27 1.70  25 1.76  38 1.99  40 2.18  31 2.39   3 2.52  12 2.68
                             6 2.94  10 2.97
  10  0.857  0.840  0.557-  30 1.59  45 2.04  35 2.05  25 2.23  40 2.35  34 2.43  15 2.77   9 2.97
                             4 3.01  12 3.03
  11  0.825  0.576  0.859-  37 1.85  31 1.85  43 1.90  25 2.13  28 2.35  34 2.42  12 2.66  14 2.86
                             1 2.89   8 3.00
  12  0.606  0.803  0.817-  40 1.34  31 1.60  34 1.88  29 2.00  36 2.33  46 2.49  11 2.66   9 2.68
                            10 3.03
  13  0.606  0.149  0.137-  17 1.60  48 1.83  23 2.10  16 2.33  46 2.39  19 2.43  15 2.62  14 2.75

  14  0.833  0.389  0.146-  43 1.81  22 2.01  42 2.11  48 2.17  17 2.23  37 2.37   1 2.62  13 2.75
                            11 2.86  15 2.97  16 3.00
  15  0.816  0.110  0.368-  35 1.55  23 1.68  42 1.83  45 2.21  17 2.21  20 2.34  16 2.44  13 2.62
                            10 2.77  14 2.97
  16  0.581  0.285  0.381-  23 1.19  21 1.48  42 1.82  38 1.83  48 2.11  13 2.33  15 2.44   6 2.59
                            14 3.00
  17  0.793  0.128  0.104-  13 1.60  15 2.21  14 2.23
  18  0.365  0.797  0.348-   3 1.46   2 1.77   4 1.94
  19  0.315  0.149  0.149-  13 2.43   7 2.43
  20  0.096  0.114  0.368-   5 1.99  15 2.34   4 2.37
  21  0.426  0.358  0.335-  16 1.48   3 2.24   6 2.25
  22  0.072  0.405  0.168-   1 1.60  14 2.01
  23  0.619  0.148  0.389-  16 1.19  15 1.68  13 2.10
  24  0.154  0.841  0.137-   2 1.55   4 1.61   1 2.26
  25  0.791  0.585  0.607-   9 1.76  11 2.13  10 2.23
  26  0.288  0.335  0.818-   8 1.50   7 1.68  32 1.73   6 1.95
  27  0.386  0.580  0.588-   9 1.70   6 2.04   3 2.12
  28  0.104  0.619  0.859-   1 2.05   8 2.18  11 2.35
  29  0.381  0.839  0.895-  12 2.00   2 2.09
  30  0.046  0.866  0.572-  10 1.59   5 2.15   4 2.18
  31  0.607  0.615  0.849-  12 1.60  11 1.85   9 2.39
  32  0.160  0.333  0.654-   8 1.61  26 1.73   6 1.78   5 1.92
  33  0.326  0.147  0.626-   6 1.63   5 1.89   7 1.98
  34  0.820  0.865  0.845-  12 1.88  11 2.42  10 2.43
  35  0.870  0.085  0.544-  15 1.55   5 2.03  10 2.05
  36  0.613  0.082  0.836-   7 2.22  12 2.33
  37  0.861  0.356  0.865-  11 1.85   8 2.10  14 2.37
  38  0.579  0.371  0.582-   6 1.81  16 1.83   9 1.99
  39  0.122  0.113  0.834-   5 1.90   7 2.00   8 2.05
  40  0.596  0.849  0.663-  12 1.34   9 2.18  10 2.35
  41  0.344  0.587  0.170-   3 1.47   2 1.79   1 2.33
  42  0.795  0.328  0.389-  16 1.82  15 1.83  14 2.11
  43  0.824  0.597  0.086-  14 1.81  11 1.90   1 2.09
  44  0.605  0.605  0.396-   9 1.39   3 1.90
  45  0.880  0.859  0.314-  10 2.04   4 2.15  15 2.21
  46  0.583  0.865  0.109-   2 2.16  13 2.39  12 2.49
  47  0.135  0.619  0.359-   4 1.81   3 2.09   1 2.23
  48  0.574  0.367  0.142-  13 1.83  16 2.11  14 2.17
 
  LATTYP: Found a simple cubic cell.
 ALAT       =     8.3389845000
  
  Lattice vectors:
  
 A1 = (   8.3389845000,   0.0000000000,   0.0000000000)
 A2 = (   0.0000000000,   8.3389845000,   0.0000000000)
 A3 = (   0.0000000000,   0.0000000000,   8.3389845000)


Analysis of symmetry for initial positions (statically):
=====================================================================
 Subroutine PRICEL returns:
 Original cell was already a primitive cell.
 

 Routine SETGRP: Setting up the symmetry group for a 
 simple cubic supercell.


 Subroutine GETGRP returns: Found  1 space group operations
 (whereof  1 operations were pure point group operations)
 out of a pool of 48 trial point group operations.


The static configuration has the point symmetry C_1 .


Analysis of symmetry for dynamics (positions and initial velocities):
=====================================================================
 Subroutine PRICEL returns:
 Original cell was already a primitive cell.
 

 Routine SETGRP: Setting up the symmetry group for a 
 simple cubic supercell.


 Subroutine GETGRP returns: Found  1 space group operations
 (whereof  1 operations were pure point group operations)
 out of a pool of 48 trial point group operations.


The dynamic configuration has the point symmetry C_1 .


Analysis of structural, dynamic, and magnetic symmetry:
=====================================================================
 Subroutine PRICEL returns:
 Original cell was already a primitive cell.
 

 Routine SETGRP: Setting up the symmetry group for a 
 simple cubic supercell.


 Subroutine GETGRP returns: Found  1 space group operations
 (whereof  1 operations were pure point group operations)
 out of a pool of 48 trial point group operations.


The magnetic configuration has the point symmetry C_1 .


 Subroutine INISYM returns: Found  1 space group operations
 (whereof  1 operations are pure point group operations),
 and found     1 'primitive' translations

 
 
 KPOINTS: Automatic mesh                          

Automatic generation of k-mesh.
Space group operators:
 irot       det(A)        alpha          n_x          n_y          n_z        tau_x        tau_y        tau_z
    1     1.000000     0.000001     1.000000     0.000000     0.000000     0.000000     0.000000     0.000000
 
 Subroutine IBZKPT returns following result:
 ===========================================
 
 Found     36 irreducible k-points:
 
 Following reciprocal coordinates:
            Coordinates               Weight
  0.000000  0.000000  0.000000      1.000000
  0.250000  0.000000  0.000000      2.000000
  0.500000  0.000000  0.000000      1.000000
  0.000000  0.250000  0.000000      2.000000
  0.250000  0.250000  0.000000      2.000000
  0.500000  0.250000  0.000000      2.000000
 -0.250000  0.250000  0.000000      2.000000
  0.000000  0.500000  0.000000      1.000000
  0.250000  0.500000  0.000000      2.000000
  0.500000  0.500000  0.000000      1.000000
  0.000000  0.000000  0.250000      2.000000
  0.250000  0.000000  0.250000      2.000000
  0.500000  0.000000  0.250000      2.000000
 -0.250000  0.000000  0.250000      2.000000
  0.000000  0.250000  0.250000      2.000000
  0.250000  0.250000  0.250000      2.000000
  0.500000  0.250000  0.250000      2.000000
 -0.250000  0.250000  0.250000      2.000000
  0.000000  0.500000  0.250000      2.000000
  0.250000  0.500000  0.250000      2.000000
  0.500000  0.500000  0.250000      2.000000
 -0.250000  0.500000  0.250000      2.000000
  0.000000 -0.250000  0.250000      2.000000
  0.250000 -0.250000  0.250000      2.000000
  0.500000 -0.250000  0.250000      2.000000
 -0.250000 -0.250000  0.250000      2.000000
  0.000000  0.000000  0.500000      1.000000
  0.250000  0.000000  0.500000      2.000000
  0.500000  0.000000  0.500000      1.000000
  0.000000  0.250000  0.500000      2.000000
  0.250000  0.250000  0.500000      2.000000
  0.500000  0.250000  0.500000      2.000000
 -0.250000  0.250000  0.500000      2.000000
  0.000000  0.500000  0.500000      1.000000
  0.250000  0.500000  0.500000      2.000000
  0.500000  0.500000  0.500000      1.000000
 
 Following cartesian coordinates:
            Coordinates               Weight
  0.000000  0.000000  0.000000      1.000000
  0.029980  0.000000  0.000000      2.000000
  0.059959  0.000000  0.000000      1.000000
  0.000000  0.029980  0.000000      2.000000
  0.029980  0.029980  0.000000      2.000000
  0.059959  0.029980  0.000000      2.000000
 -0.029980  0.029980  0.000000      2.000000
  0.000000  0.059959  0.000000      1.000000
  0.029980  0.059959  0.000000      2.000000
  0.059959  0.059959  0.000000      1.000000
  0.000000  0.000000  0.029980      2.000000
  0.029980  0.000000  0.029980      2.000000
  0.059959  0.000000  0.029980      2.000000
 -0.029980  0.000000  0.029980      2.000000
  0.000000  0.029980  0.029980      2.000000
  0.029980  0.029980  0.029980      2.000000
  0.059959  0.029980  0.029980      2.000000
 -0.029980  0.029980  0.029980      2.000000
  0.000000  0.059959  0.029980      2.000000
  0.029980  0.059959  0.029980      2.000000
  0.059959  0.059959  0.029980      2.000000
 -0.029980  0.059959  0.029980      2.000000
  0.000000 -0.029980  0.029980      2.000000
  0.029980 -0.029980  0.029980      2.000000
  0.059959 -0.029980  0.029980      2.000000
 -0.029980 -0.029980  0.029980      2.000000
  0.000000  0.000000  0.059959      1.000000
  0.029980  0.000000  0.059959      2.000000
  0.059959  0.000000  0.059959      1.000000
  0.000000  0.029980  0.059959      2.000000
  0.029980  0.029980  0.059959      2.000000
  0.059959  0.029980  0.059959      2.000000
 -0.029980  0.029980  0.059959      2.000000
  0.000000  0.059959  0.059959      1.000000
  0.029980  0.059959  0.059959      2.000000
  0.059959  0.059959  0.059959      1.000000
 


--------------------------------------------------------------------------------------------------------




 Dimension of arrays:
   k-points           NKPTS =     36   k-points in BZ     NKDIM =     36   number of bands    NBANDS=    240
   number of dos      NEDOS =    301   number of ions     NIONS =     48
   non local maximal  LDIM  =      6   non local SUM 2l+1 LMDIM =     18
   total plane-waves  NPLWV = 262144
   max r-space proj   IRMAX =   6119   max aug-charges    IRDMAX=  14851
   dimension x,y,z NGX =    64 NGY =   64 NGZ =   64
   dimension x,y,z NGXF=   128 NGYF=  128 NGZF=  128
   support grid    NGXF=   128 NGYF=  128 NGZF=  128
   ions per type =              16  32
   NGX,Y,Z   is equivalent  to a cutoff of  12.76, 12.76, 12.76 a.u.
   NGXF,Y,Z  is equivalent  to a cutoff of  25.52, 25.52, 25.52 a.u.

 SYSTEM =  unknown system                          
 POSCAR =  NiO2_Fd-3m_scale_1_050_disp_0_20_round_1

 Startparameter for this run:
   NWRITE =      1    write-flag & timer
   PREC   = accura    normal or accurate (medium, high low for compatibility)
   ISTART =      0    job   : 0-new  1-cont  2-samecut
   ICHARG =      2    charge: 1-file 2-atom 10-const
   ISPIN  =      2    spin polarized calculation?
   LNONCOLLINEAR =      F non collinear calculations
   LSORBIT =      F    spin-orbit coupling
   INIWAV =      1    electr: 0-lowe 1-rand  2-diag
   LASPH  =      F    aspherical Exc in radial PAW
   METAGGA=      F    non-selfconsistent MetaGGA calc.

 Electronic Relaxation 1
   ENCUT  =  500.0 eV  36.75 Ry    6.06 a.u.  15.20 15.20 15.20*2*pi/ulx,y,z
   ENINI  =  500.0     initial cutoff
   ENAUG  =  605.4 eV  augmentation charge cutoff
   NELM   =     80;   NELMIN=  2; NELMDL= -5     # of ELM steps 
   EDIFF  = 0.1E-04   stopping-criterion for ELM
   LREAL  =      T    real-space projection
   NLSPLINE    = F    spline interpolate recip. space projectors
   LCOMPAT=      F    compatible to vasp.4.4
   GGA_COMPAT  = T    GGA compatible to vasp.4.4-vasp.4.6
   LMAXPAW     = -100 max onsite density
   LMAXMIX     =    2 max onsite mixed and CHGCAR
   VOSKOWN=      1    Vosko Wilk Nusair interpolation
   ROPT   =   -0.00025  -0.00025
 Ionic relaxation
   EDIFFG = 0.1E-03   stopping-criterion for IOM
   NSW    =      0    number of steps for IOM
   NBLOCK =      1;   KBLOCK =      1    inner block; outer block 
   IBRION =     -1    ionic relax: 0-MD 1-quasi-New 2-CG
   NFREE  =      0    steps in history (QN), initial steepest desc. (CG)
   ISIF   =      2    stress and relaxation
   IWAVPR =     10    prediction:  0-non 1-charg 2-wave 3-comb
   ISYM   =      2    0-nonsym 1-usesym 2-fastsym
   LCORR  =      T    Harris-Foulkes like correction to forces

   POTIM  = 0.5000    time-step for ionic-motion
   TEIN   =    0.0    initial temperature
   TEBEG  =    0.0;   TEEND  =   0.0 temperature during run
   SMASS  =  -3.00    Nose mass-parameter (am)
   estimated Nose-frequenzy (Omega)   =  0.10E-29 period in steps =****** mass=  -0.159E-26a.u.
   SCALEE = 1.0000    scale energy and forces
   NPACO  =    256;   APACO  = 16.0  distance and # of slots for P.C.
   PSTRESS=    0.0 pullay stress

  Mass of Ions in am
   POMASS =  58.69 16.00
  Ionic Valenz
   ZVAL   =  10.00  6.00
  Atomic Wigner-Seitz radii
   RWIGS  =   1.15  0.73
  virtual crystal weights 
   VCA    =   1.00  1.00
   NELECT =     352.0000    total number of electrons
   NUPDOWN=      -1.0000    fix difference up-down

 DOS related values:
   EMIN   =  10.00;   EMAX   =-10.00  energy-range for DOS
   EFERMI =   0.00
   ISMEAR =     0;   SIGMA  =   0.05  broadening in eV -4-tet -1-fermi 0-gaus

 Electronic relaxation 2 (details)
   IALGO  =     38    algorithm
   LDIAG  =      T    sub-space diagonalisation (order eigenvalues)
   LSUBROT=      F    optimize rotation matrix (better conditioning)
   TURBO    =      0    0=normal 1=particle mesh
   IRESTART =      0    0=no restart 2=restart with 2 vectors
   NREBOOT  =      0    no. of reboots
   NMIN     =      0    reboot dimension
   EREF     =   0.00    reference energy to select bands
   IMIX   =      4    mixing-type and parameters
     AMIX     =   0.40;   BMIX     =  1.00
     AMIX_MAG =   1.60;   BMIX_MAG =  1.00
     AMIN     =   0.10
     WC   =   100.;   INIMIX=   1;  MIXPRE=   1;  MAXMIX= -45

 Intra band minimization:
   WEIMIN = 0.0000     energy-eigenvalue tresh-hold
   EBREAK =  0.10E-07  absolut break condition
   DEPER  =   0.30     relativ break condition  

   TIME   =   0.40     timestep for ELM

  volume/ion in A,a.u.               =      12.08        81.53
  Fermi-wavevector in a.u.,A,eV,Ry     =   1.386147  2.619438 26.142273  1.921403
  Thomas-Fermi vector in A             =   2.510490
 
 Write flags
   LWAVE        =      F    write WAVECAR
   LDOWNSAMPLE  =      F    k-point downsampling of WAVECAR
   LCHARG       =      T    write CHGCAR
   LVTOT        =      F    write LOCPOT, total local potential
   LVHAR        =      F    write LOCPOT, Hartree potential only
   LELF         =      F    write electronic localiz. function (ELF)
   LORBIT       =      0    0 simple, 1 ext, 2 COOP (PROOUT), +10 PAW based schemes


 Dipole corrections
   LMONO  =      F    monopole corrections only (constant potential shift)
   LDIPOL =      F    correct potential (dipole corrections)
   IDIPOL =      0    1-x, 2-y, 3-z, 4-all directions 
   EPSILON=  1.0000000 bulk dielectric constant

 Exchange correlation treatment:
   GGA     =    PS    GGA type
   LEXCH   =    14    internal setting for exchange type
   VOSKOWN=      1    Vosko Wilk Nusair interpolation
   LHFCALC =     F    Hartree Fock is set to
   LHFONE  =     F    Hartree Fock one center treatment
   AEXX    =    0.0000 exact exchange contribution

 Linear response parameters
   LEPSILON=     F    determine dielectric tensor
   LRPA    =     F    only Hartree local field effects (RPA)
   LNABLA  =     F    use nabla operator in PAW spheres
   LVEL    =     F    velocity operator in full k-point grid
   LINTERFAST=   F  fast interpolation
   KINTER  =     0    interpolate to denser k-point grid
   CSHIFT  =0.1000    complex shift for real part using Kramers Kronig
   OMEGAMAX=  -1.0    maximum frequency
   DEG_THRESHOLD= 0.2000000E-02 threshold for treating states as degnerate
   RTIME   =   -0.100 relaxation time in fs
  (WPLASMAI=    0.000 imaginary part of plasma frequency in eV, 0.658/RTIME)
   DFIELD  = 0.0000000 0.0000000 0.0000000 field for delta impulse in time
 
 Orbital magnetization related:
   ORBITALMAG=     F  switch on orbital magnetization
   LCHIMAG   =     F  perturbation theory with respect to B field
   DQ        =  0.001000  dq finite difference perturbation B field
   LLRAUG    =     F  two centre corrections for induced B field



--------------------------------------------------------------------------------------------------------


 Static calculation
 charge density and potential will be updated during run
 spin polarized calculation
 Variant of blocked Davidson
 Davidson routine will perform the subspace rotation
 perform sub-space diagonalisation
    after iterative eigenvector-optimisation
 modified Broyden-mixing scheme, WC =      100.0
 initial mixing is a Kerker type mixing with AMIX =  0.4000 and BMIX =      1.0000
 Hartree-type preconditioning will be used
 using additional bands           64
 real space projection scheme for non local part
 use partial core corrections
 calculate Harris-corrections to forces 
   (improved forces if not selfconsistent)
 use gradient corrections 
 use of overlap-Matrix (Vanderbilt PP)
 Gauss-broadening in eV      SIGMA  =   0.05


--------------------------------------------------------------------------------------------------------


  energy-cutoff  :      500.00
  volume of cell :      579.88
      direct lattice vectors                 reciprocal lattice vectors
     8.338984500  0.000000000  0.000000000     0.119918678  0.000000000  0.000000000
     0.000000000  8.338984500  0.000000000     0.000000000  0.119918678  0.000000000
     0.000000000  0.000000000  8.338984500     0.000000000  0.000000000  0.119918678

  length of vectors
     8.338984500  8.338984500  8.338984500     0.119918678  0.119918678  0.119918678


 
 k-points in units of 2pi/SCALE and weight: Automatic mesh                          
   0.00000000  0.00000000  0.00000000       0.016
   0.02997967  0.00000000  0.00000000       0.031
   0.05995934  0.00000000  0.00000000       0.016
   0.00000000  0.02997967  0.00000000       0.031
   0.02997967  0.02997967  0.00000000       0.031
   0.05995934  0.02997967  0.00000000       0.031
  -0.02997967  0.02997967  0.00000000       0.031
   0.00000000  0.05995934  0.00000000       0.016
   0.02997967  0.05995934  0.00000000       0.031
   0.05995934  0.05995934  0.00000000       0.016
   0.00000000  0.00000000  0.02997967       0.031
   0.02997967  0.00000000  0.02997967       0.031
   0.05995934  0.00000000  0.02997967       0.031
  -0.02997967  0.00000000  0.02997967       0.031
   0.00000000  0.02997967  0.02997967       0.031
   0.02997967  0.02997967  0.02997967       0.031
   0.05995934  0.02997967  0.02997967       0.031
  -0.02997967  0.02997967  0.02997967       0.031
   0.00000000  0.05995934  0.02997967       0.031
   0.02997967  0.05995934  0.02997967       0.031
   0.05995934  0.05995934  0.02997967       0.031
  -0.02997967  0.05995934  0.02997967       0.031
   0.00000000 -0.02997967  0.02997967       0.031
   0.02997967 -0.02997967  0.02997967       0.031
   0.05995934 -0.02997967  0.02997967       0.031
  -0.02997967 -0.02997967  0.02997967       0.031
   0.00000000  0.00000000  0.05995934       0.016
   0.02997967  0.00000000  0.05995934       0.031
   0.05995934  0.00000000  0.05995934       0.016
   0.00000000  0.02997967  0.05995934       0.031
   0.02997967  0.02997967  0.05995934       0.031
   0.05995934  0.02997967  0.05995934       0.031
  -0.02997967  0.02997967  0.05995934       0.031
   0.00000000  0.05995934  0.05995934       0.016
   0.02997967  0.05995934  0.05995934       0.031
   0.05995934  0.05995934  0.05995934       0.016
 
 k-points in reciprocal lattice and weights: Automatic mesh                          
   0.00000000  0.00000000  0.00000000       0.016
   0.25000000  0.00000000  0.00000000       0.031
   0.50000000  0.00000000  0.00000000       0.016
   0.00000000  0.25000000  0.00000000       0.031
   0.25000000  0.25000000  0.00000000       0.031
   0.50000000  0.25000000  0.00000000       0.031
  -0.25000000  0.25000000  0.00000000       0.031
   0.00000000  0.50000000  0.00000000       0.016
   0.25000000  0.50000000  0.00000000       0.031
   0.50000000  0.50000000  0.00000000       0.016
   0.00000000  0.00000000  0.25000000       0.031
   0.25000000  0.00000000  0.25000000       0.031
   0.50000000  0.00000000  0.25000000       0.031
  -0.25000000  0.00000000  0.25000000       0.031
   0.00000000  0.25000000  0.25000000       0.031
   0.25000000  0.25000000  0.25000000       0.031
   0.50000000  0.25000000  0.25000000       0.031
  -0.25000000  0.25000000  0.25000000       0.031
   0.00000000  0.50000000  0.25000000       0.031
   0.25000000  0.50000000  0.25000000       0.031
   0.50000000  0.50000000  0.25000000       0.031
  -0.25000000  0.50000000  0.25000000       0.031
   0.00000000 -0.25000000  0.25000000       0.031
   0.25000000 -0.25000000  0.25000000       0.031
   0.50000000 -0.25000000  0.25000000       0.031
  -0.25000000 -0.25000000  0.25000000       0.031
   0.00000000  0.00000000  0.50000000       0.016
   0.25000000  0.00000000  0.50000000       0.031
   0.50000000  0.00000000  0.50000000       0.016
   0.00000000  0.25000000  0.50000000       0.031
   0.25000000  0.25000000  0.50000000       0.031
   0.50000000  0.25000000  0.50000000       0.031
  -0.25000000  0.25000000  0.50000000       0.031
   0.00000000  0.50000000  0.50000000       0.016
   0.25000000  0.50000000  0.50000000       0.031
   0.50000000  0.50000000  0.50000000       0.016
 
 position of ions in fractional coordinates (direct lattice) 
   0.07372467  0.58531861  0.10067545
   0.33497885  0.79923811  0.13836067
   0.38469685  0.62328536  0.33790768
   0.13637533  0.83460416  0.32880559
   0.10283099  0.11506088  0.60644894
   0.36514669  0.33676489  0.59688536
   0.35758852  0.15059902  0.86126898
   0.11088527  0.35849154  0.83875075
   0.58622931  0.60850862  0.56235870
   0.85690079  0.84025741  0.55692862
   0.82524973  0.57564830  0.85922839
   0.60553100  0.80340012  0.81697317
   0.60566893  0.14942457  0.13722552
   0.83306595  0.38876609  0.14612005
   0.81588169  0.11039474  0.36800429
   0.58115349  0.28479253  0.38070228
   0.79300843  0.12809872  0.10419987
   0.36450985  0.79671441  0.34799969
   0.31468113  0.14900185  0.14944657
   0.09647511  0.11386332  0.36788732
   0.42601372  0.35837222  0.33544296
   0.07243386  0.40489368  0.16760414
   0.61918379  0.14786759  0.38927641
   0.15426343  0.84140481  0.13691282
   0.79103620  0.58530348  0.60684600
   0.28789642  0.33483420  0.81757761
   0.38598313  0.58002990  0.58841954
   0.10412258  0.61862980  0.85858379
   0.38125450  0.83926370  0.89529407
   0.04572377  0.86625275  0.57220390
   0.60652721  0.61452822  0.84866132
   0.15978597  0.33338317  0.65404620
   0.32616472  0.14738133  0.62577078
   0.82029557  0.86499092  0.84535030
   0.87003539  0.08506277  0.54405110
   0.61320554  0.08154622  0.83627630
   0.86073391  0.35624912  0.86476511
   0.57924812  0.37096205  0.58220827
   0.12168939  0.11333329  0.83400322
   0.59636213  0.84918282  0.66259072
   0.34448918  0.58711893  0.17007737
   0.79536016  0.32815701  0.38874403
   0.82419016  0.59735946  0.08606534
   0.60457207  0.60523460  0.39623396
   0.87994378  0.85874331  0.31445300
   0.58339496  0.86535153  0.10863101
   0.13503588  0.61909821  0.35857653
   0.57390719  0.36698665  0.14189583
 
 position of ions in cartesian coordinates  (Angst):
   0.61478888  4.88096282  0.83953102
   2.79338344  6.66483421  1.15378748
   3.20798107  5.19756696  2.81780691
   1.13723176  6.95975115  2.74190472
   0.85750603  0.95949089  5.05716831
   3.04495259  2.80827720  4.97741777
   2.98192513  1.25584289  7.18210867
   0.92467055  2.98945540  6.99432950
   4.88855713  5.07434395  4.68950048
   7.14568241  7.00689352  4.64421913
   6.88174471  4.80032225  7.16509223
   5.04951362  6.69954115  6.81272660
   5.05066382  1.24604917  1.14432148
   6.94692404  3.24191440  1.21849283
   6.80362477  0.92058003  3.06878207
   4.84622995  2.37488049  3.17467041
   6.61288501  1.06821324  0.86892110
   3.03964199  6.64378912  2.90196402
   2.62412107  1.24252412  1.24623263
   0.80450445  0.94950446  3.06780666
   3.55252181  2.98846039  2.79725364
   0.60402484  3.37640212  1.39764833
   5.16336403  1.23306554  3.24616995
   1.28640035  7.01646167  1.14171388
   6.59643861  4.88083665  5.06047939
   2.40076378  2.79217720  6.81776702
   3.21870734  4.83686035  4.90682142
   0.86827658  5.15874431  7.15971692
   3.17927537  6.99860699  7.46584337
   0.38128981  7.22366826  4.77159945
   5.05782100  5.12454130  7.07697359
   1.33245273  2.78007709  5.45408112
   2.71988254  1.22901063  5.21829283
   6.84043204  7.21314587  7.04936305
   7.25521163  0.70933712  4.53683369
   5.11351149  0.68001266  6.97369510
   7.17764673  2.97075589  7.21126285
   4.83034109  3.09344679  4.85502574
   1.01476594  0.94508455  6.95473992
   4.97305456  7.08132237  5.52533374
   2.87268993  4.89597566  1.41827255
   6.63249605  2.73649622  3.24173044
   6.87290897  4.98137128  0.71769754
   5.04151712  5.04704195  3.30418885
   7.33783754  7.16104715  2.62221869
   4.86492153  7.21615300  0.90587231
   1.12606211  5.16265038  2.99016413
   4.78580316  3.06029599  1.18326713
 


--------------------------------------------------------------------------------------------------------


 k-point  1 :   0.0000 0.0000 0.0000  plane waves:   14771
 k-point  2 :   0.2500 0.0000 0.0000  plane waves:   14742
 k-point  3 :   0.5000 0.0000 0.0000  plane waves:   14662
 k-point  4 :   0.0000 0.2500 0.0000  plane waves:   14742
 k-point  5 :   0.2500 0.2500 0.0000  plane waves:   14750
 k-point  6 :   0.5000 0.2500 0.0000  plane waves:   14666
 k-point  7 :  -0.2500 0.2500 0.0000  plane waves:   14750
 k-point  8 :   0.0000 0.5000 0.0000  plane waves:   14662
 k-point  9 :   0.2500 0.5000 0.0000  plane waves:   14666
 k-point 10 :   0.5000 0.5000 0.0000  plane waves:   14676
 k-point 11 :   0.0000 0.0000 0.2500  plane waves:   14742
 k-point 12 :   0.2500 0.0000 0.2500  plane waves:   14750
 k-point 13 :   0.5000 0.0000 0.2500  plane waves:   14666
 k-point 14 :  -0.2500 0.0000 0.2500  plane waves:   14750
 k-point 15 :   0.0000 0.2500 0.2500  plane waves:   14750
 k-point 16 :   0.2500 0.2500 0.2500  plane waves:   14676
 k-point 17 :   0.5000 0.2500 0.2500  plane waves:   14700
 k-point 18 :  -0.2500 0.2500 0.2500  plane waves:   14676
 k-point 19 :   0.0000 0.5000 0.2500  plane waves:   14666
 k-point 20 :   0.2500 0.5000 0.2500  plane waves:   14700
 k-point 21 :   0.5000 0.5000 0.2500  plane waves:   14772
 k-point 22 :  -0.2500 0.5000 0.2500  plane waves:   14700
 k-point 23 :   0.0000-0.2500 0.2500  plane waves:   14750
 k-point 24 :   0.2500-0.2500 0.2500  plane waves:   14676
 k-point 25 :   0.5000-0.2500 0.2500  plane waves:   14700
 k-point 26 :  -0.2500-0.2500 0.2500  plane waves:   14676
 k-point 27 :   0.0000 0.0000 0.5000  plane waves:   14662
 k-point 28 :   0.2500 0.0000 0.5000  plane waves:   14666
 k-point 29 :   0.5000 0.0000 0.5000  plane waves:   14676
 k-point 30 :   0.0000 0.2500 0.5000  plane waves:   14666
 k-point 31 :   0.2500 0.2500 0.5000  plane waves:   14700
 k-point 32 :   0.5000 0.2500 0.5000  plane waves:   14772
 k-point 33 :  -0.2500 0.2500 0.5000  plane waves:   14700
 k-point 34 :   0.0000 0.5000 0.5000  plane waves:   14676
 k-point 35 :   0.2500 0.5000 0.5000  plane waves:   14772
 k-point 36 :   0.5000 0.5000 0.5000  plane waves:   14832

 maximum and minimum number of plane-waves per node :     14832    14662

 maximum number of plane-waves:     14832
 maximum index in each direction: 
   IXMAX=   15   IYMAX=   15   IZMAX=   15
   IXMIN=  -15   IYMIN=  -15   IZMIN=  -15

 The following grids will avoid any aliasing or wrap around errors in the Hartre
 e energy
  - symmetry arguments have not been applied
  - exchange correlation energies might require even more grid points
  - we recommend to set PREC=Normal or Accurate and rely on VASP defaults
 NGX is ok and might be reduce to    64
 NGY is ok and might be reduce to    64
 NGZ is ok and might be reduce to    64

 serial   3D FFT for wavefunctions
 parallel 3D FFT for charge:
    minimum data exchange during FFTs selected (reduces bandwidth)


 total amount of memory used by VASP MPI-rank0   359818. kBytes
=======================================================================

   base      :      30000. kBytes
   nonlr-proj:      25372. kBytes
   fftplans  :       5538. kBytes
   grid      :      31719. kBytes
   one-center:       1492. kBytes
   wavefun   :     265697. kBytes
 
     INWAV:  cpu time    0.0000: real time    0.0000
 Broyden mixing: mesh for mixing (old mesh)
   NGX = 31   NGY = 31   NGZ = 31
  (NGX  =128   NGY  =128   NGZ  =128)
  gives a total of  29791 points

 initial charge density was supplied:
 charge density of overlapping atoms calculated
 number of electron     352.0000000 magnetization      40.0000000
 keeping initial charge density in first step


--------------------------------------------------------------------------------------------------------


 Maximum index for non-local projection operator         5901
 Maximum index for augmentation-charges         1016 (set IRDMAX)


--------------------------------------------------------------------------------------------------------


 First call to EWALD:  gamma=   0.213
 Maximum number of real-space cells 3x 3x 3
 Maximum number of reciprocal cells 3x 3x 3

    FEWALD:  cpu time    0.0024: real time    0.0024


--------------------------------------- Iteration      1(   1)  ---------------------------------------


    POTLOK:  cpu time    0.1808: real time    0.1867
    SETDIJ:  cpu time    0.0186: real time    0.0187
     EDDAV:  cpu time  130.4729: real time  130.7818
    --------------------------------------------
      LOOP:  cpu time  130.6760: real time  130.9908

 eigenvalue-minimisations  : 34560
 total energy-change (2. order) : 0.4441575E+04  (-0.1534890E+05)
 number of electron     352.0000000 magnetization      40.0000000
 augmentation part      352.0000000 magnetization      40.0000000

 Free energy of the ion-electron system (eV)
  ---------------------------------------------------
  alpha Z        PSCENC =       945.17957177
  Ewald energy   TEWEN  =    -17878.73851040
  -Hartree energ DENC   =    -13348.00111254
  -exchange      EXHF   =         0.00000000
  -V(xc)+E(xc)   XCENC  =      1415.79180760
  PAW double counting   =     26463.90193480   -27579.55909067
  entropy T*S    EENTRO =        -0.01065145
  eigenvalues    EBANDS =      3409.33864612
  atomic energy  EATOM  =     31013.67235384
  Solvation  Ediel_sol  =         0.00000000
  ---------------------------------------------------
  free energy    TOTEN  =      4441.57494908 eV

  energy without entropy =     4441.58560053  energy(sigma->0) =     4441.58027481


--------------------------------------------------------------------------------------------------------




--------------------------------------- Iteration      1(   2)  ---------------------------------------


     EDDAV:  cpu time  133.1197: real time  133.4351
    --------------------------------------------
      LOOP:  cpu time  133.1195: real time  133.4349

 eigenvalue-minimisations  : 35952
 total energy-change (2. order) :-0.3858175E+04  (-0.3461052E+04)
 number of electron     352.0000000 magnetization      40.0000000
 augmentation part      352.0000000 magnetization      40.0000000

 Free energy of the ion-electron system (eV)
  ---------------------------------------------------
  alpha Z        PSCENC =       945.17957177
  Ewald energy   TEWEN  =    -17878.73851040
  -Hartree energ DENC   =    -13348.00111254
  -exchange      EXHF   =         0.00000000
  -V(xc)+E(xc)   XCENC  =      1415.79180760
  PAW double counting   =     26463.90193480   -27579.55909067
  entropy T*S    EENTRO =        -0.02951114
  eigenvalues    EBANDS =      -448.81699644
  atomic energy  EATOM  =     31013.67235384
  Solvation  Ediel_sol  =         0.00000000
  ---------------------------------------------------
  free energy    TOTEN  =       583.40044683 eV

  energy without entropy =      583.42995797  energy(sigma->0) =      583.41520240


--------------------------------------------------------------------------------------------------------




--------------------------------------- Iteration      1(   3)  ---------------------------------------


     EDDAV:  cpu time  135.2231: real time  135.5434
    --------------------------------------------
      LOOP:  cpu time  135.2232: real time  135.5435

 eigenvalue-minimisations  : 36912
 total energy-change (2. order) :-0.8711181E+03  (-0.7837058E+03)
 number of electron     352.0000000 magnetization      40.0000000
 augmentation part      352.0000000 magnetization      40.0000000

 Free energy of the ion-electron system (eV)
  ---------------------------------------------------
  alpha Z        PSCENC =       945.17957177
  Ewald energy   TEWEN  =    -17878.73851040
  -Hartree energ DENC   =    -13348.00111254
  -exchange      EXHF   =         0.00000000
  -V(xc)+E(xc)   XCENC  =      1415.79180760
  PAW double counting   =     26463.90193480   -27579.55909067
  entropy T*S    EENTRO =        -0.05868923
  eigenvalues    EBANDS =     -1319.90590518
  atomic energy  EATOM  =     31013.67235384
  Solvation  Ediel_sol  =         0.00000000
  ---------------------------------------------------
  free energy    TOTEN  =      -287.71764001 eV

  energy without entropy =     -287.65895078  energy(sigma->0) =     -287.68829539


--------------------------------------------------------------------------------------------------------




--------------------------------------- Iteration      1(   4)  ---------------------------------------


     EDDAV:  cpu time  139.2646: real time  139.5942
    --------------------------------------------
      LOOP:  cpu time  139.2647: real time  139.5943

 eigenvalue-minimisations  : 38752
 total energy-change (2. order) :-0.7941283E+02  (-0.7747039E+02)
 number of electron     352.0000000 magnetization      40.0000000
 augmentation part      352.0000000 magnetization      40.0000000

 Free energy of the ion-electron system (eV)
  ---------------------------------------------------
  alpha Z        PSCENC =       945.17957177
  Ewald energy   TEWEN  =    -17878.73851040
  -Hartree energ DENC   =    -13348.00111254
  -exchange      EXHF   =         0.00000000
  -V(xc)+E(xc)   XCENC  =      1415.79180760
  PAW double counting   =     26463.90193480   -27579.55909067
  entropy T*S    EENTRO =        -0.06123616
  eigenvalues    EBANDS =     -1399.31618348
  atomic energy  EATOM  =     31013.67235384
  Solvation  Ediel_sol  =         0.00000000
  ---------------------------------------------------
  free energy    TOTEN  =      -367.13046523 eV

  energy without entropy =     -367.06922907  energy(sigma->0) =     -367.09984715


--------------------------------------------------------------------------------------------------------




--------------------------------------- Iteration      1(   5)  ---------------------------------------


     EDDAV:  cpu time  138.4590: real time  138.7869
    CHARGE:  cpu time    5.6623: real time    5.6757
    MIXING:  cpu time    0.0042: real time    0.0042
    --------------------------------------------
      LOOP:  cpu time  144.1219: real time  144.4632

 eigenvalue-minimisations  : 38224
 total energy-change (2. order) :-0.2006294E+01  (-0.1996978E+01)
 number of electron     351.9999987 magnetization      44.4925312
 augmentation part       99.4044766 magnetization      31.6823729

 Broyden mixing:
  rms(total) = 0.16270E+02    rms(broyden)= 0.16269E+02
  rms(prec ) = 0.19443E+02
  weight for this iteration     100.00

 Free energy of the ion-electron system (eV)
  ---------------------------------------------------
  alpha Z        PSCENC =       945.17957177
  Ewald energy   TEWEN  =    -17878.73851040
  -Hartree energ DENC   =    -13348.00111254
  -exchange      EXHF   =         0.00000000
  -V(xc)+E(xc)   XCENC  =      1415.79180760
  PAW double counting   =     26463.90193480   -27579.55909067
  entropy T*S    EENTRO =        -0.06077805
  eigenvalues    EBANDS =     -1401.32293511
  atomic energy  EATOM  =     31013.67235384
  Solvation  Ediel_sol  =         0.00000000
  ---------------------------------------------------
  free energy    TOTEN  =      -369.13675876 eV

  energy without entropy =     -369.07598070  energy(sigma->0) =     -369.10636973


--------------------------------------------------------------------------------------------------------




--------------------------------------- Iteration      1(   6)  ---------------------------------------


    POTLOK:  cpu time    0.1706: real time    0.1710
    SETDIJ:  cpu time    0.0189: real time    0.0189
     EDDAV:  cpu time  180.6750: real time  181.1027
    CHARGE:  cpu time    5.6187: real time    5.6320
    MIXING:  cpu time    0.0045: real time    0.0045
    --------------------------------------------
      LOOP:  cpu time  186.4877: real time  186.9291

 eigenvalue-minimisations  : 53072
 total energy-change (2. order) :-0.1786893E+03  (-0.1180073E+03)
 number of electron     351.9999980 magnetization      37.3133289
 augmentation part      137.5173557 magnetization      35.9224213

 Broyden mixing:
  rms(total) = 0.26996E+02    rms(broyden)= 0.26995E+02
  rms(prec ) = 0.30762E+02
  weight for this iteration     100.00

 eigenvalues of (default mixing * dielectric matrix)
  average eigenvalue GAMMA=   0.2329
  0.2329

 Free energy of the ion-electron system (eV)
  ---------------------------------------------------
  alpha Z        PSCENC =       945.17957177
  Ewald energy   TEWEN  =    -17878.73851040
  -Hartree energ DENC   =    -12704.24582430
  -exchange      EXHF   =         0.00000000
  -V(xc)+E(xc)   XCENC  =      1430.75306008
  PAW double counting   =     29867.32790691   -30789.66891899
  entropy T*S    EENTRO =        -0.03625977
  eigenvalues    EBANDS =     -2432.06939794
  atomic energy  EATOM  =     31013.67235384
  Solvation  Ediel_sol  =         0.00000000
  ---------------------------------------------------
  free energy    TOTEN  =      -547.82601881 eV

  energy without entropy =     -547.78975903  energy(sigma->0) =     -547.80788892


--------------------------------------------------------------------------------------------------------




--------------------------------------- Iteration      1(   7)  ---------------------------------------


    POTLOK:  cpu time    0.1695: real time    0.1699
    SETDIJ:  cpu time    0.0192: real time    0.0193
     EDDAV:  cpu time  157.6058: real time  157.9788
    CHARGE:  cpu time    5.5509: real time    5.5641
    MIXING:  cpu time    0.0045: real time    0.0045
    --------------------------------------------
      LOOP:  cpu time  163.3499: real time  163.7365

 eigenvalue-minimisations  : 45008
 total energy-change (2. order) : 0.2380887E+03  (-0.3621869E+02)
 number of electron     352.0000000 magnetization      30.4114521
 augmentation part      128.0944570 magnetization      25.6045462

 Broyden mixing:
  rms(total) = 0.11660E+02    rms(broyden)= 0.11659E+02
  rms(prec ) = 0.14925E+02
  weight for this iteration     100.00

 eigenvalues of (default mixing * dielectric matrix)
  average eigenvalue GAMMA=   0.5183
  0.5183  0.5183

 Free energy of the ion-electron system (eV)
  ---------------------------------------------------
  alpha Z        PSCENC =       945.17957177
  Ewald energy   TEWEN  =    -17878.73851040
  -Hartree energ DENC   =    -12967.95114585
  -exchange      EXHF   =         0.00000000
  -V(xc)+E(xc)   XCENC  =      1416.05901308
  PAW double counting   =     31460.34267069   -32522.12109553
  entropy T*S    EENTRO =        -0.03997553
  eigenvalues    EBANDS =     -1776.14015635
  atomic energy  EATOM  =     31013.67235384
  Solvation  Ediel_sol  =         0.00000000
  ---------------------------------------------------
  free energy    TOTEN  =      -309.73727429 eV

  energy without entropy =     -309.69729876  energy(sigma->0) =     -309.71728652


--------------------------------------------------------------------------------------------------------




--------------------------------------- Iteration      1(   8)  ---------------------------------------


    POTLOK:  cpu time    0.1649: real time    0.1653
    SETDIJ:  cpu time    0.0189: real time    0.0189
     EDDAV:  cpu time  185.2546: real time  185.6931
    CHARGE:  cpu time    5.5146: real time    5.5277
    MIXING:  cpu time    0.0051: real time    0.0051
    --------------------------------------------
      LOOP:  cpu time  190.9582: real time  191.4102

 eigenvalue-minimisations  : 54576
 total energy-change (2. order) :-0.2921147E+02  (-0.3704785E+02)
 number of electron     351.9999984 magnetization      24.9699155
 augmentation part      123.0548539 magnetization      20.8329120

 Broyden mixing:
  rms(total) = 0.14392E+02    rms(broyden)= 0.14390E+02
  rms(prec ) = 0.20623E+02
  weight for this iteration     100.00

 eigenvalues of (default mixing * dielectric matrix)
  average eigenvalue GAMMA=   0.4921
  0.6366  0.6366  0.2031

 Free energy of the ion-electron system (eV)
  ---------------------------------------------------
  alpha Z        PSCENC =       945.17957177
  Ewald energy   TEWEN  =    -17878.73851040
  -Hartree energ DENC   =    -13006.99295584
  -exchange      EXHF   =         0.00000000
  -V(xc)+E(xc)   XCENC  =      1407.93135701
  PAW double counting   =     32566.86792402   -33723.59445629
  entropy T*S    EENTRO =        -0.03228560
  eigenvalues    EBANDS =     -1663.24173788
  atomic energy  EATOM  =     31013.67235384
  Solvation  Ediel_sol  =         0.00000000
  ---------------------------------------------------
  free energy    TOTEN  =      -338.94873937 eV

  energy without entropy =     -338.91645377  energy(sigma->0) =     -338.93259657


--------------------------------------------------------------------------------------------------------




--------------------------------------- Iteration      1(   9)  ---------------------------------------


    POTLOK:  cpu time    0.1669: real time    0.1673
    SETDIJ:  cpu time    0.0191: real time    0.0192
     EDDAV:  cpu time  163.2661: real time  163.6525
    CHARGE:  cpu time    5.5077: real time    5.5208
    MIXING:  cpu time    0.0046: real time    0.0046
    --------------------------------------------
      LOOP:  cpu time  168.9646: real time  169.3644

 eigenvalue-minimisations  : 46912
 total energy-change (2. order) : 0.1570166E+02  (-0.4844196E+02)
 number of electron     351.9999990 magnetization      21.7690023
 augmentation part      104.8324837 magnetization      16.7144002

 Broyden mixing:
  rms(total) = 0.13921E+02    rms(broyden)= 0.13920E+02
  rms(prec ) = 0.20007E+02
  weight for this iteration     100.00

 eigenvalues of (default mixing * dielectric matrix)
  average eigenvalue GAMMA=   0.4285
  0.8005  0.5312  0.1912  0.1912

 Free energy of the ion-electron system (eV)
  ---------------------------------------------------
  alpha Z        PSCENC =       945.17957177
  Ewald energy   TEWEN  =    -17878.73851040
  -Hartree energ DENC   =    -13104.56520444
  -exchange      EXHF   =         0.00000000
  -V(xc)+E(xc)   XCENC  =      1405.97495759
  PAW double counting   =     33767.89296830   -34970.25905623
  entropy T*S    EENTRO =        -0.06253343
  eigenvalues    EBANDS =     -1502.34162510
  atomic energy  EATOM  =     31013.67235384
  Solvation  Ediel_sol  =         0.00000000
  ---------------------------------------------------
  free energy    TOTEN  =      -323.24707810 eV

  energy without entropy =     -323.18454467  energy(sigma->0) =     -323.21581138


--------------------------------------------------------------------------------------------------------




--------------------------------------- Iteration      1(  10)  ---------------------------------------


    POTLOK:  cpu time    0.1692: real time    0.1696
    SETDIJ:  cpu time    0.0190: real time    0.0190
     EDDAV:  cpu time  167.4589: real time  167.8551
    CHARGE:  cpu time    5.5694: real time    5.5826
    MIXING:  cpu time    0.0053: real time    0.0053
    --------------------------------------------
      LOOP:  cpu time  173.2216: real time  173.6316

 eigenvalue-minimisations  : 48400
 total energy-change (2. order) : 0.1323024E+02  (-0.2616682E+02)
 number of electron     351.9999980 magnetization      17.2372829
 augmentation part      105.7468798 magnetization      14.4001379

 Broyden mixing:
  rms(total) = 0.11900E+02    rms(broyden)= 0.11899E+02
  rms(prec ) = 0.18658E+02
  weight for this iteration     100.00

 eigenvalues of (default mixing * dielectric matrix)
  average eigenvalue GAMMA=   0.4145
  1.0377  0.4115  0.2566  0.2566  0.1103

 Free energy of the ion-electron system (eV)
  ---------------------------------------------------
  alpha Z        PSCENC =       945.17957177
  Ewald energy   TEWEN  =    -17878.73851040
  -Hartree energ DENC   =    -13089.68277978
  -exchange      EXHF   =         0.00000000
  -V(xc)+E(xc)   XCENC  =      1404.15215882
  PAW double counting   =     34519.55061763   -35733.70604490
  entropy T*S    EENTRO =        -0.04715414
  eigenvalues    EBANDS =     -1490.39704710
  atomic energy  EATOM  =     31013.67235384
  Solvation  Ediel_sol  =         0.00000000
  ---------------------------------------------------
  free energy    TOTEN  =      -310.01683426 eV

  energy without entropy =     -309.96968012  energy(sigma->0) =     -309.99325719


--------------------------------------------------------------------------------------------------------




--------------------------------------- Iteration      1(  11)  ---------------------------------------


    POTLOK:  cpu time    0.1684: real time    0.1688
    SETDIJ:  cpu time    0.0194: real time    0.0194
     EDDAV:  cpu time  158.9818: real time  159.3581
    CHARGE:  cpu time    5.6539: real time    5.6673
    MIXING:  cpu time    0.0047: real time    0.0048
    --------------------------------------------
      LOOP:  cpu time  164.8282: real time  165.2184

 eigenvalue-minimisations  : 45728
 total energy-change (2. order) : 0.3891903E+02  (-0.1766138E+02)
 number of electron     351.9999978 magnetization      13.8318622
 augmentation part      110.9661202 magnetization      10.9773695

 Broyden mixing:
  rms(total) = 0.79637E+01    rms(broyden)= 0.79620E+01
  rms(prec ) = 0.12138E+02
  weight for this iteration     100.00

 eigenvalues of (default mixing * dielectric matrix)
  average eigenvalue GAMMA=   0.4392
  1.1629  0.5504  0.3283  0.3283  0.1818  0.0836

 Free energy of the ion-electron system (eV)
  ---------------------------------------------------
  alpha Z        PSCENC =       945.17957177
  Ewald energy   TEWEN  =    -17878.73851040
  -Hartree energ DENC   =    -13039.83240884
  -exchange      EXHF   =         0.00000000
  -V(xc)+E(xc)   XCENC  =      1402.60208882
  PAW double counting   =     35377.00864291   -36593.65942660
  entropy T*S    EENTRO =        -0.04686788
  eigenvalues    EBANDS =     -1497.28325081
  atomic energy  EATOM  =     31013.67235384
  Solvation  Ediel_sol  =         0.00000000
  ---------------------------------------------------
  free energy    TOTEN  =      -271.09780719 eV

  energy without entropy =     -271.05093931  energy(sigma->0) =     -271.07437325


--------------------------------------------------------------------------------------------------------




--------------------------------------- Iteration      1(  12)  ---------------------------------------


    POTLOK:  cpu time    0.1700: real time    0.1704
    SETDIJ:  cpu time    0.0188: real time    0.0188
     EDDAV:  cpu time  162.3177: real time  162.7017
    CHARGE:  cpu time    5.6872: real time    5.7007
    MIXING:  cpu time    0.0059: real time    0.0059
    --------------------------------------------
      LOOP:  cpu time  168.1995: real time  168.5975

 eigenvalue-minimisations  : 46944
 total energy-change (2. order) : 0.6133257E+01  (-0.1227702E+02)
 number of electron     351.9999992 magnetization      10.4991663
 augmentation part      111.2214101 magnetization       7.8777566

 Broyden mixing:
  rms(total) = 0.97467E+01    rms(broyden)= 0.97459E+01
  rms(prec ) = 0.13907E+02
  weight for this iteration     100.00

 eigenvalues of (default mixing * dielectric matrix)
  average eigenvalue GAMMA=   0.4389
  1.3473  0.5990  0.3826  0.3826  0.1718  0.0945  0.0945

 Free energy of the ion-electron system (eV)
  ---------------------------------------------------
  alpha Z        PSCENC =       945.17957177
  Ewald energy   TEWEN  =    -17878.73851040
  -Hartree energ DENC   =    -12994.70606831
  -exchange      EXHF   =         0.00000000
  -V(xc)+E(xc)   XCENC  =      1401.81334467
  PAW double counting   =     35862.52266486   -37071.61516015
  entropy T*S    EENTRO =        -0.05205265
  eigenvalues    EBANDS =     -1543.04069336
  atomic energy  EATOM  =     31013.67235384
  Solvation  Ediel_sol  =         0.00000000
  ---------------------------------------------------
  free energy    TOTEN  =      -264.96454973 eV

  energy without entropy =     -264.91249708  energy(sigma->0) =     -264.93852340


--------------------------------------------------------------------------------------------------------




--------------------------------------- Iteration      1(  13)  ---------------------------------------


    POTLOK:  cpu time    0.1703: real time    0.1707
    SETDIJ:  cpu time    0.0191: real time    0.0192
     EDDAV:  cpu time  162.9085: real time  163.2940
    CHARGE:  cpu time    5.6580: real time    5.6714
    MIXING:  cpu time    0.0055: real time    0.0055
    --------------------------------------------
      LOOP:  cpu time  168.7615: real time  169.1608

 eigenvalue-minimisations  : 47184
 total energy-change (2. order) : 0.1050166E+02  (-0.6871145E+01)
 number of electron     351.9999988 magnetization       8.2528113
 augmentation part      114.7520540 magnetization       5.4843377

 Broyden mixing:
  rms(total) = 0.86628E+01    rms(broyden)= 0.86621E+01
  rms(prec ) = 0.12946E+02
  weight for this iteration     100.00

 eigenvalues of (default mixing * dielectric matrix)
  average eigenvalue GAMMA=   0.4210
  1.4670  0.6283  0.4048  0.4048  0.1551  0.1093  0.1093  0.0895

 Free energy of the ion-electron system (eV)
  ---------------------------------------------------
  alpha Z        PSCENC =       945.17957177
  Ewald energy   TEWEN  =    -17878.73851040
  -Hartree energ DENC   =    -12959.30177940
  -exchange      EXHF   =         0.00000000
  -V(xc)+E(xc)   XCENC  =      1401.60282010
  PAW double counting   =     36324.93388884   -37529.19880142
  entropy T*S    EENTRO =        -0.05726109
  eigenvalues    EBANDS =     -1572.55517463
  atomic energy  EATOM  =     31013.67235384
  Solvation  Ediel_sol  =         0.00000000
  ---------------------------------------------------
  free energy    TOTEN  =      -254.46289240 eV

  energy without entropy =     -254.40563131  energy(sigma->0) =     -254.43426185


--------------------------------------------------------------------------------------------------------




--------------------------------------- Iteration      1(  14)  ---------------------------------------


    POTLOK:  cpu time    0.1704: real time    0.1709
    SETDIJ:  cpu time    0.0190: real time    0.0191
     EDDAV:  cpu time  169.4941: real time  169.8952
    CHARGE:  cpu time    5.5975: real time    5.6108
    MIXING:  cpu time    0.0047: real time    0.0047
    --------------------------------------------
      LOOP:  cpu time  175.2858: real time  175.7006

 eigenvalue-minimisations  : 49552
 total energy-change (2. order) : 0.1350465E+02  (-0.4436932E+01)
 number of electron     351.9999987 magnetization       6.9013283
 augmentation part      117.6012933 magnetization       3.9985788

 Broyden mixing:
  rms(total) = 0.47465E+01    rms(broyden)= 0.47459E+01
  rms(prec ) = 0.70685E+01
  weight for this iteration     100.00

 eigenvalues of (default mixing * dielectric matrix)
  average eigenvalue GAMMA=   0.4311
  1.5244  0.7545  0.4188  0.4188  0.2271  0.2271  0.1357  0.0925  0.0805

 Free energy of the ion-electron system (eV)
  ---------------------------------------------------
  alpha Z        PSCENC =       945.17957177
  Ewald energy   TEWEN  =    -17878.73851040
  -Hartree energ DENC   =    -12955.57306614
  -exchange      EXHF   =         0.00000000
  -V(xc)+E(xc)   XCENC  =      1401.59304799
  PAW double counting   =     36642.12775288   -37847.16850056
  entropy T*S    EENTRO =        -0.06330671
  eigenvalues    EBANDS =     -1561.98758261
  atomic energy  EATOM  =     31013.67235384
  Solvation  Ediel_sol  =         0.00000000
  ---------------------------------------------------
  free energy    TOTEN  =      -240.95823993 eV

  energy without entropy =     -240.89493322  energy(sigma->0) =     -240.92658658


--------------------------------------------------------------------------------------------------------




--------------------------------------- Iteration      1(  15)  ---------------------------------------


    POTLOK:  cpu time    0.1539: real time    0.1542
    SETDIJ:  cpu time    0.0180: real time    0.0180
     EDDAV:  cpu time  160.2168: real time  160.5959
    CHARGE:  cpu time    5.6984: real time    5.7119
    MIXING:  cpu time    0.0058: real time    0.0058
    --------------------------------------------
      LOOP:  cpu time  166.0927: real time  166.4857

 eigenvalue-minimisations  : 46192
 total energy-change (2. order) : 0.4215915E+01  (-0.1799411E+01)
 number of electron     351.9999990 magnetization       7.1646381
 augmentation part      116.9141512 magnetization       4.5882667

 Broyden mixing:
  rms(total) = 0.33612E+01    rms(broyden)= 0.33597E+01
  rms(prec ) = 0.50782E+01
  weight for this iteration     100.00

 eigenvalues of (default mixing * dielectric matrix)
  average eigenvalue GAMMA=   0.4161
  1.3265  0.8700  0.4366  0.4366  0.4059  0.1977  0.1977  0.1048  0.1048  0.0802

 Free energy of the ion-electron system (eV)
  ---------------------------------------------------
  alpha Z        PSCENC =       945.17957177
  Ewald energy   TEWEN  =    -17878.73851040
  -Hartree energ DENC   =    -12966.49360430
  -exchange      EXHF   =         0.00000000
  -V(xc)+E(xc)   XCENC  =      1401.22461904
  PAW double counting   =     36794.16583524   -37999.39262802
  entropy T*S    EENTRO =        -0.05826680
  eigenvalues    EBANDS =     -1546.30169506
  atomic energy  EATOM  =     31013.67235384
  Solvation  Ediel_sol  =         0.00000000
  ---------------------------------------------------
  free energy    TOTEN  =      -236.74232469 eV

  energy without entropy =     -236.68405790  energy(sigma->0) =     -236.71319130


--------------------------------------------------------------------------------------------------------




--------------------------------------- Iteration      1(  16)  ---------------------------------------


    POTLOK:  cpu time    0.1700: real time    0.1704
    SETDIJ:  cpu time    0.0192: real time    0.0192
     EDDAV:  cpu time  160.6627: real time  161.0430
    CHARGE:  cpu time    5.4315: real time    5.4444
    MIXING:  cpu time    0.0055: real time    0.0055
    --------------------------------------------
      LOOP:  cpu time  166.2889: real time  166.6825

 eigenvalue-minimisations  : 50080
 total energy-change (2. order) : 0.2301566E+01  (-0.1095589E+01)
 number of electron     351.9999991 magnetization       6.6310022
 augmentation part      115.2386001 magnetization       4.4001415

 Broyden mixing:
  rms(total) = 0.26415E+01    rms(broyden)= 0.26406E+01
  rms(prec ) = 0.37561E+01
  weight for this iteration     100.00

 eigenvalues of (default mixing * dielectric matrix)
  average eigenvalue GAMMA=   0.4074
  1.4231  0.8376  0.5052  0.4245  0.4245  0.2165  0.2165  0.1291  0.1291  0.0938
  0.0811

 Free energy of the ion-electron system (eV)
  ---------------------------------------------------
  alpha Z        PSCENC =       945.17957177
  Ewald energy   TEWEN  =    -17878.73851040
  -Hartree energ DENC   =    -12978.46434881
  -exchange      EXHF   =         0.00000000
  -V(xc)+E(xc)   XCENC  =      1401.02169557
  PAW double counting   =     36694.66652633   -37898.55715597
  entropy T*S    EENTRO =        -0.05089081
  eigenvalues    EBANDS =     -1533.17000050
  atomic energy  EATOM  =     31013.67235384
  Solvation  Ediel_sol  =         0.00000000
  ---------------------------------------------------
  free energy    TOTEN  =      -234.44075898 eV

  energy without entropy =     -234.38986817  energy(sigma->0) =     -234.41531358


--------------------------------------------------------------------------------------------------------




--------------------------------------- Iteration      1(  17)  ---------------------------------------


    POTLOK:  cpu time    0.1696: real time    0.1700
    SETDIJ:  cpu time    0.0190: real time    0.0190
     EDDAV:  cpu time  163.8926: real time  164.2805
    CHARGE:  cpu time    5.4107: real time    5.4235
    MIXING:  cpu time    0.0064: real time    0.0064
    --------------------------------------------
      LOOP:  cpu time  169.4983: real time  169.8994

 eigenvalue-minimisations  : 51344
 total energy-change (2. order) : 0.1312959E+01  (-0.6944014E+00)
 number of electron     351.9999991 magnetization       6.1142290
 augmentation part      115.5131547 magnetization       3.4004180

 Broyden mixing:
  rms(total) = 0.17596E+01    rms(broyden)= 0.17591E+01
  rms(prec ) = 0.22464E+01
  weight for this iteration     100.00

 eigenvalues of (default mixing * dielectric matrix)
  average eigenvalue GAMMA=   0.3985
  1.4665  0.6958  0.6958  0.4336  0.4336  0.2339  0.2339  0.1716  0.1355  0.1008
  0.1008  0.0806

 Free energy of the ion-electron system (eV)
  ---------------------------------------------------
  alpha Z        PSCENC =       945.17957177
  Ewald energy   TEWEN  =    -17878.73851040
  -Hartree energ DENC   =    -12981.38236860
  -exchange      EXHF   =         0.00000000
  -V(xc)+E(xc)   XCENC  =      1400.94634641
  PAW double counting   =     36765.17300036   -37969.26404019
  entropy T*S    EENTRO =        -0.05231103
  eigenvalues    EBANDS =     -1528.66184169
  atomic energy  EATOM  =     31013.67235384
  Solvation  Ediel_sol  =         0.00000000
  ---------------------------------------------------
  free energy    TOTEN  =      -233.12779952 eV

  energy without entropy =     -233.07548849  energy(sigma->0) =     -233.10164400


--------------------------------------------------------------------------------------------------------




--------------------------------------- Iteration      1(  18)  ---------------------------------------


    POTLOK:  cpu time    0.1695: real time    0.1699
    SETDIJ:  cpu time    0.0189: real time    0.0189
     EDDAV:  cpu time  152.2841: real time  152.6445
    CHARGE:  cpu time    5.4549: real time    5.4678
    MIXING:  cpu time    0.0068: real time    0.0068
    --------------------------------------------
      LOOP:  cpu time  157.9342: real time  158.3080

 eigenvalue-minimisations  : 47024
 total energy-change (2. order) : 0.1064553E+00  (-0.3071147E+00)
 number of electron     351.9999991 magnetization       5.5465119
 augmentation part      115.7000648 magnetization       3.0875625

 Broyden mixing:
  rms(total) = 0.15180E+01    rms(broyden)= 0.15177E+01
  rms(prec ) = 0.19885E+01
  weight for this iteration     100.00

 eigenvalues of (default mixing * dielectric matrix)
  average eigenvalue GAMMA=   0.3991
  1.4643  0.7474  0.6056  0.4738  0.4738  0.3260  0.3260  0.1920  0.1863  0.0808
  0.1097  0.1097  0.0926

 Free energy of the ion-electron system (eV)
  ---------------------------------------------------
  alpha Z        PSCENC =       945.17957177
  Ewald energy   TEWEN  =    -17878.73851040
  -Hartree energ DENC   =    -12980.80487493
  -exchange      EXHF   =         0.00000000
  -V(xc)+E(xc)   XCENC  =      1400.93172730
  PAW double counting   =     36858.44796445   -38061.42112568
  entropy T*S    EENTRO =        -0.04800963
  eigenvalues    EBANDS =     -1530.24044090
  atomic energy  EATOM  =     31013.67235384
  Solvation  Ediel_sol  =         0.00000000
  ---------------------------------------------------
  free energy    TOTEN  =      -233.02134418 eV

  energy without entropy =     -232.97333455  energy(sigma->0) =     -232.99733937


--------------------------------------------------------------------------------------------------------




--------------------------------------- Iteration      1(  19)  ---------------------------------------


    POTLOK:  cpu time    0.1678: real time    0.1682
    SETDIJ:  cpu time    0.0191: real time    0.0192
     EDDAV:  cpu time  155.4584: real time  155.8263
    CHARGE:  cpu time    5.4695: real time    5.4825
    MIXING:  cpu time    0.0065: real time    0.0065
    --------------------------------------------
      LOOP:  cpu time  161.1213: real time  161.5027

 eigenvalue-minimisations  : 48080
 total energy-change (2. order) :-0.2325413E+00  (-0.2238490E+00)
 number of electron     351.9999990 magnetization       5.3817084
 augmentation part      116.1754127 magnetization       2.2781038

 Broyden mixing:
  rms(total) = 0.14883E+01    rms(broyden)= 0.14877E+01
  rms(prec ) = 0.20858E+01
  weight for this iteration     100.00

 eigenvalues of (default mixing * dielectric matrix)
  average eigenvalue GAMMA=   0.4138
  1.4460  0.7628  0.7628  0.5918  0.4464  0.4464  0.4174  0.1942  0.1942  0.1409
  0.0807  0.1082  0.1082  0.0926

 Free energy of the ion-electron system (eV)
  ---------------------------------------------------
  alpha Z        PSCENC =       945.17957177
  Ewald energy   TEWEN  =    -17878.73851040
  -Hartree energ DENC   =    -12981.13707520
  -exchange      EXHF   =         0.00000000
  -V(xc)+E(xc)   XCENC  =      1400.99797379
  PAW double counting   =     36943.54964191   -38144.79017347
  entropy T*S    EENTRO =        -0.05916202
  eigenvalues    EBANDS =     -1531.92850570
  atomic energy  EATOM  =     31013.67235384
  Solvation  Ediel_sol  =         0.00000000
  ---------------------------------------------------
  free energy    TOTEN  =      -233.25388547 eV

  energy without entropy =     -233.19472345  energy(sigma->0) =     -233.22430446


--------------------------------------------------------------------------------------------------------




--------------------------------------- Iteration      1(  20)  ---------------------------------------


    POTLOK:  cpu time    0.1689: real time    0.1693
    SETDIJ:  cpu time    0.0190: real time    0.0191
     EDDAV:  cpu time  154.2835: real time  154.6486
    CHARGE:  cpu time    5.4142: real time    5.4270
    MIXING:  cpu time    0.0066: real time    0.0066
    --------------------------------------------
      LOOP:  cpu time  159.8922: real time  160.2706

 eigenvalue-minimisations  : 47664
 total energy-change (2. order) :-0.2196514E+00  (-0.3615482E+00)
 number of electron     351.9999989 magnetization       5.2745059
 augmentation part      116.3535594 magnetization       2.1840712

 Broyden mixing:
  rms(total) = 0.13691E+01    rms(broyden)= 0.13687E+01
  rms(prec ) = 0.18986E+01
  weight for this iteration     100.00

 eigenvalues of (default mixing * dielectric matrix)
  average eigenvalue GAMMA=   0.4232
  1.5243  0.9117  0.9117  0.5866  0.4345  0.4345  0.4375  0.2073  0.2073  0.1734
  0.1325  0.0807  0.1073  0.1073  0.0912

 Free energy of the ion-electron system (eV)
  ---------------------------------------------------
  alpha Z        PSCENC =       945.17957177
  Ewald energy   TEWEN  =    -17878.73851040
  -Hartree energ DENC   =    -12981.53119602
  -exchange      EXHF   =         0.00000000
  -V(xc)+E(xc)   XCENC  =      1401.15879450
  PAW double counting   =     37022.78013461   -38221.84933954
  entropy T*S    EENTRO =        -0.04578597
  eigenvalues    EBANDS =     -1534.09955969
  atomic energy  EATOM  =     31013.67235384
  Solvation  Ediel_sol  =         0.00000000
  ---------------------------------------------------
  free energy    TOTEN  =      -233.47353689 eV

  energy without entropy =     -233.42775093  energy(sigma->0) =     -233.45064391


--------------------------------------------------------------------------------------------------------




--------------------------------------- Iteration      1(  21)  ---------------------------------------


    POTLOK:  cpu time    0.1680: real time    0.1683
    SETDIJ:  cpu time    0.0189: real time    0.0190
     EDDAV:  cpu time  154.4090: real time  154.7743
    CHARGE:  cpu time    5.3760: real time    5.3888
    MIXING:  cpu time    0.0072: real time    0.0072
    --------------------------------------------
      LOOP:  cpu time  159.9791: real time  160.3577

 eigenvalue-minimisations  : 47920
 total energy-change (2. order) : 0.2021886E+00  (-0.1831424E+00)
 number of electron     351.9999989 magnetization       5.3454975
 augmentation part      116.3989805 magnetization       1.7705337

 Broyden mixing:
  rms(total) = 0.10974E+01    rms(broyden)= 0.10970E+01
  rms(prec ) = 0.15814E+01
  weight for this iteration     100.00

 eigenvalues of (default mixing * dielectric matrix)
  average eigenvalue GAMMA=   0.4352
  1.5661  1.0113  1.0113  0.6771  0.5111  0.4223  0.4223  0.2343  0.2343  0.2024
  0.1624  0.1249  0.0807  0.1058  0.1058  0.0914

 Free energy of the ion-electron system (eV)
  ---------------------------------------------------
  alpha Z        PSCENC =       945.17957177
  Ewald energy   TEWEN  =    -17878.73851040
  -Hartree energ DENC   =    -12985.85772050
  -exchange      EXHF   =         0.00000000
  -V(xc)+E(xc)   XCENC  =      1401.33306397
  PAW double counting   =     37107.89675778   -38306.40453533
  entropy T*S    EENTRO =        -0.05205051
  eigenvalues    EBANDS =     -1530.30027897
  atomic energy  EATOM  =     31013.67235384
  Solvation  Ediel_sol  =         0.00000000
  ---------------------------------------------------
  free energy    TOTEN  =      -233.27134834 eV

  energy without entropy =     -233.21929783  energy(sigma->0) =     -233.24532309


--------------------------------------------------------------------------------------------------------




--------------------------------------- Iteration      1(  22)  ---------------------------------------


    POTLOK:  cpu time    0.1700: real time    0.1704
    SETDIJ:  cpu time    0.0189: real time    0.0190
     EDDAV:  cpu time  162.4872: real time  162.8716
    CHARGE:  cpu time    5.3620: real time    5.3748
    MIXING:  cpu time    0.0071: real time    0.0071
    --------------------------------------------
      LOOP:  cpu time  168.0452: real time  168.4428

 eigenvalue-minimisations  : 50864
 total energy-change (2. order) : 0.9468687E-01  (-0.1587790E+00)
 number of electron     351.9999989 magnetization       5.6938306
 augmentation part      116.1388440 magnetization       1.9288711

 Broyden mixing:
  rms(total) = 0.81054E+00    rms(broyden)= 0.81014E+00
  rms(prec ) = 0.11608E+01
  weight for this iteration     100.00

 eigenvalues of (default mixing * dielectric matrix)
  average eigenvalue GAMMA=   0.4576
  1.3009  1.3009  1.0318  1.0318  0.5666  0.4441  0.4441  0.3160  0.3160  0.1967
  0.1967  0.1373  0.0807  0.1156  0.1044  0.1044  0.0912

 Free energy of the ion-electron system (eV)
  ---------------------------------------------------
  alpha Z        PSCENC =       945.17957177
  Ewald energy   TEWEN  =    -17878.73851040
  -Hartree energ DENC   =    -12991.33626433
  -exchange      EXHF   =         0.00000000
  -V(xc)+E(xc)   XCENC  =      1401.57433102
  PAW double counting   =     37170.85661371   -38368.73715249
  entropy T*S    EENTRO =        -0.05148645
  eigenvalues    EBANDS =     -1525.59611814
  atomic energy  EATOM  =     31013.67235384
  Solvation  Ediel_sol  =         0.00000000
  ---------------------------------------------------
  free energy    TOTEN  =      -233.17666147 eV

  energy without entropy =     -233.12517503  energy(sigma->0) =     -233.15091825


--------------------------------------------------------------------------------------------------------




--------------------------------------- Iteration      1(  23)  ---------------------------------------


    POTLOK:  cpu time    0.1688: real time    0.1692
    SETDIJ:  cpu time    0.0190: real time    0.0190
     EDDAV:  cpu time  162.7115: real time  163.0966
    CHARGE:  cpu time    5.2942: real time    5.3067
    MIXING:  cpu time    0.0075: real time    0.0075
    --------------------------------------------
      LOOP:  cpu time  168.2011: real time  168.5992

 eigenvalue-minimisations  : 50880
 total energy-change (2. order) :-0.3761763E-01  (-0.1185957E+00)
 number of electron     351.9999989 magnetization       5.8928407
 augmentation part      116.1576699 magnetization       1.8283891

 Broyden mixing:
  rms(total) = 0.82735E+00    rms(broyden)= 0.82711E+00
  rms(prec ) = 0.11713E+01
  weight for this iteration     100.00

 eigenvalues of (default mixing * dielectric matrix)
  average eigenvalue GAMMA=   0.4701
  1.4688  1.4688  0.9589  0.8895  0.8895  0.4493  0.4493  0.3507  0.3507  0.1960
  0.1960  0.1655  0.1361  0.0807  0.1136  0.1036  0.1036  0.0911

 Free energy of the ion-electron system (eV)
  ---------------------------------------------------
  alpha Z        PSCENC =       945.17957177
  Ewald energy   TEWEN  =    -17878.73851040
  -Hartree energ DENC   =    -12994.34552740
  -exchange      EXHF   =         0.00000000
  -V(xc)+E(xc)   XCENC  =      1401.78590984
  PAW double counting   =     37191.41436703   -38388.07863849
  entropy T*S    EENTRO =        -0.04605549
  eigenvalues    EBANDS =     -1524.05774981
  atomic energy  EATOM  =     31013.67235384
  Solvation  Ediel_sol  =         0.00000000
  ---------------------------------------------------
  free energy    TOTEN  =      -233.21427910 eV

  energy without entropy =     -233.16822361  energy(sigma->0) =     -233.19125136


--------------------------------------------------------------------------------------------------------




--------------------------------------- Iteration      1(  24)  ---------------------------------------


    POTLOK:  cpu time    0.1669: real time    0.1673
    SETDIJ:  cpu time    0.0189: real time    0.0189
     EDDAV:  cpu time  160.1896: real time  160.5686
    CHARGE:  cpu time    5.2707: real time    5.2831
    MIXING:  cpu time    0.0079: real time    0.0079
    --------------------------------------------
      LOOP:  cpu time  165.6540: real time  166.0460

 eigenvalue-minimisations  : 49984
 total energy-change (2. order) : 0.5334883E-01  (-0.7589630E-01)
 number of electron     351.9999989 magnetization       6.0226741
 augmentation part      116.1054044 magnetization       2.0179262

 Broyden mixing:
  rms(total) = 0.62391E+00    rms(broyden)= 0.62367E+00
  rms(prec ) = 0.92056E+00
  weight for this iteration     100.00

 eigenvalues of (default mixing * dielectric matrix)
  average eigenvalue GAMMA=   0.4826
  1.6111  1.3986  1.3986  0.8332  0.8332  0.4543  0.4543  0.4001  0.4001  0.2150
  0.2150  0.1835  0.1521  0.1270  0.0807  0.1142  0.0911  0.1035  0.1035

 Free energy of the ion-electron system (eV)
  ---------------------------------------------------
  alpha Z        PSCENC =       945.17957177
  Ewald energy   TEWEN  =    -17878.73851040
  -Hartree energ DENC   =    -12997.40490396
  -exchange      EXHF   =         0.00000000
  -V(xc)+E(xc)   XCENC  =      1401.96068750
  PAW double counting   =     37238.75525559   -38434.79516332
  entropy T*S    EENTRO =        -0.05351923
  eigenvalues    EBANDS =     -1521.73670208
  atomic energy  EATOM  =     31013.67235384
  Solvation  Ediel_sol  =         0.00000000
  ---------------------------------------------------
  free energy    TOTEN  =      -233.16093028 eV

  energy without entropy =     -233.10741105  energy(sigma->0) =     -233.13417066


--------------------------------------------------------------------------------------------------------




--------------------------------------- Iteration      1(  25)  ---------------------------------------


    POTLOK:  cpu time    0.1593: real time    0.1596
    SETDIJ:  cpu time    0.0174: real time    0.0175
     EDDAV:  cpu time  148.7949: real time  149.1470
    CHARGE:  cpu time    5.3004: real time    5.3130
    MIXING:  cpu time    0.0087: real time    0.0087
    --------------------------------------------
      LOOP:  cpu time  154.2806: real time  154.6457

[...]
  0.001  -0.000  -0.003  -0.001   0.001  -0.001   0.000   0.001   0.000   0.000  -0.000   0.000   0.000   0.000   0.001  -0.000


------------------------ aborting loop because EDIFF is reached ----------------------------------------


    CHARGE:  cpu time    5.2770: real time    5.2896
    FORLOC:  cpu time    0.0274: real time    0.0280
    FORNL :  cpu time   27.9500: real time   28.0162
    STRESS:  cpu time   83.8006: real time   83.9996
    FORCOR:  cpu time    0.1755: real time    0.1759
    FORHAR:  cpu time    0.0415: real time    0.0416
    MIXING:  cpu time    0.0154: real time    0.0154
    OFIELD:  cpu time    0.0001: real time    0.0001

  FORCE on cell =-STRESS in cart. coord.  units (eV):
  Direction    XX          YY          ZZ          XY          YZ          ZX
  --------------------------------------------------------------------------------------
  Alpha Z   945.17957   945.17957   945.17957
  Ewald   -5393.47555 -6308.77421 -6176.59919  -904.76043   -26.70610   -88.77787
  Hartree  4708.75268  4115.30059  4184.13979  -506.79973   114.03980  -113.24844
  E(xc)   -1794.69783 -1795.55375 -1795.30488     0.43960     0.30351    -0.18971
  Local   -6050.01430 -4508.86973 -4740.94633  1348.37205  -127.79292   223.47965
  n-local  -734.74968  -711.55089  -731.90922   -18.03435   -10.49525     4.83699
  augment  2989.15738  2975.96303  2993.68638    26.66340    18.70360    -9.91082
  Kinetic  5383.49166  5391.16805  5406.83741    12.37403    16.76519   -10.08337
  Fock        0.00000     0.00000     0.00000     0.00000     0.00000     0.00000
  -------------------------------------------------------------------------------------
  Total       53.6439409    102.8626697     85.0835272    -41.7454286    -15.1821818      6.1064389
  in kB      148.2148632    284.2031417    235.0804798   -115.3400158    -41.9474215     16.8717098
  external PRESSURE =     222.4994949 kB  Pullay stress =       0.0000000 kB


 VOLUME and BASIS-vectors are now :
 -----------------------------------------------------------------------------
  energy-cutoff  :      500.00
  volume of cell :      579.88
      direct lattice vectors                 reciprocal lattice vectors
     8.338984500  0.000000000  0.000000000     0.119918678  0.000000000  0.000000000
     0.000000000  8.338984500  0.000000000     0.000000000  0.119918678  0.000000000
     0.000000000  0.000000000  8.338984500     0.000000000  0.000000000  0.119918678

  length of vectors
     8.338984500  8.338984500  8.338984500     0.119918678  0.119918678  0.119918678


 FORCES acting on ions
    electron-ion (+dipol)            ewald-force                    non-local-force                 convergence-correction
 -----------------------------------------------------------------------------------------------
   0.256E+02 -.158E+03 0.136E+03   -.257E+02 0.161E+03 -.139E+03   0.725E+00 0.114E+01 0.182E+01   0.221E-01 0.139E-01 -.181E-01
   -.217E+03 -.281E+03 0.419E+03   0.230E+03 0.285E+03 -.431E+03   -.243E+01 -.149E+01 0.498E+01   -.857E-04 -.702E-02 -.121E-02
   -.330E+02 0.148E+03 -.156E+03   0.370E+02 -.165E+03 0.172E+03   -.733E+00 0.186E+01 -.306E+01   0.195E-01 -.707E-02 0.115E-01
   0.183E+03 -.264E+03 -.218E+03   -.191E+03 0.265E+03 0.228E+03   0.355E+01 0.138E+01 -.245E+01   0.657E-04 0.102E-01 0.790E-02
   0.120E+03 0.176E+03 0.229E+01   -.120E+03 -.178E+03 -.443E+01   0.225E+00 0.110E+01 0.399E+00   0.258E-02 -.106E-01 -.450E-02
   0.249E+02 -.801E+02 0.459E+02   -.213E+02 0.873E+02 -.484E+02   -.326E+01 -.813E-01 0.151E+01   0.969E-02 0.788E-02 0.307E-02
   -.202E+03 0.282E+03 -.301E+03   0.203E+03 -.287E+03 0.302E+03   -.172E+00 0.762E+00 -.248E+00   -.138E-01 0.378E-02 0.261E-02
   0.344E+03 -.132E+03 -.290E+03   -.364E+03 0.137E+03 0.297E+03   0.586E+01 -.243E+01 -.641E+00   0.320E-01 0.112E-01 -.219E-02
   -.693E+02 -.193E+03 -.265E+03   0.702E+02 0.191E+03 0.288E+03   -.107E+01 0.107E+01 -.200E+01   -.422E-03 0.467E-02 -.123E-01
   0.868E+02 0.128E+03 -.794E+02   -.874E+02 -.129E+03 0.787E+02   -.374E+01 0.127E+01 0.947E+00   -.583E-02 -.809E-02 0.166E-01
   -.148E+03 -.438E+02 0.671E+02   0.148E+03 0.415E+02 -.675E+02   0.884E+00 0.378E+01 -.501E+00   0.506E-02 0.421E-01 -.221E-01
   0.103E+03 -.183E+03 -.336E+03   -.102E+03 0.183E+03 0.368E+03   0.548E+00 -.831E+00 -.544E+01   0.121E-01 -.503E-02 -.123E-01
   0.229E+03 0.282E+03 0.344E+03   -.235E+03 -.283E+03 -.353E+03   -.118E+01 -.109E+01 0.632E+01   -.197E-01 -.157E-01 0.113E-01
   -.100E+03 0.496E+02 0.522E+02   0.100E+03 -.487E+02 -.519E+02   0.281E+00 -.235E+01 -.526E+00   0.352E-02 0.520E-02 0.159E-01
   -.247E+03 0.220E+03 0.194E+03   0.257E+03 -.222E+03 -.201E+03   -.526E+01 0.303E+00 -.140E+01   -.484E-02 -.103E-01 0.143E-01
   0.861E+02 -.112E+03 -.531E+02   -.964E+02 0.182E+03 0.550E+02   0.779E+00 -.794E+01 -.253E+01   -.127E-01 0.630E-02 0.161E-01
   -.324E+03 0.194E+03 0.262E+03   0.350E+03 -.204E+03 -.279E+03   -.220E+02 0.115E+02 0.174E+02   -.506E-02 -.235E-01 0.443E-03
   -.145E+03 -.440E+03 -.270E+03   0.157E+03 0.482E+03 0.293E+03   -.141E+02 -.257E+02 -.201E+02   0.609E-02 -.966E-02 0.106E-01
   0.144E+03 0.169E+02 0.618E+01   -.152E+03 -.158E+02 -.115E+01   0.987E+01 -.161E+01 -.664E+01   0.165E-02 0.695E-03 -.457E-02
   -.107E+03 -.979E+02 0.200E+03   0.110E+03 0.105E+03 -.213E+03   -.345E+01 -.787E+01 0.141E+02   0.514E-02 -.565E-02 0.208E-02
   0.404E+03 0.232E+02 0.180E+03   -.438E+03 -.116E+02 -.196E+03   0.220E+02 -.691E+01 0.154E+02   0.747E-02 0.290E-02 0.545E-02
   -.116E+03 0.303E+03 -.115E+03   0.128E+03 -.329E+03 0.129E+03   -.141E+02 0.224E+02 -.133E+02   0.282E-01 0.935E-02 -.267E-02
   0.133E+03 0.590E+03 -.168E+03   -.127E+03 -.691E+03 0.188E+03   0.853E+01 0.338E+02 -.154E+02   -.130E-01 0.111E-01 0.346E-02
   0.306E+03 -.267E+03 0.365E+03   -.333E+03 0.282E+03 -.392E+03   0.202E+02 -.152E+02 0.228E+02   -.769E-02 -.111E-02 -.169E-02
   -.332E+03 0.105E+03 0.407E+02   0.350E+03 -.118E+03 -.463E+02   -.159E+02 0.145E+02 0.663E+01   -.149E-01 0.127E-01 -.953E-02
   -.255E+03 -.225E+03 -.258E+03   0.287E+03 0.245E+03 0.266E+03   -.187E+02 -.172E+02 -.456E+01   -.117E-02 -.832E-02 0.955E-02
   0.331E+03 -.176E+03 -.245E+03   -.354E+03 0.184E+03 0.258E+03   0.205E+02 -.828E+01 -.129E+02   0.158E-01 0.713E-02 -.337E-02
   -.970E+02 -.213E+03 0.167E+03   0.104E+03 0.225E+03 -.178E+03   -.881E+01 -.151E+02 0.131E+02   0.730E-02 0.478E-02 -.837E-03
   0.196E+03 -.800E+01 0.115E+03   -.206E+03 0.808E+01 -.122E+03   0.100E+02 0.596E+00 0.838E+01   -.185E-02 -.480E-03 -.724E-02
   -.263E+03 0.126E+03 -.216E+03   0.288E+03 -.133E+03 0.227E+03   -.191E+02 0.740E+01 -.113E+02   -.764E-02 -.399E-02 0.400E-02
   0.192E+03 0.247E+03 -.182E+03   -.209E+03 -.274E+03 0.191E+03   0.179E+02 0.219E+02 -.919E+01   -.116E-01 0.118E-01 -.134E-01
   0.277E+03 -.211E+03 0.267E+03   -.291E+03 0.223E+03 -.295E+03   0.104E+02 -.109E+02 0.191E+02   0.201E-02 0.597E-02 0.100E-01
   -.139E+03 0.394E+03 0.117E+03   0.148E+03 -.421E+03 -.124E+03   -.780E+01 0.200E+02 0.748E+01   0.198E-02 -.608E-02 0.936E-02
   -.268E+03 -.178E+03 -.159E+03   0.283E+03 0.189E+03 0.166E+03   -.152E+02 -.130E+02 -.875E+01   0.435E-02 -.479E-02 -.771E-02
   0.314E+02 -.734E+02 -.331E+03   -.333E+02 0.786E+02 0.362E+03   0.363E+01 -.720E+01 -.231E+02   0.345E-02 -.125E-01 0.550E-02
   -.117E+03 -.986E+02 0.293E+02   0.127E+03 0.101E+03 -.328E+02   -.118E+02 -.188E+01 0.456E+01   -.830E-02 -.928E-02 -.219E-02
   0.920E+02 0.242E+03 0.935E+02   -.102E+03 -.261E+03 -.981E+02   0.111E+02 0.201E+02 0.567E+01   0.870E-02 -.314E-02 -.183E-01
   -.220E+03 0.116E+03 -.332E+03   0.239E+03 -.117E+03 0.348E+03   -.191E+02 0.673E+00 -.147E+02   -.483E-03 0.155E-01 -.114E-01
   0.213E+03 0.295E+03 -.260E+03   -.224E+03 -.309E+03 0.275E+03   0.108E+02 0.143E+02 -.145E+02   0.143E-01 -.175E-02 0.183E-02
   0.139E+03 -.277E+03 0.311E+03   -.148E+03 0.302E+03 -.363E+03   0.814E+01 -.181E+02 0.263E+02   0.512E-02 -.157E-01 -.365E-02
   -.307E+02 0.274E+03 0.409E+03   0.279E+02 -.301E+03 -.445E+03   0.615E+00 0.238E+02 0.233E+02   0.136E-02 -.545E-02 0.528E-02
   -.339E+03 -.239E+03 -.144E+03   0.354E+03 0.259E+03 0.158E+03   -.130E+02 -.189E+02 -.151E+02   -.131E-01 0.283E-02 0.257E-01
   0.106E+03 -.250E+03 -.107E+03   -.119E+03 0.271E+03 0.117E+03   0.138E+02 -.211E+02 -.110E+02   0.471E-02 0.360E-01 -.281E-03
   -.276E+03 -.152E+03 0.363E+03   0.298E+03 0.149E+03 -.412E+03   -.194E+02 0.262E+01 0.280E+02   -.988E-02 0.348E-02 0.246E-01
   0.105E+03 0.923E+02 0.217E+03   -.111E+03 -.993E+02 -.231E+03   0.708E+01 0.789E+01 0.165E+02   0.597E-03 -.322E-02 0.852E-02
   -.144E+03 0.806E+01 -.315E+02   0.154E+03 -.113E+02 0.320E+02   -.108E+02 0.390E+01 -.809E+00   0.110E-02 -.226E-02 0.192E-03
   0.234E+03 0.217E+03 -.237E+03   -.241E+03 -.234E+03 0.248E+03   0.685E+01 0.178E+02 -.114E+02   0.686E-02 0.458E-02 0.864E-03
   0.110E+03 -.189E+03 0.311E+03   -.120E+03 0.208E+03 -.319E+03   0.130E+02 -.192E+02 0.643E+01   -.262E-01 -.139E-02 0.776E-02
 -----------------------------------------------------------------------------------------------
   0.237E+02 -.114E+02 -.399E+02   0.369E-12 0.171E-12 -.341E-12   -.238E+02 0.113E+02 0.398E+02   0.543E-01 0.519E-01 0.750E-01
 
 
 POSITION                                       TOTAL-FORCE (eV/Angst)
 -----------------------------------------------------------------------------------
      0.61479      4.88096      0.83953         0.627986      4.170293     -1.062169
      2.79338      6.66483      1.15379        10.369540      2.677563     -7.416693
      3.20798      5.19757      2.81781         3.287232    -15.294929     12.861456
      1.13723      6.95975      2.74190        -4.783101      2.506047      7.430780
      0.85751      0.95949      5.05717        -0.321759     -1.407819     -1.748873
      3.04495      2.80828      4.97742         0.365726      7.144273     -0.987355
      2.98193      1.25584      7.18211         0.357318     -4.847987      0.665690
      0.92467      2.98946      6.99433       -13.922096      2.385446      6.824699
      4.88856      5.07434      4.68950        -0.239309     -0.757269     20.558448
      7.14568      7.00689      4.64422        -4.402648     -0.180224      0.353207
      6.88174      4.80032      7.16509         0.574451      1.428317     -0.931873
      5.04951      6.69954      6.81273         1.080866     -0.195190     26.577927
      5.05066      1.24605      1.14432        -6.415700     -2.156060     -2.377430
      6.94692      3.24191      1.21849         0.092972     -1.494575     -0.224930
      6.80362      0.92058      3.06878         5.280448     -2.048372     -8.942824
      4.84623      2.37488      3.17467        -9.570973     62.228546     -0.551527
      6.61289      1.06821      0.86892         4.314426      1.219843      1.329987
      3.03964      6.64379      2.90196        -1.805362     16.196018      3.369341
      2.62412      1.24252      1.24623         2.067913     -0.470076     -1.614793
      0.80450      0.94950      3.06781        -0.265024     -1.223851      1.170618
      3.55252      2.98846      2.79725       -11.901565      4.698461     -0.621783
      0.60402      3.37640      1.39765        -2.010698     -3.239326     -0.010908
      5.16336      1.23307      3.24617        14.218177    -66.816336      4.202776
      1.28640      7.01646      1.14171        -6.750278      0.430928     -4.371856
      6.59644      4.88084      5.06048         2.573880      2.005208      1.031231
      2.40076      2.79218      6.81777        13.363510      2.416400      3.354548
      3.21871      4.83686      4.90682        -2.541751     -0.974586     -0.347712
      0.86828      5.15874      7.15972        -1.757163     -2.728851      1.995869
      3.17928      6.99861      7.46584         0.181725      0.679803      1.405030
      0.38129      7.22367      4.77160         5.533117      0.888762     -0.169168
      5.05782      5.12454      7.07697         0.510042     -4.713695      0.666118
      1.33245      2.78008      5.45408        -4.084917      0.716846     -9.484808
      2.71988      1.22901      5.21829         1.204377     -6.560567      0.248109
      6.84043      7.21315      7.04936        -0.484555     -2.127212     -1.360815
      7.25521      0.70934      4.53683         1.750211     -1.924556      8.062614
      5.11351      0.68001      6.97370        -2.079239      0.365395      1.082855
      7.17765      2.97076      7.21126         1.605766      1.433112      1.002848
      4.83034      3.09345      4.85503        -0.176322     -0.468244      0.703518
      1.01477      0.94508      6.95474         0.062081      0.572794     -0.052464
      4.97305      7.08132      5.52533        -0.982035      6.824916    -26.200635
      2.87269      4.89598      1.41827        -2.216033     -3.762668    -12.982442
      6.63250      2.73650      3.24173         2.242309      1.333135     -1.536811
      6.87291      4.98137      0.71770         1.405094     -0.448737     -0.959644
      5.04152      5.04704      3.30419         2.032220      0.396606    -20.433778
      7.33784      7.16105      2.62222         0.479029      0.876928      2.255636
      4.86492      7.21615      0.90587        -1.440052      0.620436     -0.281721
      1.12606      5.16265      2.99016        -0.254487      0.371404     -1.131890
      4.78580      3.06030      1.18327         2.824652     -0.746355     -1.348402
 -----------------------------------------------------------------------------------
    total drift:                               -0.014211      0.020945      0.006152


--------------------------------------------------------------------------------------------------------



  FREE ENERGIE OF THE ION-ELECTRON SYSTEM (eV)
  ---------------------------------------------------
  free  energy   TOTEN  =      -233.0445198455 eV

  energy  without entropy=     -233.0003156734  energy(sigma->0) =     -233.02241776
 


--------------------------------------------------------------------------------------------------------


    POTLOK:  cpu time    0.1849: real time    0.1854


--------------------------------------------------------------------------------------------------------


     LOOP+:  cpu time 8268.9982: real time 8289.0341
    4ORBIT:  cpu time    0.0000: real time    0.0000

volume of typ            1:    17.6 %

volume of typ            2:     9.0 %
 
total charge     
 
# of ion       s       p       d       tot
------------------------------------------
    1        0.268   0.285   7.887   8.440
    2        0.335   0.450   7.961   8.746
    3        0.438   0.606   8.064   9.109
    4        0.291   0.357   7.891   8.539
    5        0.247   0.286   7.827   8.360
    6        0.313   0.414   7.921   8.647
    7        0.238   0.250   7.879   8.368
    8        0.334   0.447   7.993   8.774
    9        0.422   0.576   7.998   8.997
   10        0.263   0.276   7.883   8.422
   11        0.249   0.265   7.816   8.330
   12        0.445   0.627   7.998   9.071
   13        0.290   0.317   7.936   8.543
   14        0.225   0.232   7.841   8.298
   15        0.334   0.432   7.945   8.711
   16        0.569   0.972   8.254   9.795
   17        1.299   2.691   0.011   4.001
   18        1.287   2.853   0.025   4.166
   19        1.315   2.534   0.001   3.850
   20        1.303   2.595   0.003   3.901
   21        1.314   2.753   0.017   4.084
   22        1.301   2.682   0.011   3.994
   23        1.333   2.991   0.058   4.382
   24        1.293   2.807   0.022   4.121
   25        1.289   2.684   0.006   3.979
   26        1.296   2.834   0.028   4.157
   27        1.285   2.729   0.008   4.022
   28        1.302   2.595   0.003   3.899
   29        1.301   2.602   0.003   3.906
   30        1.292   2.710   0.011   4.013
   31        1.294   2.738   0.012   4.044
   32        1.291   2.787   0.019   4.097
   33        1.284   2.764   0.013   4.061
   34        1.311   2.588   0.004   3.903
   35        1.289   2.757   0.014   4.059
   36        1.316   2.546   0.002   3.864
   37        1.293   2.642   0.004   3.939
   38        1.299   2.714   0.009   4.022
   39        1.295   2.659   0.006   3.960
   40        1.314   2.821   0.028   4.163
   41        1.300   2.798   0.022   4.120
   42        1.299   2.704   0.008   4.011
   43        1.291   2.675   0.007   3.974
   44        1.307   2.815   0.026   4.148
   45        1.301   2.605   0.003   3.909
   46        1.306   2.573   0.001   3.881
   47        1.304   2.650   0.006   3.960
   48        1.308   2.643   0.006   3.957
--------------------------------------------------
tot          46.87   93.34  127.49  267.70
 
magnetization (x)
 
# of ion       s       p       d       tot
------------------------------------------
    1        0.001   0.004   0.583   0.588
    2       -0.003  -0.007   0.226   0.216
    3       -0.002   0.006  -0.033  -0.030
    4       -0.000  -0.003  -0.016  -0.019
    5       -0.000  -0.001  -0.133  -0.134
    6        0.001  -0.001  -0.010  -0.010
    7       -0.007  -0.013  -0.382  -0.402
    8        0.000  -0.001  -0.029  -0.029
    9        0.006   0.004   0.455   0.465
   10       -0.001  -0.002  -0.112  -0.114
   11       -0.002  -0.005  -0.135  -0.141
   12       -0.008  -0.012   0.283   0.263
   13       -0.002  -0.012   0.007  -0.007
   14        0.002   0.003   0.629   0.634
   15       -0.000  -0.004   0.013   0.009
   16       -0.002  -0.001  -0.114  -0.117
   17        0.001   0.045  -0.000   0.046
   18        0.000   0.024   0.000   0.025
   19        0.014   0.726   0.000   0.740
   20        0.006   0.317  -0.000   0.323
   21        0.002   0.021   0.000   0.023
   22        0.005   0.208   0.000   0.212
   23       -0.001  -0.071  -0.000  -0.072
   24        0.000   0.027  -0.000   0.027
   25        0.001   0.063  -0.000   0.064
   26       -0.003  -0.052   0.000  -0.055
   27        0.001   0.050   0.000   0.052
   28        0.003   0.159   0.000   0.162
   29        0.010   0.535  -0.000   0.545
   30        0.000   0.026  -0.000   0.026
   31       -0.001  -0.041  -0.000  -0.042
   32       -0.002  -0.021   0.000  -0.024
   33       -0.005  -0.133   0.000  -0.138
   34        0.005   0.274  -0.000   0.279
   35       -0.001   0.032  -0.000   0.030
   36        0.014   0.758  -0.000   0.772
   37        0.001   0.059  -0.000   0.060
   38        0.005   0.129   0.000   0.134
   39       -0.005  -0.207   0.000  -0.212
   40        0.004   0.147   0.000   0.151
   41        0.002  -0.003   0.000  -0.000
   42        0.003   0.072   0.000   0.075
   43        0.005   0.181   0.000   0.185
   44        0.004   0.199   0.000   0.203
   45       -0.001  -0.050   0.000  -0.052
   46        0.011   0.603  -0.000   0.615
   47       -0.001  -0.019   0.000  -0.019
   48       -0.003  -0.111  -0.000  -0.114
--------------------------------------------------
tot           0.06    3.90    1.23    5.19
 

 total amount of memory used by VASP MPI-rank0   359818. kBytes
=======================================================================

   base      :      30000. kBytes
   nonlr-proj:      25372. kBytes
   fftplans  :       5538. kBytes
   grid      :      31719. kBytes
   one-center:       1492. kBytes
   wavefun   :     265697. kBytes
 
  
  
 General timing and accounting informations for this job:
 ========================================================
  
                  Total CPU time used (sec):     8340.157
                            User time (sec):     8331.833
                          System time (sec):        8.324
                         Elapsed time (sec):     8364.130
  
                   Maximum memory used (kb):      439004.
                   Average memory used (kb):           0.
  
                          Minor page faults:       117936
                          Major page faults:           23
                 Voluntary context switches:         1190
