 vasp.5.4.4.18Apr17-6-g9f103f2a35 (build May 12 2020 04:58:55) complex          
  
 MD_VERSION_INFO: Compiled 2020-05-12T11:58:55-UTC in devlin.sd.materialsdesign.
 com:/home/medea2/data/build/wwolf/vasp-gpu5.4.4/13047/x86_64/src/src/build/std 
 from svn 13047
 
 This VASP executable licensed from Materials Design, Inc.
 
 executed on                        Lin64 date 2023.03.24  19:12:42
 running on   16 total cores
 distrk:  each k-point on   16 cores,    1 groups
 distr:  one band on NCORES_PER_BAND=   1 cores,   16 groups


--------------------------------------------------------------------------------------------------------


 INCAR:
 POTCAR:    PAW_PBE Ni 02Aug2007                  
 POTCAR:    PAW_PBE O 08Apr2002                   

 ----------------------------------------------------------------------------- 
|                                                                             |
|           W    W    AA    RRRRR   N    N  II  N    N   GGGG   !!!           |
|           W    W   A  A   R    R  NN   N  II  NN   N  G    G  !!!           |
|           W    W  A    A  R    R  N N  N  II  N N  N  G       !!!           |
|           W WW W  AAAAAA  RRRRR   N  N N  II  N  N N  G  GGG   !            |
|           WW  WW  A    A  R   R   N   NN  II  N   NN  G    G                |
|           W    W  A    A  R    R  N    N  II  N    N   GGGG   !!!           |
|                                                                             |
|      For optimal performance we recommend to set                            |
|        NCORE= 4 - approx SQRT( number of cores)                             |
|      NCORE specifies how many cores store one orbital (NPAR=cpu/NCORE).     |
|      This setting can  greatly improve the performance of VASP for DFT.     |
|      The default,   NCORE=1            might be grossly inefficient         |
|      on modern multi-core architectures or massively parallel machines.     |
|      Do your own testing !!!!                                               |
|      Unfortunately you need to use the default for GW and RPA calculations. |
|      (for HF NCORE is supported but not extensively tested yet)             |
|                                                                             |
 ----------------------------------------------------------------------------- 

 POTCAR:    PAW_PBE Ni 02Aug2007                  
  local pseudopotential read in
  partial core-charges read in
  partial kinetic energy density read in
  atomic valenz-charges read in
  non local Contribution for L=           2  read in
    real space projection operators read in
  non local Contribution for L=           2  read in
    real space projection operators read in
  non local Contribution for L=           0  read in
    real space projection operators read in
  non local Contribution for L=           0  read in
    real space projection operators read in
  non local Contribution for L=           1  read in
    real space projection operators read in
  non local Contribution for L=           1  read in
    real space projection operators read in
    PAW grid and wavefunctions read in
 
   number of l-projection  operators is LMAX  =           6
   number of lm-projection operators is LMMAX =          18
 
 POTCAR:    PAW_PBE O 08Apr2002                   
  local pseudopotential read in
  partial core-charges read in
  partial kinetic energy density read in
  kinetic energy density of atom read in
  atomic valenz-charges read in
  non local Contribution for L=           0  read in
    real space projection operators read in
  non local Contribution for L=           0  read in
    real space projection operators read in
  non local Contribution for L=           1  read in
    real space projection operators read in
  non local Contribution for L=           1  read in
    real space projection operators read in
    PAW grid and wavefunctions read in
 
   number of l-projection  operators is LMAX  =           4
   number of lm-projection operators is LMMAX =           8
 
 Optimization of the real space projectors (new method)

 maximal supplied QI-value         = 16.25
 optimisation between [QCUT,QGAM] = [ 11.38, 22.75] = [ 36.24,144.96] Ry 
 Optimized for a Real-space Cutoff    1.47 Angstroem

   l    n(q)    QCUT    max X(q) W(low)/X(q) W(high)/X(q)  e(spline) 
   2      9    11.376    60.317    0.17E-03    0.16E-04    0.16E-06
   2      9    11.376    55.921    0.17E-03    0.16E-04    0.17E-06
   0     10    11.376    51.690    0.45E-04    0.60E-04    0.21E-06
   0     10    11.376    30.015    0.37E-04    0.55E-04    0.19E-06
   1     10    11.376    18.849    0.83E-04    0.11E-03    0.92E-07
   1     10    11.376    14.624    0.69E-04    0.92E-04    0.82E-07
 Optimization of the real space projectors (new method)

 maximal supplied QI-value         = 24.76
 optimisation between [QCUT,QGAM] = [ 11.39, 22.77] = [ 36.31,145.25] Ry 
 Optimized for a Real-space Cutoff    1.10 Angstroem

   l    n(q)    QCUT    max X(q) W(low)/X(q) W(high)/X(q)  e(spline) 
   0      7    11.387    20.381    0.22E-03    0.48E-03    0.18E-06
   0      7    11.387    15.268    0.22E-03    0.52E-03    0.19E-06
   1      7    11.387     5.964    0.22E-03    0.73E-03    0.24E-06
   1      7    11.387     5.382    0.19E-03    0.60E-03    0.21E-06

 ----------------------------------------------------------------------------- 
|                                                                             |
|  ADVICE TO THIS USER RUNNING 'VASP/VAMP'   (HEAR YOUR MASTER'S VOICE ...):  |
|                                                                             |
|      You enforced a specific xc-type in the INCAR file,                     |
|      a different type was found on the POTCAR file                          |
|          I HOPE YOU KNOW, WHAT YOU ARE  DOING                               |
|                                                                             |
 ----------------------------------------------------------------------------- 

  PAW_PBE Ni 02Aug2007                  :
 energy of atom  1       EATOM=-1077.6739
 kinetic energy error for atom=    0.0030 (will be added to EATOM!!)
  PAW_PBE O 08Apr2002                   :
 energy of atom  2       EATOM= -432.3788
 kinetic energy error for atom=    0.0224 (will be added to EATOM!!)
 
 
 POSCAR: NiO2_Fd-3m_scale_1_050_disp_0_05_round_2
  positions in direct lattice
  No initial velocities read in
 exchange correlation table for  LEXCH =       14
   RHO(1)=    0.500       N(1)  =     2000
   RHO(2)=  100.500       N(2)  =     4000
 


--------------------------------------------------------------------------------------------------------


 ion  position               nearest neighbor table
   1  0.123  0.604  0.116-  24 1.81  41 1.83  22 1.94  47 2.00  43 2.22  28 2.27   4 2.71   3 2.74
                             2 2.75   8 3.03
   2  0.364  0.830  0.114-  46 1.81  41 1.93  18 1.94  24 1.96  29 2.16  19 2.38   1 2.75   3 2.76
                             4 2.82  13 2.97  12 3.01
   3  0.355  0.596  0.349-  21 1.80  41 1.83  18 1.84  27 1.89  47 1.92  44 1.92   1 2.74   2 2.76
                             4 2.76   9 2.86  16 2.89   6 2.95
   4  0.120  0.830  0.349-  24 1.75  18 1.85  47 1.87  30 1.94  20 2.34  45 2.38   1 2.71   3 2.76
                             2 2.82
   5  0.109  0.117  0.587-  20 1.79  39 1.82  32 1.90  33 2.04  35 2.14  30 2.34   7 2.83   6 2.85
                            15 2.95   8 2.97
   6  0.356  0.354  0.607-  26 1.74  38 1.84  33 1.87  32 1.88  27 1.91  21 1.99   7 2.66   9 2.79
                             8 2.83   5 2.85  16 2.93   3 2.95
   7  0.347  0.125  0.829-  39 1.83  33 1.86  26 1.87  36 1.93  19 2.29  29 2.37   6 2.66   8 2.76
                             5 2.83
   8  0.115  0.360  0.847-  39 1.88  28 1.89  26 1.98  32 2.07  22 2.08  37 2.10   7 2.76   6 2.83
                             5 2.97   1 3.03
   9  0.596  0.586  0.592-  44 1.76  38 1.81  31 1.85  25 1.89  27 1.90  40 2.03  10 2.75  16 2.77
                            11 2.77   6 2.79   3 2.86  12 2.93
  10  0.827  0.820  0.594-  25 1.75  40 1.76  45 1.80  34 1.97  35 2.36  30 2.41  11 2.66   9 2.75
                            12 2.82
  11  0.827  0.606  0.830-  34 1.70  25 1.73  31 1.87  37 2.07  43 2.33  28 2.35  10 2.66   9 2.77
                            12 2.79
  12  0.589  0.842  0.833-  29 1.82  40 1.82  31 1.90  34 1.97  36 2.23  46 2.28  11 2.79  10 2.82
                             9 2.93   2 3.01
  13  0.587  0.107  0.118-  19 1.75  23 1.84  17 1.92  48 1.97  46 2.17  36 2.27  16 2.86  15 2.91
                             2 2.97  14 2.97
  14  0.835  0.363  0.126-  42 1.74  43 1.93  48 1.93  17 1.96  22 2.28  37 2.36  16 2.73  15 2.84
                            13 2.97
  15  0.836  0.117  0.363-  35 1.89  42 1.91  17 1.91  23 1.92  20 2.16  45 2.31  16 2.76  14 2.84
                            13 2.91   5 2.95
  16  0.603  0.353  0.356-  42 1.80  48 1.86  23 1.89  21 1.95  38 1.96  44 1.97  14 2.73  15 2.76
                             9 2.77  13 2.86   3 2.89   6 2.93
  17  0.816  0.129  0.135-  15 1.91  13 1.92  14 1.96
  18  0.342  0.817  0.346-   3 1.84   4 1.85   2 1.94
  19  0.378  0.114  0.102-  13 1.75   7 2.29   2 2.38
  20  0.094  0.108  0.373-   5 1.79  15 2.16   4 2.34
  21  0.371  0.382  0.370-   3 1.80  16 1.95   6 1.99
  22  0.107  0.373  0.096-   1 1.94   8 2.08  14 2.28
  23  0.607  0.127  0.336-  13 1.84  16 1.89  15 1.92
  24  0.131  0.820  0.140-   4 1.75   1 1.81   2 1.96
  25  0.819  0.612  0.623-  11 1.73  10 1.75   9 1.89
  26  0.350  0.348  0.816-   6 1.74   7 1.87   8 1.98
  27  0.369  0.580  0.575-   3 1.89   9 1.90   6 1.91
  28  0.108  0.587  0.844-   8 1.89   1 2.27  11 2.35
  29  0.372  0.842  0.856-  12 1.82   2 2.16   7 2.37
  30  0.116  0.836  0.582-   4 1.94   5 2.34  10 2.41
  31  0.603  0.615  0.813-   9 1.85  11 1.87  12 1.90
  32  0.131  0.344  0.600-   6 1.88   5 1.90   8 2.07
  33  0.353  0.129  0.606-   7 1.86   6 1.87   5 2.04
  34  0.823  0.810  0.829-  11 1.70  10 1.97  12 1.97
  35  0.854  0.102  0.588-  15 1.89   5 2.14  10 2.36
  36  0.578  0.109  0.846-   7 1.93  12 2.23  13 2.27
  37  0.863  0.361  0.844-  11 2.07   8 2.10  14 2.36
  38  0.575  0.370  0.589-   9 1.81   6 1.84  16 1.96
  39  0.129  0.139  0.803-   5 1.82   7 1.83   8 1.88
  40  0.618  0.827  0.617-  10 1.76  12 1.82   9 2.03
  41  0.342  0.600  0.130-   3 1.83   1 1.83   2 1.93
  42  0.817  0.343  0.333-  14 1.74  16 1.80  15 1.91
  43  0.857  0.592  0.107-  14 1.93   1 2.22  11 2.33
  44  0.583  0.587  0.382-   9 1.76   3 1.92  16 1.97
  45  0.837  0.841  0.379-  10 1.80  15 2.31   4 2.38
  46  0.581  0.847  0.106-   2 1.81  13 2.17  12 2.28
  47  0.126  0.605  0.356-   4 1.87   3 1.92   1 2.00
  48  0.604  0.341  0.133-  16 1.86  14 1.93  13 1.97
 
  LATTYP: Found a simple cubic cell.
 ALAT       =     8.3389845000
  
  Lattice vectors:
  
 A1 = (   8.3389845000,   0.0000000000,   0.0000000000)
 A2 = (   0.0000000000,   8.3389845000,   0.0000000000)
 A3 = (   0.0000000000,   0.0000000000,   8.3389845000)


Analysis of symmetry for initial positions (statically):
=====================================================================
 Subroutine PRICEL returns:
 Original cell was already a primitive cell.
 

 Routine SETGRP: Setting up the symmetry group for a 
 simple cubic supercell.


 Subroutine GETGRP returns: Found  1 space group operations
 (whereof  1 operations were pure point group operations)
 out of a pool of 48 trial point group operations.


The static configuration has the point symmetry C_1 .


Analysis of symmetry for dynamics (positions and initial velocities):
=====================================================================
 Subroutine PRICEL returns:
 Original cell was already a primitive cell.
 

 Routine SETGRP: Setting up the symmetry group for a 
 simple cubic supercell.


 Subroutine GETGRP returns: Found  1 space group operations
 (whereof  1 operations were pure point group operations)
 out of a pool of 48 trial point group operations.


The dynamic configuration has the point symmetry C_1 .


Analysis of structural, dynamic, and magnetic symmetry:
=====================================================================
 Subroutine PRICEL returns:
 Original cell was already a primitive cell.
 

 Routine SETGRP: Setting up the symmetry group for a 
 simple cubic supercell.


 Subroutine GETGRP returns: Found  1 space group operations
 (whereof  1 operations were pure point group operations)
 out of a pool of 48 trial point group operations.


The magnetic configuration has the point symmetry C_1 .


 Subroutine INISYM returns: Found  1 space group operations
 (whereof  1 operations are pure point group operations),
 and found     1 'primitive' translations

 
 
 KPOINTS: Automatic mesh                          

Automatic generation of k-mesh.
Space group operators:
 irot       det(A)        alpha          n_x          n_y          n_z        tau_x        tau_y        tau_z
    1     1.000000     0.000001     1.000000     0.000000     0.000000     0.000000     0.000000     0.000000
 
 Subroutine IBZKPT returns following result:
 ===========================================
 
 Found     36 irreducible k-points:
 
 Following reciprocal coordinates:
            Coordinates               Weight
  0.000000  0.000000  0.000000      1.000000
  0.250000  0.000000  0.000000      2.000000
  0.500000  0.000000  0.000000      1.000000
  0.000000  0.250000  0.000000      2.000000
  0.250000  0.250000  0.000000      2.000000
  0.500000  0.250000  0.000000      2.000000
 -0.250000  0.250000  0.000000      2.000000
  0.000000  0.500000  0.000000      1.000000
  0.250000  0.500000  0.000000      2.000000
  0.500000  0.500000  0.000000      1.000000
  0.000000  0.000000  0.250000      2.000000
  0.250000  0.000000  0.250000      2.000000
  0.500000  0.000000  0.250000      2.000000
 -0.250000  0.000000  0.250000      2.000000
  0.000000  0.250000  0.250000      2.000000
  0.250000  0.250000  0.250000      2.000000
  0.500000  0.250000  0.250000      2.000000
 -0.250000  0.250000  0.250000      2.000000
  0.000000  0.500000  0.250000      2.000000
  0.250000  0.500000  0.250000      2.000000
  0.500000  0.500000  0.250000      2.000000
 -0.250000  0.500000  0.250000      2.000000
  0.000000 -0.250000  0.250000      2.000000
  0.250000 -0.250000  0.250000      2.000000
  0.500000 -0.250000  0.250000      2.000000
 -0.250000 -0.250000  0.250000      2.000000
  0.000000  0.000000  0.500000      1.000000
  0.250000  0.000000  0.500000      2.000000
  0.500000  0.000000  0.500000      1.000000
  0.000000  0.250000  0.500000      2.000000
  0.250000  0.250000  0.500000      2.000000
  0.500000  0.250000  0.500000      2.000000
 -0.250000  0.250000  0.500000      2.000000
  0.000000  0.500000  0.500000      1.000000
  0.250000  0.500000  0.500000      2.000000
  0.500000  0.500000  0.500000      1.000000
 
 Following cartesian coordinates:
            Coordinates               Weight
  0.000000  0.000000  0.000000      1.000000
  0.029980  0.000000  0.000000      2.000000
  0.059959  0.000000  0.000000      1.000000
  0.000000  0.029980  0.000000      2.000000
  0.029980  0.029980  0.000000      2.000000
  0.059959  0.029980  0.000000      2.000000
 -0.029980  0.029980  0.000000      2.000000
  0.000000  0.059959  0.000000      1.000000
  0.029980  0.059959  0.000000      2.000000
  0.059959  0.059959  0.000000      1.000000
  0.000000  0.000000  0.029980      2.000000
  0.029980  0.000000  0.029980      2.000000
  0.059959  0.000000  0.029980      2.000000
 -0.029980  0.000000  0.029980      2.000000
  0.000000  0.029980  0.029980      2.000000
  0.029980  0.029980  0.029980      2.000000
  0.059959  0.029980  0.029980      2.000000
 -0.029980  0.029980  0.029980      2.000000
  0.000000  0.059959  0.029980      2.000000
  0.029980  0.059959  0.029980      2.000000
  0.059959  0.059959  0.029980      2.000000
 -0.029980  0.059959  0.029980      2.000000
  0.000000 -0.029980  0.029980      2.000000
  0.029980 -0.029980  0.029980      2.000000
  0.059959 -0.029980  0.029980      2.000000
 -0.029980 -0.029980  0.029980      2.000000
  0.000000  0.000000  0.059959      1.000000
  0.029980  0.000000  0.059959      2.000000
  0.059959  0.000000  0.059959      1.000000
  0.000000  0.029980  0.059959      2.000000
  0.029980  0.029980  0.059959      2.000000
  0.059959  0.029980  0.059959      2.000000
 -0.029980  0.029980  0.059959      2.000000
  0.000000  0.059959  0.059959      1.000000
  0.029980  0.059959  0.059959      2.000000
  0.059959  0.059959  0.059959      1.000000
 


--------------------------------------------------------------------------------------------------------




 Dimension of arrays:
   k-points           NKPTS =     36   k-points in BZ     NKDIM =     36   number of bands    NBANDS=    240
   number of dos      NEDOS =    301   number of ions     NIONS =     48
   non local maximal  LDIM  =      6   non local SUM 2l+1 LMDIM =     18
   total plane-waves  NPLWV = 262144
   max r-space proj   IRMAX =   6119   max aug-charges    IRDMAX=  14851
   dimension x,y,z NGX =    64 NGY =   64 NGZ =   64
   dimension x,y,z NGXF=   128 NGYF=  128 NGZF=  128
   support grid    NGXF=   128 NGYF=  128 NGZF=  128
   ions per type =              16  32
   NGX,Y,Z   is equivalent  to a cutoff of  12.76, 12.76, 12.76 a.u.
   NGXF,Y,Z  is equivalent  to a cutoff of  25.52, 25.52, 25.52 a.u.

 SYSTEM =  unknown system                          
 POSCAR =  NiO2_Fd-3m_scale_1_050_disp_0_05_round_2

 Startparameter for this run:
   NWRITE =      1    write-flag & timer
   PREC   = accura    normal or accurate (medium, high low for compatibility)
   ISTART =      0    job   : 0-new  1-cont  2-samecut
   ICHARG =      2    charge: 1-file 2-atom 10-const
   ISPIN  =      2    spin polarized calculation?
   LNONCOLLINEAR =      F non collinear calculations
   LSORBIT =      F    spin-orbit coupling
   INIWAV =      1    electr: 0-lowe 1-rand  2-diag
   LASPH  =      F    aspherical Exc in radial PAW
   METAGGA=      F    non-selfconsistent MetaGGA calc.

 Electronic Relaxation 1
   ENCUT  =  500.0 eV  36.75 Ry    6.06 a.u.  15.20 15.20 15.20*2*pi/ulx,y,z
   ENINI  =  500.0     initial cutoff
   ENAUG  =  605.4 eV  augmentation charge cutoff
   NELM   =     80;   NELMIN=  2; NELMDL= -5     # of ELM steps 
   EDIFF  = 0.1E-04   stopping-criterion for ELM
   LREAL  =      T    real-space projection
   NLSPLINE    = F    spline interpolate recip. space projectors
   LCOMPAT=      F    compatible to vasp.4.4
   GGA_COMPAT  = T    GGA compatible to vasp.4.4-vasp.4.6
   LMAXPAW     = -100 max onsite density
   LMAXMIX     =    2 max onsite mixed and CHGCAR
   VOSKOWN=      1    Vosko Wilk Nusair interpolation
   ROPT   =   -0.00025  -0.00025
 Ionic relaxation
   EDIFFG = 0.1E-03   stopping-criterion for IOM
   NSW    =      0    number of steps for IOM
   NBLOCK =      1;   KBLOCK =      1    inner block; outer block 
   IBRION =     -1    ionic relax: 0-MD 1-quasi-New 2-CG
   NFREE  =      0    steps in history (QN), initial steepest desc. (CG)
   ISIF   =      2    stress and relaxation
   IWAVPR =     10    prediction:  0-non 1-charg 2-wave 3-comb
   ISYM   =      2    0-nonsym 1-usesym 2-fastsym
   LCORR  =      T    Harris-Foulkes like correction to forces

   POTIM  = 0.5000    time-step for ionic-motion
   TEIN   =    0.0    initial temperature
   TEBEG  =    0.0;   TEEND  =   0.0 temperature during run
   SMASS  =  -3.00    Nose mass-parameter (am)
   estimated Nose-frequenzy (Omega)   =  0.10E-29 period in steps =****** mass=  -0.159E-26a.u.
   SCALEE = 1.0000    scale energy and forces
   NPACO  =    256;   APACO  = 16.0  distance and # of slots for P.C.
   PSTRESS=    0.0 pullay stress

  Mass of Ions in am
   POMASS =  58.69 16.00
  Ionic Valenz
   ZVAL   =  10.00  6.00
  Atomic Wigner-Seitz radii
   RWIGS  =   1.15  0.73
  virtual crystal weights 
   VCA    =   1.00  1.00
   NELECT =     352.0000    total number of electrons
   NUPDOWN=      -1.0000    fix difference up-down

 DOS related values:
   EMIN   =  10.00;   EMAX   =-10.00  energy-range for DOS
   EFERMI =   0.00
   ISMEAR =     0;   SIGMA  =   0.05  broadening in eV -4-tet -1-fermi 0-gaus

 Electronic relaxation 2 (details)
   IALGO  =     38    algorithm
   LDIAG  =      T    sub-space diagonalisation (order eigenvalues)
   LSUBROT=      F    optimize rotation matrix (better conditioning)
   TURBO    =      0    0=normal 1=particle mesh
   IRESTART =      0    0=no restart 2=restart with 2 vectors
   NREBOOT  =      0    no. of reboots
   NMIN     =      0    reboot dimension
   EREF     =   0.00    reference energy to select bands
   IMIX   =      4    mixing-type and parameters
     AMIX     =   0.40;   BMIX     =  1.00
     AMIX_MAG =   1.60;   BMIX_MAG =  1.00
     AMIN     =   0.10
     WC   =   100.;   INIMIX=   1;  MIXPRE=   1;  MAXMIX= -45

 Intra band minimization:
   WEIMIN = 0.0000     energy-eigenvalue tresh-hold
   EBREAK =  0.10E-07  absolut break condition
   DEPER  =   0.30     relativ break condition  

   TIME   =   0.40     timestep for ELM

  volume/ion in A,a.u.               =      12.08        81.53
  Fermi-wavevector in a.u.,A,eV,Ry     =   1.386147  2.619438 26.142273  1.921403
  Thomas-Fermi vector in A             =   2.510490
 
 Write flags
   LWAVE        =      F    write WAVECAR
   LDOWNSAMPLE  =      F    k-point downsampling of WAVECAR
   LCHARG       =      T    write CHGCAR
   LVTOT        =      F    write LOCPOT, total local potential
   LVHAR        =      F    write LOCPOT, Hartree potential only
   LELF         =      F    write electronic localiz. function (ELF)
   LORBIT       =      0    0 simple, 1 ext, 2 COOP (PROOUT), +10 PAW based schemes


 Dipole corrections
   LMONO  =      F    monopole corrections only (constant potential shift)
   LDIPOL =      F    correct potential (dipole corrections)
   IDIPOL =      0    1-x, 2-y, 3-z, 4-all directions 
   EPSILON=  1.0000000 bulk dielectric constant

 Exchange correlation treatment:
   GGA     =    PS    GGA type
   LEXCH   =    14    internal setting for exchange type
   VOSKOWN=      1    Vosko Wilk Nusair interpolation
   LHFCALC =     F    Hartree Fock is set to
   LHFONE  =     F    Hartree Fock one center treatment
   AEXX    =    0.0000 exact exchange contribution

 Linear response parameters
   LEPSILON=     F    determine dielectric tensor
   LRPA    =     F    only Hartree local field effects (RPA)
   LNABLA  =     F    use nabla operator in PAW spheres
   LVEL    =     F    velocity operator in full k-point grid
   LINTERFAST=   F  fast interpolation
   KINTER  =     0    interpolate to denser k-point grid
   CSHIFT  =0.1000    complex shift for real part using Kramers Kronig
   OMEGAMAX=  -1.0    maximum frequency
   DEG_THRESHOLD= 0.2000000E-02 threshold for treating states as degnerate
   RTIME   =   -0.100 relaxation time in fs
  (WPLASMAI=    0.000 imaginary part of plasma frequency in eV, 0.658/RTIME)
   DFIELD  = 0.0000000 0.0000000 0.0000000 field for delta impulse in time
 
 Orbital magnetization related:
   ORBITALMAG=     F  switch on orbital magnetization
   LCHIMAG   =     F  perturbation theory with respect to B field
   DQ        =  0.001000  dq finite difference perturbation B field
   LLRAUG    =     F  two centre corrections for induced B field



--------------------------------------------------------------------------------------------------------


 Static calculation
 charge density and potential will be updated during run
 spin polarized calculation
 Variant of blocked Davidson
 Davidson routine will perform the subspace rotation
 perform sub-space diagonalisation
    after iterative eigenvector-optimisation
 modified Broyden-mixing scheme, WC =      100.0
 initial mixing is a Kerker type mixing with AMIX =  0.4000 and BMIX =      1.0000
 Hartree-type preconditioning will be used
 using additional bands           64
 real space projection scheme for non local part
 use partial core corrections
 calculate Harris-corrections to forces 
   (improved forces if not selfconsistent)
 use gradient corrections 
 use of overlap-Matrix (Vanderbilt PP)
 Gauss-broadening in eV      SIGMA  =   0.05


--------------------------------------------------------------------------------------------------------


  energy-cutoff  :      500.00
  volume of cell :      579.88
      direct lattice vectors                 reciprocal lattice vectors
     8.338984500  0.000000000  0.000000000     0.119918678  0.000000000  0.000000000
     0.000000000  8.338984500  0.000000000     0.000000000  0.119918678  0.000000000
     0.000000000  0.000000000  8.338984500     0.000000000  0.000000000  0.119918678

  length of vectors
     8.338984500  8.338984500  8.338984500     0.119918678  0.119918678  0.119918678


 
 k-points in units of 2pi/SCALE and weight: Automatic mesh                          
   0.00000000  0.00000000  0.00000000       0.016
   0.02997967  0.00000000  0.00000000       0.031
   0.05995934  0.00000000  0.00000000       0.016
   0.00000000  0.02997967  0.00000000       0.031
   0.02997967  0.02997967  0.00000000       0.031
   0.05995934  0.02997967  0.00000000       0.031
  -0.02997967  0.02997967  0.00000000       0.031
   0.00000000  0.05995934  0.00000000       0.016
   0.02997967  0.05995934  0.00000000       0.031
   0.05995934  0.05995934  0.00000000       0.016
   0.00000000  0.00000000  0.02997967       0.031
   0.02997967  0.00000000  0.02997967       0.031
   0.05995934  0.00000000  0.02997967       0.031
  -0.02997967  0.00000000  0.02997967       0.031
   0.00000000  0.02997967  0.02997967       0.031
   0.02997967  0.02997967  0.02997967       0.031
   0.05995934  0.02997967  0.02997967       0.031
  -0.02997967  0.02997967  0.02997967       0.031
   0.00000000  0.05995934  0.02997967       0.031
   0.02997967  0.05995934  0.02997967       0.031
   0.05995934  0.05995934  0.02997967       0.031
  -0.02997967  0.05995934  0.02997967       0.031
   0.00000000 -0.02997967  0.02997967       0.031
   0.02997967 -0.02997967  0.02997967       0.031
   0.05995934 -0.02997967  0.02997967       0.031
  -0.02997967 -0.02997967  0.02997967       0.031
   0.00000000  0.00000000  0.05995934       0.016
   0.02997967  0.00000000  0.05995934       0.031
   0.05995934  0.00000000  0.05995934       0.016
   0.00000000  0.02997967  0.05995934       0.031
   0.02997967  0.02997967  0.05995934       0.031
   0.05995934  0.02997967  0.05995934       0.031
  -0.02997967  0.02997967  0.05995934       0.031
   0.00000000  0.05995934  0.05995934       0.016
   0.02997967  0.05995934  0.05995934       0.031
   0.05995934  0.05995934  0.05995934       0.016
 
 k-points in reciprocal lattice and weights: Automatic mesh                          
   0.00000000  0.00000000  0.00000000       0.016
   0.25000000  0.00000000  0.00000000       0.031
   0.50000000  0.00000000  0.00000000       0.016
   0.00000000  0.25000000  0.00000000       0.031
   0.25000000  0.25000000  0.00000000       0.031
   0.50000000  0.25000000  0.00000000       0.031
  -0.25000000  0.25000000  0.00000000       0.031
   0.00000000  0.50000000  0.00000000       0.016
   0.25000000  0.50000000  0.00000000       0.031
   0.50000000  0.50000000  0.00000000       0.016
   0.00000000  0.00000000  0.25000000       0.031
   0.25000000  0.00000000  0.25000000       0.031
   0.50000000  0.00000000  0.25000000       0.031
  -0.25000000  0.00000000  0.25000000       0.031
   0.00000000  0.25000000  0.25000000       0.031
   0.25000000  0.25000000  0.25000000       0.031
   0.50000000  0.25000000  0.25000000       0.031
  -0.25000000  0.25000000  0.25000000       0.031
   0.00000000  0.50000000  0.25000000       0.031
   0.25000000  0.50000000  0.25000000       0.031
   0.50000000  0.50000000  0.25000000       0.031
  -0.25000000  0.50000000  0.25000000       0.031
   0.00000000 -0.25000000  0.25000000       0.031
   0.25000000 -0.25000000  0.25000000       0.031
   0.50000000 -0.25000000  0.25000000       0.031
  -0.25000000 -0.25000000  0.25000000       0.031
   0.00000000  0.00000000  0.50000000       0.016
   0.25000000  0.00000000  0.50000000       0.031
   0.50000000  0.00000000  0.50000000       0.016
   0.00000000  0.25000000  0.50000000       0.031
   0.25000000  0.25000000  0.50000000       0.031
   0.50000000  0.25000000  0.50000000       0.031
  -0.25000000  0.25000000  0.50000000       0.031
   0.00000000  0.50000000  0.50000000       0.016
   0.25000000  0.50000000  0.50000000       0.031
   0.50000000  0.50000000  0.50000000       0.016
 
 position of ions in fractional coordinates (direct lattice) 
   0.12310335  0.60435851  0.11597844
   0.36403935  0.82979143  0.11443815
   0.35513416  0.59579571  0.34888314
   0.12041419  0.82979475  0.34936649
   0.10946576  0.11726437  0.58653465
   0.35594450  0.35382863  0.60698089
   0.34692079  0.12452448  0.82918461
   0.11502104  0.36040774  0.84674796
   0.59617803  0.58552353  0.59226436
   0.82720443  0.82015946  0.59372326
   0.82696289  0.60628693  0.83022274
   0.58867027  0.84181874  0.83283438
   0.58742444  0.10680216  0.11755566
   0.83516679  0.36280060  0.12601039
   0.83563485  0.11722125  0.36282640
   0.60259357  0.35276220  0.35610938
   0.81564001  0.12883382  0.13494743
   0.34214473  0.81655650  0.34609990
   0.37768244  0.11419526  0.10241372
   0.09407806  0.10797033  0.37258523
   0.37067580  0.38177528  0.37029988
   0.10657711  0.37335952  0.09554280
   0.60704713  0.12693111  0.33611622
   0.13081285  0.81958458  0.14017223
   0.81876130  0.61219993  0.62327529
   0.34990830  0.34812319  0.81568064
   0.36864510  0.57986639  0.57484324
   0.10831211  0.58663094  0.84420460
   0.37167077  0.84209835  0.85580326
   0.11602769  0.83637956  0.58212108
   0.60334677  0.61526392  0.81255318
   0.13137519  0.34377879  0.59978270
   0.35283390  0.12924756  0.60597623
   0.82258574  0.81031881  0.82937597
   0.85358219  0.10216954  0.58833116
   0.57766896  0.10893188  0.84602982
   0.86307604  0.36119009  0.84442028
   0.57485098  0.37011336  0.58879387
   0.12901497  0.13936115  0.80324874
   0.61804539  0.82658105  0.61708757
   0.34229358  0.59968807  0.13014237
   0.81661648  0.34286284  0.33257737
   0.85711055  0.59185137  0.10743964
   0.58291924  0.58686461  0.38214745
   0.83720282  0.84110540  0.37885509
   0.58073156  0.84726746  0.10568432
   0.12554542  0.60526244  0.35590898
   0.60427177  0.34142639  0.13310030
 
 position of ions in cartesian coordinates  (Angst):
   1.02655693  5.03973625  0.96714241
   3.03571850  6.91961787  0.95429796
   2.96145826  4.96833119  2.90933110
   1.00413206  6.91964556  2.91336174
   0.91283328  0.97786576  4.89110336
   2.96821567  2.95057146  5.06160423
   2.89296709  1.03840771  6.91455761
   0.95915867  3.00543456  7.06101811
   4.97151935  4.88267164  4.93888332
   6.89804492  6.83929702  4.95104906
   6.89603072  5.05581731  6.92321456
   4.90891226  7.01991342  6.94499299
   4.89852330  0.89062156  0.98029483
   6.96444292  3.02538858  1.05079869
   6.96834606  0.97750619  3.02560373
   5.02501844  2.94167852  2.96959060
   6.80160940  1.07434323  1.12532453
   2.85313960  6.80925200  2.88612170
   3.14948801  0.95227250  0.85402642
   0.78451548  0.90036291  3.10698246
   3.09105975  3.18361814  3.08792496
   0.88874487  3.11343925  0.79672993
   5.06215661  1.05847656  2.80286795
   1.09084633  6.83450311  1.16889405
   6.82763779  5.10512573  5.19748298
   2.91787989  2.90299389  6.80194821
   3.07412577  4.83549684  4.79360887
   0.90321301  4.89190632  7.03980907
   3.09935679  7.02224509  7.13653012
   0.96755311  6.97455619  4.85429866
   5.03129936  5.13067629  6.77586837
   1.09553567  2.86676600  5.00157864
   2.94227642  1.07779340  5.05322639
   6.85952974  6.75723600  6.91615336
   7.11800865  0.85199021  4.90608442
   4.81717250  0.90838126  7.05502956
   7.19717772  3.01195856  7.04160763
   4.79367341  3.08636957  4.90994296
   1.07585384  1.16213047  6.69827879
   5.15387093  6.89284656  5.14588368
   2.85438086  5.00078952  1.08525521
   6.80975217  2.85912791  2.77335753
   7.14743159  4.93543940  0.89593749
   4.86095451  4.89385489  3.18672166
   6.98142134  7.01396489  3.15926672
   4.84271148  7.06535022  0.88129991
   1.04692131  5.04727411  2.96791947
   5.03901292  2.84714937  1.10992134
 


--------------------------------------------------------------------------------------------------------


 k-point  1 :   0.0000 0.0000 0.0000  plane waves:   14771
 k-point  2 :   0.2500 0.0000 0.0000  plane waves:   14742
 k-point  3 :   0.5000 0.0000 0.0000  plane waves:   14662
 k-point  4 :   0.0000 0.2500 0.0000  plane waves:   14742
 k-point  5 :   0.2500 0.2500 0.0000  plane waves:   14750
 k-point  6 :   0.5000 0.2500 0.0000  plane waves:   14666
 k-point  7 :  -0.2500 0.2500 0.0000  plane waves:   14750
 k-point  8 :   0.0000 0.5000 0.0000  plane waves:   14662
 k-point  9 :   0.2500 0.5000 0.0000  plane waves:   14666
 k-point 10 :   0.5000 0.5000 0.0000  plane waves:   14676
 k-point 11 :   0.0000 0.0000 0.2500  plane waves:   14742
 k-point 12 :   0.2500 0.0000 0.2500  plane waves:   14750
 k-point 13 :   0.5000 0.0000 0.2500  plane waves:   14666
 k-point 14 :  -0.2500 0.0000 0.2500  plane waves:   14750
 k-point 15 :   0.0000 0.2500 0.2500  plane waves:   14750
 k-point 16 :   0.2500 0.2500 0.2500  plane waves:   14676
 k-point 17 :   0.5000 0.2500 0.2500  plane waves:   14700
 k-point 18 :  -0.2500 0.2500 0.2500  plane waves:   14676
 k-point 19 :   0.0000 0.5000 0.2500  plane waves:   14666
 k-point 20 :   0.2500 0.5000 0.2500  plane waves:   14700
 k-point 21 :   0.5000 0.5000 0.2500  plane waves:   14772
 k-point 22 :  -0.2500 0.5000 0.2500  plane waves:   14700
 k-point 23 :   0.0000-0.2500 0.2500  plane waves:   14750
 k-point 24 :   0.2500-0.2500 0.2500  plane waves:   14676
 k-point 25 :   0.5000-0.2500 0.2500  plane waves:   14700
 k-point 26 :  -0.2500-0.2500 0.2500  plane waves:   14676
 k-point 27 :   0.0000 0.0000 0.5000  plane waves:   14662
 k-point 28 :   0.2500 0.0000 0.5000  plane waves:   14666
 k-point 29 :   0.5000 0.0000 0.5000  plane waves:   14676
 k-point 30 :   0.0000 0.2500 0.5000  plane waves:   14666
 k-point 31 :   0.2500 0.2500 0.5000  plane waves:   14700
 k-point 32 :   0.5000 0.2500 0.5000  plane waves:   14772
 k-point 33 :  -0.2500 0.2500 0.5000  plane waves:   14700
 k-point 34 :   0.0000 0.5000 0.5000  plane waves:   14676
 k-point 35 :   0.2500 0.5000 0.5000  plane waves:   14772
 k-point 36 :   0.5000 0.5000 0.5000  plane waves:   14832

 maximum and minimum number of plane-waves per node :     14832    14662

 maximum number of plane-waves:     14832
 maximum index in each direction: 
   IXMAX=   15   IYMAX=   15   IZMAX=   15
   IXMIN=  -15   IYMIN=  -15   IZMIN=  -15

 The following grids will avoid any aliasing or wrap around errors in the Hartre
 e energy
  - symmetry arguments have not been applied
  - exchange correlation energies might require even more grid points
  - we recommend to set PREC=Normal or Accurate and rely on VASP defaults
 NGX is ok and might be reduce to    64
 NGY is ok and might be reduce to    64
 NGZ is ok and might be reduce to    64

 serial   3D FFT for wavefunctions
 parallel 3D FFT for charge:
    minimum data exchange during FFTs selected (reduces bandwidth)


 total amount of memory used by VASP MPI-rank0   359822. kBytes
=======================================================================

   base      :      30000. kBytes
   nonlr-proj:      25376. kBytes
   fftplans  :       5538. kBytes
   grid      :      31719. kBytes
   one-center:       1492. kBytes
   wavefun   :     265697. kBytes
 
     INWAV:  cpu time    0.0000: real time    0.0000
 Broyden mixing: mesh for mixing (old mesh)
   NGX = 31   NGY = 31   NGZ = 31
  (NGX  =128   NGY  =128   NGZ  =128)
  gives a total of  29791 points

 initial charge density was supplied:
 charge density of overlapping atoms calculated
 number of electron     352.0000000 magnetization      40.0000000
 keeping initial charge density in first step


--------------------------------------------------------------------------------------------------------


 Maximum index for non-local projection operator         5899
 Maximum index for augmentation-charges          996 (set IRDMAX)


--------------------------------------------------------------------------------------------------------


 First call to EWALD:  gamma=   0.213
 Maximum number of real-space cells 3x 3x 3
 Maximum number of reciprocal cells 3x 3x 3

    FEWALD:  cpu time    0.0023: real time    0.0023


--------------------------------------- Iteration      1(   1)  ---------------------------------------


    POTLOK:  cpu time    0.1809: real time    0.1964
    SETDIJ:  cpu time    0.0201: real time    0.0231
     EDDAV:  cpu time  101.7235: real time  101.9645
    --------------------------------------------
      LOOP:  cpu time  101.9283: real time  102.1893

 eigenvalue-minimisations  : 34592
 total energy-change (2. order) : 0.4337835E+04  (-0.1528187E+05)
 number of electron     352.0000000 magnetization      40.0000000
 augmentation part      352.0000000 magnetization      40.0000000

 Free energy of the ion-electron system (eV)
  ---------------------------------------------------
  alpha Z        PSCENC =       945.17957177
  Ewald energy   TEWEN  =    -18630.41688378
  -Hartree energ DENC   =    -12753.16878894
  -exchange      EXHF   =         0.00000000
  -V(xc)+E(xc)   XCENC  =      1409.10526380
  PAW double counting   =     26463.90193480   -27579.55909067
  entropy T*S    EENTRO =        -0.01095331
  eigenvalues    EBANDS =      3469.13171255
  atomic energy  EATOM  =     31013.67235384
  Solvation  Ediel_sol  =         0.00000000
  ---------------------------------------------------
  free energy    TOTEN  =      4337.83512006 eV

  energy without entropy =     4337.84607337  energy(sigma->0) =     4337.84059671


--------------------------------------------------------------------------------------------------------




--------------------------------------- Iteration      1(   2)  ---------------------------------------


     EDDAV:  cpu time  104.3967: real time  104.6462
    --------------------------------------------
      LOOP:  cpu time  104.3964: real time  104.6443

 eigenvalue-minimisations  : 36032
 total energy-change (2. order) :-0.3839264E+04  (-0.3443144E+04)
 number of electron     352.0000000 magnetization      40.0000000
 augmentation part      352.0000000 magnetization      40.0000000

 Free energy of the ion-electron system (eV)
  ---------------------------------------------------
  alpha Z        PSCENC =       945.17957177
  Ewald energy   TEWEN  =    -18630.41688378
  -Hartree energ DENC   =    -12753.16878894
  -exchange      EXHF   =         0.00000000
  -V(xc)+E(xc)   XCENC  =      1409.10526380
  PAW double counting   =     26463.90193480   -27579.55909067
  entropy T*S    EENTRO =        -0.03001661
  eigenvalues    EBANDS =      -370.11300029
  atomic energy  EATOM  =     31013.67235384
  Solvation  Ediel_sol  =         0.00000000
  ---------------------------------------------------
  free energy    TOTEN  =       498.57134391 eV

  energy without entropy =      498.60136052  energy(sigma->0) =      498.58635222


--------------------------------------------------------------------------------------------------------




--------------------------------------- Iteration      1(   3)  ---------------------------------------


     EDDAV:  cpu time  104.1888: real time  104.4361
    --------------------------------------------
      LOOP:  cpu time  104.1891: real time  104.4364

 eigenvalue-minimisations  : 36544
 total energy-change (2. order) :-0.8375707E+03  (-0.7591583E+03)
 number of electron     352.0000000 magnetization      40.0000000
 augmentation part      352.0000000 magnetization      40.0000000

 Free energy of the ion-electron system (eV)
  ---------------------------------------------------
  alpha Z        PSCENC =       945.17957177
  Ewald energy   TEWEN  =    -18630.41688378
  -Hartree energ DENC   =    -12753.16878894
  -exchange      EXHF   =         0.00000000
  -V(xc)+E(xc)   XCENC  =      1409.10526380
  PAW double counting   =     26463.90193480   -27579.55909067
  entropy T*S    EENTRO =        -0.10063137
  eigenvalues    EBANDS =     -1207.61312423
  atomic energy  EATOM  =     31013.67235384
  Solvation  Ediel_sol  =         0.00000000
  ---------------------------------------------------
  free energy    TOTEN  =      -338.99939478 eV

  energy without entropy =     -338.89876341  energy(sigma->0) =     -338.94907910


--------------------------------------------------------------------------------------------------------




--------------------------------------- Iteration      1(   4)  ---------------------------------------


     EDDAV:  cpu time  111.7769: real time  112.0421
    --------------------------------------------
      LOOP:  cpu time  111.7769: real time  112.0420

 eigenvalue-minimisations  : 39088
 total energy-change (2. order) :-0.7280281E+02  (-0.7100568E+02)
 number of electron     352.0000000 magnetization      40.0000000
 augmentation part      352.0000000 magnetization      40.0000000

 Free energy of the ion-electron system (eV)
  ---------------------------------------------------
  alpha Z        PSCENC =       945.17957177
  Ewald energy   TEWEN  =    -18630.41688378
  -Hartree energ DENC   =    -12753.16878894
  -exchange      EXHF   =         0.00000000
  -V(xc)+E(xc)   XCENC  =      1409.10526380
  PAW double counting   =     26463.90193480   -27579.55909067
  entropy T*S    EENTRO =        -0.10385694
  eigenvalues    EBANDS =     -1280.41270606
  atomic energy  EATOM  =     31013.67235384
  Solvation  Ediel_sol  =         0.00000000
  ---------------------------------------------------
  free energy    TOTEN  =      -411.80220218 eV

  energy without entropy =     -411.69834525  energy(sigma->0) =     -411.75027371


--------------------------------------------------------------------------------------------------------




--------------------------------------- Iteration      1(   5)  ---------------------------------------


     EDDAV:  cpu time  108.7336: real time  108.9915
    CHARGE:  cpu time    4.8929: real time    4.9087
    MIXING:  cpu time    0.0045: real time    0.0093
    --------------------------------------------
      LOOP:  cpu time  113.6274: real time  113.9059

 eigenvalue-minimisations  : 38672
 total energy-change (2. order) :-0.1898453E+01  (-0.1888974E+01)
 number of electron     352.0000001 magnetization      47.3345972
 augmentation part       98.8098556 magnetization      33.7562179

 Broyden mixing:
  rms(total) = 0.12264E+02    rms(broyden)= 0.12262E+02
  rms(prec ) = 0.16152E+02
  weight for this iteration     100.00

 Free energy of the ion-electron system (eV)
  ---------------------------------------------------
  alpha Z        PSCENC =       945.17957177
  Ewald energy   TEWEN  =    -18630.41688378
  -Hartree energ DENC   =    -12753.16878894
  -exchange      EXHF   =         0.00000000
  -V(xc)+E(xc)   XCENC  =      1409.10526380
  PAW double counting   =     26463.90193480   -27579.55909067
  entropy T*S    EENTRO =        -0.10378655
  eigenvalues    EBANDS =     -1282.31122911
  atomic energy  EATOM  =     31013.67235384
  Solvation  Ediel_sol  =         0.00000000
  ---------------------------------------------------
  free energy    TOTEN  =      -413.70065484 eV

  energy without entropy =     -413.59686829  energy(sigma->0) =     -413.64876157


--------------------------------------------------------------------------------------------------------




--------------------------------------- Iteration      1(   6)  ---------------------------------------


    POTLOK:  cpu time    0.1565: real time    0.1569
    SETDIJ:  cpu time    0.0187: real time    0.0187
     EDDAV:  cpu time  146.3179: real time  146.6646
    CHARGE:  cpu time    4.3274: real time    4.3377
    MIXING:  cpu time    0.0048: real time    0.0277
    --------------------------------------------
      LOOP:  cpu time  150.8253: real time  151.2056

 eigenvalue-minimisations  : 55024
 total energy-change (2. order) :-0.1489994E+03  (-0.1211651E+03)
 number of electron     352.0000008 magnetization      39.7798122
 augmentation part      138.8459736 magnetization      37.9438058

 Broyden mixing:
  rms(total) = 0.24476E+02    rms(broyden)= 0.24474E+02
  rms(prec ) = 0.27870E+02
  weight for this iteration     100.00

 eigenvalues of (default mixing * dielectric matrix)
  average eigenvalue GAMMA=   0.2283
  0.2283

 Free energy of the ion-electron system (eV)
  ---------------------------------------------------
  alpha Z        PSCENC =       945.17957177
  Ewald energy   TEWEN  =    -18630.41688378
  -Hartree energ DENC   =    -12073.97112458
  -exchange      EXHF   =         0.00000000
  -V(xc)+E(xc)   XCENC  =      1428.76235888
  PAW double counting   =     28413.98589842   -29318.09984120
  entropy T*S    EENTRO =        -0.05073405
  eigenvalues    EBANDS =     -2341.76162084
  atomic energy  EATOM  =     31013.67235384
  Solvation  Ediel_sol  =         0.00000000
  ---------------------------------------------------
  free energy    TOTEN  =      -562.70002155 eV

  energy without entropy =     -562.64928750  energy(sigma->0) =     -562.67465452


--------------------------------------------------------------------------------------------------------




--------------------------------------- Iteration      1(   7)  ---------------------------------------


    POTLOK:  cpu time    0.1568: real time    0.1572
    SETDIJ:  cpu time    0.0186: real time    0.0186
     EDDAV:  cpu time  121.2975: real time  121.5849
    CHARGE:  cpu time    4.5599: real time    4.5707
    MIXING:  cpu time    0.0049: real time    0.0204
    --------------------------------------------
      LOOP:  cpu time  126.0377: real time  126.3518

 eigenvalue-minimisations  : 45888
 total energy-change (2. order) : 0.2209369E+03  (-0.3327419E+02)
 number of electron     352.0000012 magnetization      31.9469971
 augmentation part      128.1963913 magnetization      30.5778105

 Broyden mixing:
  rms(total) = 0.10803E+02    rms(broyden)= 0.10802E+02
  rms(prec ) = 0.13960E+02
  weight for this iteration     100.00

 eigenvalues of (default mixing * dielectric matrix)
  average eigenvalue GAMMA=   0.4969
  0.4969  0.4969

 Free energy of the ion-electron system (eV)
  ---------------------------------------------------
  alpha Z        PSCENC =       945.17957177
  Ewald energy   TEWEN  =    -18630.41688378
  -Hartree energ DENC   =    -12342.28146752
  -exchange      EXHF   =         0.00000000
  -V(xc)+E(xc)   XCENC  =      1409.33848907
  PAW double counting   =     29705.64172441   -30756.57473043
  entropy T*S    EENTRO =        -0.03650222
  eigenvalues    EBANDS =     -1686.28567306
  atomic energy  EATOM  =     31013.67235384
  Solvation  Ediel_sol  =         0.00000000
  ---------------------------------------------------
  free energy    TOTEN  =      -341.76311791 eV

  energy without entropy =     -341.72661570  energy(sigma->0) =     -341.74486681


--------------------------------------------------------------------------------------------------------




--------------------------------------- Iteration      1(   8)  ---------------------------------------


    POTLOK:  cpu time    0.1533: real time    0.1536
    SETDIJ:  cpu time    0.0182: real time    0.0182
     EDDAV:  cpu time  137.2048: real time  137.5299
    CHARGE:  cpu time    4.1299: real time    4.1397
    MIXING:  cpu time    0.0036: real time    0.0051
    --------------------------------------------
      LOOP:  cpu time  141.5098: real time  141.8465

 eigenvalue-minimisations  : 55616
 total energy-change (2. order) :-0.4907270E+01  (-0.2033392E+02)
 number of electron     352.0000004 magnetization      26.5434255
 augmentation part      126.7311463 magnetization      22.2211173

 Broyden mixing:
  rms(total) = 0.10658E+02    rms(broyden)= 0.10657E+02
  rms(prec ) = 0.15950E+02
  weight for this iteration     100.00

 eigenvalues of (default mixing * dielectric matrix)
  average eigenvalue GAMMA=   0.4544
  0.5823  0.5823  0.1986

 Free energy of the ion-electron system (eV)
  ---------------------------------------------------
  alpha Z        PSCENC =       945.17957177
  Ewald energy   TEWEN  =    -18630.41688378
  -Hartree energ DENC   =    -12367.53263361
  -exchange      EXHF   =         0.00000000
  -V(xc)+E(xc)   XCENC  =      1400.94457144
  PAW double counting   =     30294.28531393   -31408.89559599
  entropy T*S    EENTRO =        -0.03426235
  eigenvalues    EBANDS =     -1593.87282348
  atomic energy  EATOM  =     31013.67235384
  Solvation  Ediel_sol  =         0.00000000
  ---------------------------------------------------
  free energy    TOTEN  =      -346.67038824 eV

  energy without entropy =     -346.63612589  energy(sigma->0) =     -346.65325706


--------------------------------------------------------------------------------------------------------




--------------------------------------- Iteration      1(   9)  ---------------------------------------


    POTLOK:  cpu time    0.1363: real time    0.1367
    SETDIJ:  cpu time    0.0174: real time    0.0175
     EDDAV:  cpu time  128.7092: real time  129.0142
    CHARGE:  cpu time    3.0196: real time    3.0268
    MIXING:  cpu time    0.0034: real time    0.0034
    --------------------------------------------
      LOOP:  cpu time  131.8860: real time  132.1986

 eigenvalue-minimisations  : 51584
 total energy-change (2. order) : 0.4198988E+02  (-0.2421544E+02)
 number of electron     352.0000002 magnetization      24.1382188
 augmentation part      108.6357668 magnetization      19.1787166

 Broyden mixing:
  rms(total) = 0.70373E+01    rms(broyden)= 0.70346E+01
  rms(prec ) = 0.10946E+02
  weight for this iteration     100.00

 eigenvalues of (default mixing * dielectric matrix)
  average eigenvalue GAMMA=   0.4126
  0.6125  0.6125  0.2126  0.2126

 Free energy of the ion-electron system (eV)
  ---------------------------------------------------
  alpha Z        PSCENC =       945.17957177
  Ewald energy   TEWEN  =    -18630.41688378
  -Hartree energ DENC   =    -12494.94625037
  -exchange      EXHF   =         0.00000000
  -V(xc)+E(xc)   XCENC  =      1398.80198003
  PAW double counting   =     31024.23565179   -32178.37510069
  entropy T*S    EENTRO =        -0.04268296
  eigenvalues    EBANDS =     -1382.78915216
  atomic energy  EATOM  =     31013.67235384
  Solvation  Ediel_sol  =         0.00000000
  ---------------------------------------------------
  free energy    TOTEN  =      -304.68051254 eV

  energy without entropy =     -304.63782959  energy(sigma->0) =     -304.65917106


--------------------------------------------------------------------------------------------------------




--------------------------------------- Iteration      1(  10)  ---------------------------------------


    POTLOK:  cpu time    0.1302: real time    0.1305
    SETDIJ:  cpu time    0.0167: real time    0.0167
     EDDAV:  cpu time  116.9679: real time  117.2451
    CHARGE:  cpu time    4.6865: real time    4.6976
    MIXING:  cpu time    0.0046: real time    0.0047
    --------------------------------------------
      LOOP:  cpu time  121.8059: real time  122.0946

 eigenvalue-minimisations  : 45792
 total energy-change (2. order) : 0.7277448E+01  (-0.1932128E+02)
 number of electron     352.0000003 magnetization      20.8505257
 augmentation part      109.5732966 magnetization      17.3456193

 Broyden mixing:
  rms(total) = 0.60563E+01    rms(broyden)= 0.60549E+01
  rms(prec ) = 0.88609E+01
  weight for this iteration     100.00

 eigenvalues of (default mixing * dielectric matrix)
  average eigenvalue GAMMA=   0.3634
  0.6180  0.6180  0.2543  0.2543  0.0726

 Free energy of the ion-electron system (eV)
  ---------------------------------------------------
  alpha Z        PSCENC =       945.17957177
  Ewald energy   TEWEN  =    -18630.41688378
  -Hartree energ DENC   =    -12460.82747774
  -exchange      EXHF   =         0.00000000
  -V(xc)+E(xc)   XCENC  =      1397.05410931
  PAW double counting   =     31327.33157530   -32481.78046299
  entropy T*S    EENTRO =        -0.06697631
  eigenvalues    EBANDS =     -1407.54887372
  atomic energy  EATOM  =     31013.67235384
  Solvation  Ediel_sol  =         0.00000000
  ---------------------------------------------------
  free energy    TOTEN  =      -297.40306433 eV

  energy without entropy =     -297.33608802  energy(sigma->0) =     -297.36957618


--------------------------------------------------------------------------------------------------------




--------------------------------------- Iteration      1(  11)  ---------------------------------------


    POTLOK:  cpu time    0.1541: real time    0.1544
    SETDIJ:  cpu time    0.0182: real time    0.0182
     EDDAV:  cpu time  125.8242: real time  126.1223
    CHARGE:  cpu time    4.5650: real time    4.5759
    MIXING:  cpu time    0.0042: real time    0.0042
    --------------------------------------------
      LOOP:  cpu time  130.5657: real time  130.8751

 eigenvalue-minimisations  : 49744
 total energy-change (2. order) : 0.1070825E+02  (-0.3935333E+01)
 number of electron     352.0000001 magnetization      18.5411750
 augmentation part      112.9245467 magnetization      17.0889482

 Broyden mixing:
  rms(total) = 0.36933E+01    rms(broyden)= 0.36924E+01
  rms(prec ) = 0.52933E+01
  weight for this iteration     100.00

 eigenvalues of (default mixing * dielectric matrix)
  average eigenvalue GAMMA=   0.3751
  0.6717  0.6717  0.3007  0.3007  0.1914  0.1141

 Free energy of the ion-electron system (eV)
  ---------------------------------------------------
  alpha Z        PSCENC =       945.17957177
  Ewald energy   TEWEN  =    -18630.41688378
  -Hartree energ DENC   =    -12415.18692081
  -exchange      EXHF   =         0.00000000
  -V(xc)+E(xc)   XCENC  =      1395.03450493
  PAW double counting   =     31677.83416569   -32829.03021663
  entropy T*S    EENTRO =        -0.05856538
  eigenvalues    EBANDS =     -1443.72282528
  atomic energy  EATOM  =     31013.67235384
  Solvation  Ediel_sol  =         0.00000000
  ---------------------------------------------------
  free energy    TOTEN  =      -286.69481565 eV

  energy without entropy =     -286.63625027  energy(sigma->0) =     -286.66553296


--------------------------------------------------------------------------------------------------------




--------------------------------------- Iteration      1(  12)  ---------------------------------------


    POTLOK:  cpu time    0.1472: real time    0.1476
    SETDIJ:  cpu time    0.0184: real time    0.0184
     EDDAV:  cpu time  120.9120: real time  121.1985
    CHARGE:  cpu time    3.8306: real time    3.8397
    MIXING:  cpu time    0.0047: real time    0.0047
    --------------------------------------------
      LOOP:  cpu time  124.9129: real time  125.2089

 eigenvalue-minimisations  : 43984
 total energy-change (2. order) : 0.1186609E+01  (-0.2242414E+01)
 number of electron     352.0000007 magnetization      15.4647219
 augmentation part      113.6623553 magnetization      13.8681597

 Broyden mixing:
  rms(total) = 0.40501E+01    rms(broyden)= 0.40491E+01
  rms(prec ) = 0.63324E+01
  weight for this iteration     100.00

 eigenvalues of (default mixing * dielectric matrix)
  average eigenvalue GAMMA=   0.3933
  0.7553  0.7553  0.3935  0.3935  0.2258  0.1388  0.0906

 Free energy of the ion-electron system (eV)
  ---------------------------------------------------
  alpha Z        PSCENC =       945.17957177
  Ewald energy   TEWEN  =    -18630.41688378
  -Hartree energ DENC   =    -12403.29229277
  -exchange      EXHF   =         0.00000000
  -V(xc)+E(xc)   XCENC  =      1394.26763495
  PAW double counting   =     31808.86292547   -32958.14128309
  entropy T*S    EENTRO =        -0.03486602
  eigenvalues    EBANDS =     -1455.60536671
  atomic energy  EATOM  =     31013.67235384
  Solvation  Ediel_sol  =         0.00000000
  ---------------------------------------------------
  free energy    TOTEN  =      -285.50820634 eV

  energy without entropy =     -285.47334032  energy(sigma->0) =     -285.49077333


--------------------------------------------------------------------------------------------------------




--------------------------------------- Iteration      1(  13)  ---------------------------------------


    POTLOK:  cpu time    0.1529: real time    0.1533
    SETDIJ:  cpu time    0.0180: real time    0.0181
     EDDAV:  cpu time  122.7312: real time  123.0221
    CHARGE:  cpu time    4.6701: real time    4.6812
    MIXING:  cpu time    0.0047: real time    0.0047
    --------------------------------------------
      LOOP:  cpu time  127.5769: real time  127.8793

 eigenvalue-minimisations  : 47296
 total energy-change (2. order) : 0.1577775E+01  (-0.3534001E+01)
 number of electron     352.0000003 magnetization      14.2662191
 augmentation part      113.2181158 magnetization      13.1233460

 Broyden mixing:
  rms(total) = 0.37124E+01    rms(broyden)= 0.37117E+01
  rms(prec ) = 0.55288E+01
  weight for this iteration     100.00

 eigenvalues of (default mixing * dielectric matrix)
  average eigenvalue GAMMA=   0.3873
  0.7831  0.7831  0.4472  0.4472  0.2224  0.2224  0.1041  0.0886

 Free energy of the ion-electron system (eV)
  ---------------------------------------------------
  alpha Z        PSCENC =       945.17957177
  Ewald energy   TEWEN  =    -18630.41688378
  -Hartree energ DENC   =    -12407.85785987
  -exchange      EXHF   =         0.00000000
  -V(xc)+E(xc)   XCENC  =      1394.06964041
  PAW double counting   =     31892.20333957   -33040.16556410
  entropy T*S    EENTRO =        -0.03118452
  eigenvalues    EBANDS =     -1450.58384471
  atomic energy  EATOM  =     31013.67235384
  Solvation  Ediel_sol  =         0.00000000
  ---------------------------------------------------
  free energy    TOTEN  =      -283.93043140 eV

  energy without entropy =     -283.89924688  energy(sigma->0) =     -283.91483914


--------------------------------------------------------------------------------------------------------




--------------------------------------- Iteration      1(  14)  ---------------------------------------


    POTLOK:  cpu time    0.1537: real time    0.1541
    SETDIJ:  cpu time    0.0180: real time    0.0181
     EDDAV:  cpu time  119.1396: real time  119.4220
    CHARGE:  cpu time    2.9842: real time    2.9913
    MIXING:  cpu time    0.0040: real time    0.0040
    --------------------------------------------
      LOOP:  cpu time  122.2996: real time  122.5894

 eigenvalue-minimisations  : 46880
 total energy-change (2. order) : 0.2273423E+01  (-0.2843007E+01)
 number of electron     352.0000003 magnetization       9.8603811
 augmentation part      113.8607492 magnetization      10.3166430

 Broyden mixing:
  rms(total) = 0.19815E+01    rms(broyden)= 0.19805E+01
  rms(prec ) = 0.25094E+01
  weight for this iteration     100.00

 eigenvalues of (default mixing * dielectric matrix)
  average eigenvalue GAMMA=   0.4331
  1.0205  1.0205  0.4831  0.4831  0.3613  0.2288  0.0992  0.1007  0.1007

 Free energy of the ion-electron system (eV)
  ---------------------------------------------------
  alpha Z        PSCENC =       945.17957177
  Ewald energy   TEWEN  =    -18630.41688378
  -Hartree energ DENC   =    -12406.81874875
  -exchange      EXHF   =         0.00000000
  -V(xc)+E(xc)   XCENC  =      1393.89151800
  PAW double counting   =     31943.25995461   -33091.39678991
  entropy T*S    EENTRO =        -0.01007639
  eigenvalues    EBANDS =     -1449.01790801
  atomic energy  EATOM  =     31013.67235384
  Solvation  Ediel_sol  =         0.00000000
  ---------------------------------------------------
  free energy    TOTEN  =      -281.65700863 eV

  energy without entropy =     -281.64693224  energy(sigma->0) =     -281.65197043


--------------------------------------------------------------------------------------------------------




--------------------------------------- Iteration      1(  15)  ---------------------------------------


    POTLOK:  cpu time    0.1295: real time    0.1298
    SETDIJ:  cpu time    0.0170: real time    0.0171
     EDDAV:  cpu time  121.2470: real time  121.5343
    CHARGE:  cpu time    3.9898: real time    3.9993
    MIXING:  cpu time    0.0046: real time    0.0046
    --------------------------------------------
      LOOP:  cpu time  125.3879: real time  125.6850

 eigenvalue-minimisations  : 47536
 total energy-change (2. order) : 0.3295885E+00  (-0.1740829E+00)
 number of electron     352.0000004 magnetization       4.7824815
 augmentation part      114.6320037 magnetization       5.0183271

 Broyden mixing:
  rms(total) = 0.14212E+01    rms(broyden)= 0.14208E+01
  rms(prec ) = 0.18444E+01
  weight for this iteration     100.00

 eigenvalues of (default mixing * dielectric matrix)
  average eigenvalue GAMMA=   0.4723
  1.1765  1.1765  0.4947  0.4947  0.4196  0.4196  0.2320  0.1100  0.0997  0.0997

 Free energy of the ion-electron system (eV)
  ---------------------------------------------------
  alpha Z        PSCENC =       945.17957177
  Ewald energy   TEWEN  =    -18630.41688378
  -Hartree energ DENC   =    -12397.79392198
  -exchange      EXHF   =         0.00000000
  -V(xc)+E(xc)   XCENC  =      1393.19532119
  PAW double counting   =     32119.06191930   -33265.41103264
  entropy T*S    EENTRO =        -0.00397196
  eigenvalues    EBANDS =     -1458.81077586
  atomic energy  EATOM  =     31013.67235384
  Solvation  Ediel_sol  =         0.00000000
  ---------------------------------------------------
  free energy    TOTEN  =      -281.32742011 eV

  energy without entropy =     -281.32344816  energy(sigma->0) =     -281.32543414


--------------------------------------------------------------------------------------------------------




--------------------------------------- Iteration      1(  16)  ---------------------------------------


    POTLOK:  cpu time    0.1353: real time    0.1357
    SETDIJ:  cpu time    0.0165: real time    0.0166
     EDDAV:  cpu time  111.1754: real time  111.4388
    CHARGE:  cpu time    4.7172: real time    4.7284
    MIXING:  cpu time    0.0062: real time    0.0309
    --------------------------------------------
      LOOP:  cpu time  116.0508: real time  116.3504

 eigenvalue-minimisations  : 43328
 total energy-change (2. order) :-0.1149817E+01  (-0.2680156E+00)
 number of electron     352.0000004 magnetization       1.5099191
 augmentation part      115.0488488 magnetization       1.4530326

 Broyden mixing:
  rms(total) = 0.16281E+01    rms(broyden)= 0.16275E+01
  rms(prec ) = 0.23916E+01
  weight for this iteration     100.00

 eigenvalues of (default mixing * dielectric matrix)
  average eigenvalue GAMMA=   0.4597
  0.9769  0.9769  0.7336  0.7336  0.4564  0.4564  0.2330  0.1807  0.1090  0.0998
  0.0998

 Free energy of the ion-electron system (eV)
  ---------------------------------------------------
  alpha Z        PSCENC =       945.17957177
  Ewald energy   TEWEN  =    -18630.41688378
  -Hartree energ DENC   =    -12390.90805172
  -exchange      EXHF   =         0.00000000
  -V(xc)+E(xc)   XCENC  =      1392.68583810
  PAW double counting   =     32385.77678467   -33532.14704190
  entropy T*S    EENTRO =        -0.00022848
  eigenvalues    EBANDS =     -1466.31957922
  atomic energy  EATOM  =     31013.67235384
  Solvation  Ediel_sol  =         0.00000000
  ---------------------------------------------------
  free energy    TOTEN  =      -282.47723672 eV

  energy without entropy =     -282.47700824  energy(sigma->0) =     -282.47712248


--------------------------------------------------------------------------------------------------------




--------------------------------------- Iteration      1(  17)  ---------------------------------------


    POTLOK:  cpu time    0.1578: real time    0.1582
    SETDIJ:  cpu time    0.0187: real time    0.0188
     EDDAV:  cpu time  110.9981: real time  111.2612
    CHARGE:  cpu time    4.4474: real time    4.4580
    MIXING:  cpu time    0.0052: real time    0.0052
    --------------------------------------------
      LOOP:  cpu time  115.6272: real time  115.9013

 eigenvalue-minimisations  : 42944
 total energy-change (2. order) : 0.1623693E+00  (-0.1575224E+00)
 number of electron     352.0000006 magnetization       0.5023829
 augmentation part      115.2841095 magnetization       0.3194481

 Broyden mixing:
  rms(total) = 0.10016E+01    rms(broyden)= 0.10009E+01
  rms(prec ) = 0.14470E+01
  weight for this iteration     100.00

 eigenvalues of (default mixing * dielectric matrix)
  average eigenvalue GAMMA=   0.4782
  1.4932  0.8575  0.8575  0.5625  0.4632  0.4632  0.3373  0.2308  0.1647  0.1089
  0.0999  0.0999

 Free energy of the ion-electron system (eV)
  ---------------------------------------------------
  alpha Z        PSCENC =       945.17957177
  Ewald energy   TEWEN  =    -18630.41688378
  -Hartree energ DENC   =    -12387.16306811
  -exchange      EXHF   =         0.00000000
  -V(xc)+E(xc)   XCENC  =      1392.37504935
  PAW double counting   =     32671.17147288   -33821.00906512
  entropy T*S    EENTRO =        -0.00002207
  eigenvalues    EBANDS =     -1466.12427615
  atomic energy  EATOM  =     31013.67235384
  Solvation  Ediel_sol  =         0.00000000
  ---------------------------------------------------
  free energy    TOTEN  =      -282.31486740 eV

  energy without entropy =     -282.31484533  energy(sigma->0) =     -282.31485637


--------------------------------------------------------------------------------------------------------




--------------------------------------- Iteration      1(  18)  ---------------------------------------


    POTLOK:  cpu time    0.1477: real time    0.1481
    SETDIJ:  cpu time    0.0178: real time    0.0179
     EDDAV:  cpu time  111.7728: real time  112.0376
    CHARGE:  cpu time    2.8446: real time    2.8513
    MIXING:  cpu time    0.0046: real time    0.0046
    --------------------------------------------
      LOOP:  cpu time  114.7875: real time  115.0594

 eigenvalue-minimisations  : 43984
 total energy-change (2. order) : 0.4067505E+00  (-0.9195956E-01)
 number of electron     352.0000004 magnetization      -0.1051764
 augmentation part      115.5364226 magnetization      -0.2905890

 Broyden mixing:
  rms(total) = 0.53609E+00    rms(broyden)= 0.53563E+00
  rms(prec ) = 0.67342E+00
  weight for this iteration     100.00

 eigenvalues of (default mixing * dielectric matrix)
  average eigenvalue GAMMA=   0.5236
  1.9620  0.9654  0.9654  0.5341  0.5341  0.4615  0.4615  0.2318  0.2192  0.1629
  0.1093  0.0997  0.0997

 Free energy of the ion-electron system (eV)
  ---------------------------------------------------
  alpha Z        PSCENC =       945.17957177
  Ewald energy   TEWEN  =    -18630.41688378
  -Hartree energ DENC   =    -12382.28547075
  -exchange      EXHF   =         0.00000000
  -V(xc)+E(xc)   XCENC  =      1392.20711090
  PAW double counting   =     32824.59602635   -33976.43416092
  entropy T*S    EENTRO =        -0.00001374
  eigenvalues    EBANDS =     -1468.42665052
  atomic energy  EATOM  =     31013.67235384
  Solvation  Ediel_sol  =         0.00000000
  ---------------------------------------------------
  free energy    TOTEN  =      -281.90811685 eV

  energy without entropy =     -281.90810311  energy(sigma->0) =     -281.90810998


--------------------------------------------------------------------------------------------------------




--------------------------------------- Iteration      1(  19)  ---------------------------------------


    POTLOK:  cpu time    0.1256: real time    0.1259
    SETDIJ:  cpu time    0.0162: real time    0.0162
     EDDAV:  cpu time  123.2256: real time  123.5175
    CHARGE:  cpu time    2.8579: real time    2.8647
    MIXING:  cpu time    0.0050: real time    0.0050
    --------------------------------------------
      LOOP:  cpu time  126.2302: real time  126.5293

 eigenvalue-minimisations  : 48352
 total energy-change (2. order) :-0.3847946E-01  (-0.3972951E-01)
 number of electron     352.0000005 magnetization      -0.0556896
 augmentation part      115.7497785 magnetization      -0.1961878

 Broyden mixing:
  rms(total) = 0.41020E+00    rms(broyden)= 0.41004E+00
  rms(prec ) = 0.53043E+00
  weight for this iteration     100.00

 eigenvalues of (default mixing * dielectric matrix)
  average eigenvalue GAMMA=   0.5323
  2.0740  1.0303  1.0303  0.5501  0.5501  0.4551  0.4551  0.3926  0.2264  0.2199
  0.1598  0.1093  0.0998  0.0998

 Free energy of the ion-electron system (eV)
  ---------------------------------------------------
  alpha Z        PSCENC =       945.17957177
  Ewald energy   TEWEN  =    -18630.41688378
  -Hartree energ DENC   =    -12377.28157635
  -exchange      EXHF   =         0.00000000
  -V(xc)+E(xc)   XCENC  =      1392.05310257
  PAW double counting   =     32984.06344802   -34138.07308784
  entropy T*S    EENTRO =        -0.00002504
  eigenvalues    EBANDS =     -1471.14349951
  atomic energy  EATOM  =     31013.67235384
  Solvation  Ediel_sol  =         0.00000000
  ---------------------------------------------------
  free energy    TOTEN  =      -281.94659632 eV

  energy without entropy =     -281.94657128  energy(sigma->0) =     -281.94658380


--------------------------------------------------------------------------------------------------------




--------------------------------------- Iteration      1(  20)  ---------------------------------------


    POTLOK:  cpu time    0.1257: real time    0.1260
    SETDIJ:  cpu time    0.0161: real time    0.0162
     EDDAV:  cpu time  121.3385: real time  121.6260
    CHARGE:  cpu time    3.2971: real time    3.3049
    MIXING:  cpu time    0.0052: real time    0.0052
    --------------------------------------------
      LOOP:  cpu time  124.7827: real time  125.0784

 eigenvalue-minimisations  : 47248
 total energy-change (2. order) : 0.1662025E-01  (-0.1582029E-01)
 number of electron     352.0000005 magnetization       0.1438301
 augmentation part      115.7175099 magnetization       0.0634152

 Broyden mixing:
  rms(total) = 0.26723E+00    rms(broyden)= 0.26712E+00
  rms(prec ) = 0.36216E+00
  weight for this iteration     100.00

 eigenvalues of (default mixing * dielectric matrix)
  average eigenvalue GAMMA=   0.5592
  2.2030  1.1210  1.1210  0.6880  0.6880  0.4588  0.4588  0.4803  0.2696  0.2319
  0.0998  0.0998  0.1093  0.1981  0.1607

 Free energy of the ion-electron system (eV)
  ---------------------------------------------------
  alpha Z        PSCENC =       945.17957177
  Ewald energy   TEWEN  =    -18630.41688378
  -Hartree energ DENC   =    -12375.77906461
  -exchange      EXHF   =         0.00000000
  -V(xc)+E(xc)   XCENC  =      1391.99892587
  PAW double counting   =     33058.18418964   -34213.76432736
  entropy T*S    EENTRO =        -0.00002543
  eigenvalues    EBANDS =     -1471.00471600
  atomic energy  EATOM  =     31013.67235384
  Solvation  Ediel_sol  =         0.00000000
  ---------------------------------------------------
  free energy    TOTEN  =      -281.92997606 eV

  energy without entropy =     -281.92995063  energy(sigma->0) =     -281.92996335


--------------------------------------------------------------------------------------------------------




--------------------------------------- Iteration      1(  21)  ---------------------------------------


    POTLOK:  cpu time    0.1352: real time    0.1355
    SETDIJ:  cpu time    0.0173: real time    0.0173
     EDDAV:  cpu time  123.1730: real time  123.4649
    CHARGE:  cpu time    4.7088: real time    4.7200
    MIXING:  cpu time    0.0067: real time    0.0068
    --------------------------------------------
      LOOP:  cpu time  128.0411: real time  128.3445

 eigenvalue-minimisations  : 45552
 total energy-change (2. order) :-0.5898350E-02  (-0.9142777E-02)
 number of electron     352.0000005 magnetization       0.2584474
 augmentation part      115.6311300 magnetization       0.2473416

 Broyden mixing:
  rms(total) = 0.23961E+00    rms(broyden)= 0.23952E+00
  rms(prec ) = 0.33026E+00
  weight for this iteration     100.00

 eigenvalues of (default mixing * dielectric matrix)
  average eigenvalue GAMMA=   0.5645
  2.3131  1.1322  1.1322  0.7961  0.7961  0.4603  0.4603  0.4677  0.3762  0.0998
  0.0998  0.1093  0.2309  0.2102  0.1596  0.1877

 Free energy of the ion-electron system (eV)
  ---------------------------------------------------
  alpha Z        PSCENC =       945.17957177
  Ewald energy   TEWEN  =    -18630.41688378
  -Hartree energ DENC   =    -12375.51425361
  -exchange      EXHF   =         0.00000000
  -V(xc)+E(xc)   XCENC  =      1391.96649566
  PAW double counting   =     33103.80041534   -34260.66465374
  entropy T*S    EENTRO =        -0.00000688
  eigenvalues    EBANDS =     -1469.95891302
  atomic energy  EATOM  =     31013.67235384
  Solvation  Ediel_sol  =         0.00000000
  ---------------------------------------------------
  free energy    TOTEN  =      -281.93587441 eV

  energy without entropy =     -281.93586754  energy(sigma->0) =     -281.93587097


--------------------------------------------------------------------------------------------------------




--------------------------------------- Iteration      1(  22)  ---------------------------------------


    POTLOK:  cpu time    0.1573: real time    0.1576
    SETDIJ:  cpu time    0.0189: real time    0.0190
     EDDAV:  cpu time  129.6134: real time  129.9205
    CHARGE:  cpu time    4.6095: real time    4.6204
    MIXING:  cpu time    0.0069: real time    0.0069
    --------------------------------------------
      LOOP:  cpu time  134.4060: real time  134.7244

 eigenvalue-minimisations  : 47424
 total energy-change (2. order) : 0.1564180E-01  (-0.5036346E-02)
 number of electron     352.0000005 magnetization       0.2104064
 augmentation part      115.5762118 magnetization       0.2419119

 Broyden mixing:
  rms(total) = 0.15628E+00    rms(broyden)= 0.15619E+00
  rms(prec ) = 0.20770E+00
  weight for this iteration     100.00

 eigenvalues of (default mixing * dielectric matrix)
  average eigenvalue GAMMA=   0.5778
  2.4765  1.0989  1.0989  0.9312  0.9312  0.4607  0.4607  0.4997  0.4997  0.2725
  0.0998  0.0998  0.1093  0.2248  0.2215  0.1602  0.1782

 Free energy of the ion-electron system (eV)
  ---------------------------------------------------
  alpha Z        PSCENC =       945.17957177
  Ewald energy   TEWEN  =    -18630.41688378
  -Hartree energ DENC   =    -12375.59873503
  -exchange      EXHF   =         0.00000000
  -V(xc)+E(xc)   XCENC  =      1391.95080617
  PAW double counting   =     33134.01324768   -34291.63841474
  entropy T*S    EENTRO =        -0.00000886
  eigenvalues    EBANDS =     -1469.08216966
  atomic energy  EATOM  =     31013.67235384
  Solvation  Ediel_sol  =         0.00000000
  ---------------------------------------------------
  free energy    TOTEN  =      -281.92023262 eV

  energy without entropy =     -281.92022376  energy(sigma->0) =     -281.92022819


--------------------------------------------------------------------------------------------------------




--------------------------------------- Iteration      1(  23)  ---------------------------------------


    POTLOK:  cpu time    0.1553: real time    0.1557
    SETDIJ:  cpu time    0.0186: real time    0.0186
     EDDAV:  cpu time  134.3528: real time  134.6711
    CHARGE:  cpu time    4.5466: real time    4.5574
    MIXING:  cpu time    0.0070: real time    0.0071
    --------------------------------------------
      LOOP:  cpu time  139.0804: real time  139.4099

 eigenvalue-minimisations  : 49952
 total energy-change (2. order) : 0.5135957E-02  (-0.2280672E-02)
 number of electron     352.0000005 magnetization       0.1805317
 augmentation part      115.5778605 magnetization       0.2241508

 Broyden mixing:
  rms(total) = 0.11354E+00    rms(broyden)= 0.11349E+00
  rms(prec ) = 0.14846E+00
  weight for this iteration     100.00

 eigenvalues of (default mixing * dielectric matrix)
  average eigenvalue GAMMA=   0.5878
  2.4993  1.0831  1.0831  1.0739  1.0739  0.5648  0.5648  0.4598  0.4598  0.3669
  0.2698  0.0998  0.0998  0.1093  0.2296  0.2084  0.1598  0.1748

 Free energy of the ion-electron system (eV)
  ---------------------------------------------------
  alpha Z        PSCENC =       945.17957177
  Ewald energy   TEWEN  =    -18630.41688378
  -Hartree energ DENC   =    -12375.59585846
  -exchange      EXHF   =         0.00000000
  -V(xc)+E(xc)   XCENC  =      1391.95764600
  PAW double counting   =     33157.03038704   -34314.94874608
  entropy T*S    EENTRO =        -0.00000984
  eigenvalues    EBANDS =     -1468.79355714
  atomic energy  EATOM  =     31013.67235384
  Solvation  Ediel_sol  =         0.00000000
  ---------------------------------------------------
  free energy    TOTEN  =      -281.91509666 eV

  energy without entropy =     -281.91508683  energy(sigma->0) =     -281.91509174


--------------------------------------------------------------------------------------------------------




--------------------------------------- Iteration      1(  24)  ---------------------------------------


    POTLOK:  cpu time    0.1588: real time    0.1592
    SETDIJ:  cpu time    0.0187: real time    0.0187
     EDDAV:  cpu time  137.7000: real time  138.0262
    CHARGE:  cpu time    4.7343: real time    4.7455
    MIXING:  cpu time    0.0074: real time    0.0074
    --------------------------------------------
      LOOP:  cpu time  142.6192: real time  142.9571

 eigenvalue-minimisations  : 50304
 total energy-change (2. order) : 0.8258978E-03  (-0.1208462E-02)
 number of electron     352.0000005 magnetization       0.1188743
 augmentation part      115.5515417 magnetization       0.1672473

 Broyden mixing:
  rms(total) = 0.93024E-01    rms(broyden)= 0.92986E-01
  rms(prec ) = 0.11985E+00
  weight for this iteration     100.00

 eigenvalues of (default mixing * dielectric matrix)
  average eigenvalue GAMMA=   0.6000
  2.5313  1.5546  1.0979  1.0979  0.8037  0.8037  0.4599  0.4599  0.4941  0.4941
  0.3041  0.0998  0.0998  0.1093  0.2308  0.2136  0.2136  0.1600  0.1730

 Free energy of the ion-electron system (eV)
  ---------------------------------------------------
  alpha Z        PSCENC =       945.17957177
  Ewald energy   TEWEN  =    -18630.41688378
  -Hartree energ DENC   =    -12376.73628653
  -exchange      EXHF   =         0.00000000
  -V(xc)+E(xc)   XCENC  =      1392.00022028
  PAW double counting   =     33154.50532279   -34312.30577515
  entropy T*S    EENTRO =        -0.00000481
  eigenvalues    EBANDS =     -1467.81278917
  atomic energy  EATOM  =     31013.67235384
  Solvation  Ediel_sol  =         0.00000000
  ---------------------------------------------------
  free energy    TOTEN  =      -281.91427076 eV

  energy without entropy =     -281.91426596  energy(sigma->0) =     -281.91426836


--------------------------------------------------------------------------------------------------------




--------------------------------------- Iteration      1(  25)  ---------------------------------------


    POTLOK:  cpu time    0.1561: real time    0.1564
    SETDIJ:  cpu time    0.0186: real time    0.0186
     EDDAV:  cpu time  121.3307: real time  121.6181
[...]
  0.000   0.000  -0.000  -0.000   0.000  -0.000  -0.000   0.000   0.000  -0.000  -0.000  -0.000   0.000   0.000   0.000  -0.000


------------------------ aborting loop because EDIFF is reached ----------------------------------------


    CHARGE:  cpu time    4.5723: real time    4.5832
    FORLOC:  cpu time    0.0295: real time    0.0296
    FORNL :  cpu time   30.2798: real time   30.3516
    STRESS:  cpu time   88.7920: real time   89.0039
    FORCOR:  cpu time    0.1670: real time    0.1674
    FORHAR:  cpu time    0.0429: real time    0.0430
    MIXING:  cpu time    0.0087: real time    0.0138
    OFIELD:  cpu time    0.0001: real time    0.0001

  FORCE on cell =-STRESS in cart. coord.  units (eV):
  Direction    XX          YY          ZZ          XY          YZ          ZX
  --------------------------------------------------------------------------------------
  Alpha Z   945.17957   945.17957   945.17957
  Ewald   -6207.69592 -6451.92091 -5970.91157    47.81124    63.68101   100.63025
  Hartree  4149.13635  3989.92882  4239.59114    35.22574    58.67034    74.22266
  E(xc)   -1780.97739 -1781.00019 -1781.22153     0.00481    -0.00409     0.01069
  Local   -4695.16859 -4292.63312 -5003.87398   -81.91135  -124.60805  -173.57699
  n-local  -802.71153  -803.93299  -795.26581    -0.00803     0.65450     0.72492
  augment  3004.85622  3006.46131  2995.98024    -0.17932     0.80129    -0.49449
  Kinetic  5336.13644  5338.61295  5330.11294    -0.69965     0.63230    -2.50416
  Fock        0.00000     0.00000     0.00000     0.00000     0.00000     0.00000
  -------------------------------------------------------------------------------------
  Total      -51.2448379    -49.3045502    -40.4089984      0.2434405     -0.1726932     -0.9871134
  in kB     -141.5862915   -136.2253976   -111.6475426      0.6726108     -0.4771406     -2.7273329
  external PRESSURE =    -129.8197439 kB  Pullay stress =       0.0000000 kB


 VOLUME and BASIS-vectors are now :
 -----------------------------------------------------------------------------
  energy-cutoff  :      500.00
  volume of cell :      579.88
      direct lattice vectors                 reciprocal lattice vectors
     8.338984500  0.000000000  0.000000000     0.119918678  0.000000000  0.000000000
     0.000000000  8.338984500  0.000000000     0.000000000  0.119918678  0.000000000
     0.000000000  0.000000000  8.338984500     0.000000000  0.000000000  0.119918678

  length of vectors
     8.338984500  8.338984500  8.338984500     0.119918678  0.119918678  0.119918678


 FORCES acting on ions
    electron-ion (+dipol)            ewald-force                    non-local-force                 convergence-correction
 -----------------------------------------------------------------------------------------------
   0.226E+03 0.422E+02 0.210E+03   -.229E+03 -.460E+02 -.212E+03   0.675E-01 0.105E+01 0.552E+00   0.547E-01 -.123E-02 -.312E-01
   0.625E+01 -.204E+03 0.177E+03   -.461E+01 0.205E+03 -.178E+03   -.226E+01 0.841E+00 0.119E+00   0.991E-02 -.659E-01 0.284E-01
   0.225E+02 -.352E+02 0.571E+02   -.223E+02 0.344E+02 -.553E+02   0.926E-01 0.347E+00 0.577E+00   0.605E-01 0.685E-02 0.399E-02
   0.241E+03 -.264E+03 -.622E+02   -.242E+03 0.265E+03 0.676E+02   -.824E+00 0.511E+00 -.158E+01   0.528E-01 0.132E-01 0.199E-03
   0.143E+03 0.201E+03 0.134E+02   -.144E+03 -.201E+03 -.146E+02   0.862E+00 -.787E+00 0.144E+01   0.511E-01 0.527E-01 0.323E-01
   0.538E+02 0.425E+02 0.429E+01   -.544E+02 -.415E+02 -.785E+01   0.156E+00 0.427E-01 -.660E+00   0.183E-01 -.123E-01 0.524E-01
   -.825E+01 0.254E+03 -.246E+03   0.119E+02 -.255E+03 0.247E+03   -.139E+01 -.403E+00 0.779E+00   -.269E-01 0.728E-01 -.797E-01
   0.160E+03 0.659E+01 -.165E+03   -.163E+03 -.444E+01 0.165E+03   0.130E+01 -.928E+00 -.132E+01   0.764E-01 -.533E-02 -.528E-01
   -.635E+02 -.565E+02 -.652E+02   0.622E+02 0.575E+02 0.667E+02   0.627E-01 0.132E+01 0.160E+00   -.124E-01 -.594E-01 -.195E-01
   -.276E+03 -.260E+03 0.498E+02   0.279E+03 0.264E+03 -.526E+02   0.570E+00 0.331E-02 0.306E+01   -.176E-01 -.424E-01 0.425E-01
   -.220E+03 0.144E+03 -.303E+03   0.222E+03 -.150E+03 0.308E+03   -.942E-02 0.141E+01 -.804E+00   -.377E-02 0.320E-02 -.359E-01
   0.514E+01 -.221E+03 -.186E+03   -.702E+01 0.222E+03 0.187E+03   0.243E+01 -.520E+00 0.805E+00   0.152E-01 -.176E-01 -.797E-02
   -.351E+02 0.165E+03 0.190E+03   0.352E+02 -.165E+03 -.192E+03   0.143E+01 0.389E+00 -.586E+00   0.600E-01 0.328E-02 0.306E-01
   -.190E+03 -.350E+02 0.252E+03   0.191E+03 0.371E+02 -.256E+03   -.307E-01 -.211E+01 -.196E+00   -.818E-02 -.140E-01 0.582E-01
   -.175E+03 0.193E+03 -.255E+02   0.177E+03 -.195E+03 0.268E+02   -.376E+00 -.802E-01 -.167E+01   -.221E-01 0.778E-01 -.610E-02
   -.183E+02 0.413E+02 0.602E+01   0.151E+02 -.408E+02 -.563E+01   0.352E+00 0.129E+00 -.783E-02   0.366E-01 0.221E-01 0.668E-01
   -.261E+03 0.243E+03 0.271E+03   0.275E+03 -.256E+03 -.286E+03   -.140E+02 0.129E+02 0.152E+02   0.466E-01 0.224E-01 0.281E-01
   -.178E+03 -.299E+03 -.172E+03   0.194E+03 0.315E+03 0.187E+03   -.156E+02 -.158E+02 -.162E+02   0.421E-01 -.115E-01 0.286E-02
   0.287E+03 -.684E+02 -.682E+02   -.308E+03 0.763E+02 0.759E+02   0.197E+02 -.989E+01 -.920E+01   -.577E-01 0.462E-02 -.188E-01
   -.951E+02 -.584E+02 0.267E+03   0.104E+03 0.659E+02 -.286E+03   -.107E+02 -.928E+01 0.192E+02   -.770E-02 0.281E-01 0.466E-03
   0.217E+03 0.264E+03 0.214E+03   -.231E+03 -.282E+03 -.226E+03   0.143E+02 0.166E+02 0.124E+02   0.269E-01 0.613E-02 0.359E-01
   -.611E+02 0.238E+03 -.102E+03   0.689E+02 -.253E+03 0.112E+03   -.932E+01 0.163E+02 -.121E+02   0.980E-03 -.289E-01 -.278E-01
   0.168E+03 0.263E+03 -.183E+03   -.183E+03 -.278E+03 0.200E+03   0.148E+02 0.153E+02 -.155E+02   0.196E-01 0.337E-01 0.810E-01
   0.249E+03 -.302E+03 0.286E+03   -.262E+03 0.319E+03 -.304E+03   0.142E+02 -.175E+02 0.166E+02   0.244E-01 0.292E-01 -.281E-01
   -.281E+03 0.218E+03 0.192E+03   0.297E+03 -.237E+03 -.210E+03   -.160E+02 0.182E+02 0.159E+02   -.129E-01 -.422E-01 -.386E-02
   -.156E+03 -.174E+03 -.309E+03   0.170E+03 0.189E+03 0.329E+03   -.153E+02 -.165E+02 -.179E+02   -.163E-01 -.763E-02 -.342E-01
   0.235E+03 -.238E+03 -.227E+03   -.250E+03 0.254E+03 0.241E+03   0.155E+02 -.159E+02 -.138E+02   0.164E-01 -.286E-01 0.121E-01
   -.616E+02 -.236E+03 0.812E+02   0.685E+02 0.251E+03 -.901E+02   -.843E+01 -.166E+02 0.111E+02   0.161E-01 -.359E-01 -.356E-01
   0.262E+03 0.516E+02 0.860E+02   -.281E+03 -.593E+02 -.949E+02   0.192E+02 0.930E+01 0.104E+02   -.675E-02 -.255E-02 -.761E-02
   -.589E+02 0.456E+02 -.234E+03   0.658E+02 -.524E+02 0.249E+03   -.881E+01 0.860E+01 -.166E+02   0.221E-01 -.700E-02 0.292E-01
   0.182E+03 0.175E+03 -.292E+03   -.198E+03 -.189E+03 0.308E+03   0.163E+02 0.137E+02 -.152E+02   -.120E-01 -.264E-01 -.177E-01
   0.273E+03 -.169E+03 0.154E+03   -.288E+03 0.184E+03 -.166E+03   0.152E+02 -.157E+02 0.131E+02   0.274E-01 0.155E-01 0.294E-01
   -.152E+03 0.290E+03 0.195E+03   0.164E+03 -.307E+03 -.212E+03   -.143E+02 0.165E+02 0.166E+02   0.172E-01 0.332E-01 0.271E-01
   -.262E+03 -.325E+03 -.268E+03   0.276E+03 0.347E+03 0.282E+03   -.146E+02 -.189E+02 -.148E+02   0.185E-02 -.118E-01 0.665E-02
   0.938E+02 -.607E+02 -.241E+03   -.103E+03 0.668E+02 0.258E+03   0.109E+02 -.736E+01 -.188E+02   -.165E-01 0.320E-01 -.149E-01
   -.240E+03 -.796E+02 0.676E+02   0.255E+03 0.884E+02 -.749E+02   -.165E+02 -.109E+02 0.911E+01   -.294E-01 0.199E-01 -.561E-01
   0.111E+03 0.205E+03 0.553E+02   -.120E+03 -.219E+03 -.624E+02   0.106E+02 0.156E+02 0.891E+01   0.183E-01 0.734E-02 -.139E-01
   -.248E+03 0.262E+03 -.211E+03   0.264E+03 -.281E+03 0.225E+03   -.149E+02 0.174E+02 -.149E+02   -.166E-01 0.565E-02 -.119E-01
   0.268E+03 0.266E+03 -.260E+03   -.284E+03 -.281E+03 0.274E+03   0.163E+02 0.142E+02 -.129E+02   0.402E-01 0.378E-01 0.473E-02
   0.204E+03 -.271E+03 0.179E+03   -.223E+03 0.283E+03 -.196E+03   0.173E+02 -.132E+02 0.162E+02   -.292E-01 -.142E-01 -.758E-02
   -.185E+03 0.179E+03 0.281E+03   0.201E+03 -.195E+03 -.298E+03   -.159E+02 0.171E+02 0.166E+02   0.550E-01 0.117E-02 -.459E-02
   -.283E+03 -.160E+03 -.189E+03   0.300E+03 0.174E+03 0.208E+03   -.163E+02 -.141E+02 -.172E+02   -.215E-01 -.154E-02 0.200E-01
   0.891E+02 -.213E+03 -.587E+02   -.967E+02 0.229E+03 0.658E+02   0.907E+01 -.171E+02 -.859E+01   -.347E-01 -.169E-01 0.255E-03
   -.227E+03 -.221E+03 0.264E+03   0.241E+03 0.236E+03 -.282E+03   -.142E+02 -.156E+02 0.167E+02   -.354E-02 -.279E-01 0.163E-01
   0.490E+02 0.480E+02 0.259E+03   -.560E+02 -.544E+02 -.279E+03   0.855E+01 0.779E+01 0.201E+02   -.239E-01 0.307E-02 -.108E-01
   -.259E+03 0.834E+02 -.756E+02   0.279E+03 -.924E+02 0.830E+02   -.199E+02 0.109E+02 -.917E+01   -.108E-01 -.515E-01 0.738E-02
   0.280E+03 0.188E+03 -.167E+03   -.295E+03 -.204E+03 0.181E+03   0.156E+02 0.165E+02 -.161E+02   0.161E-01 -.339E-01 0.404E-01
   0.158E+03 -.161E+03 0.293E+03   -.172E+03 0.173E+03 -.309E+03   0.156E+02 -.128E+02 0.165E+02   0.155E-01 0.620E-01 0.313E-01
 -----------------------------------------------------------------------------------------------
   -.112E+02 -.623E+00 -.639E+01   -.227E-12 -.853E-13 -.341E-12   0.108E+02 0.604E+00 0.623E+01   0.452E+00 0.276E-01 0.162E+00
 
 
 POSITION                                       TOTAL-FORCE (eV/Angst)
 -----------------------------------------------------------------------------------
      1.02656      5.03974      0.96714        -2.818055     -2.674458     -1.218884
      3.03572      6.91962      0.95430        -0.608010      1.262685     -1.005775
      2.96146      4.96833      2.90933         0.407143     -0.448975      2.374135
      1.00413      6.91965      2.91336        -1.625631      1.494361      3.848583
      0.91283      0.97787      4.89110        -0.507922     -0.928797      0.194228
      2.96822      2.95057      5.06160        -0.388120      0.980136     -4.170266
      2.89297      1.03841      6.91456         2.186449     -1.676413      1.722127
      0.95916      3.00543      7.06102        -1.554722      1.222222     -0.745874
      4.97152      4.88267      4.93888        -1.312636      2.252754      1.604280
      6.89804      6.83930      4.95105         3.430950      3.734544      0.276925
      6.89603      5.05582      6.92321         2.304436     -4.409119      3.913847
      4.90891      7.01991      6.94499         0.564299      0.811928      1.906448
      4.89852      0.89062      0.98029         1.611151      0.123547     -1.864701
      6.96444      3.02539      1.05080         1.104932     -0.008554     -3.716456
      6.96835      0.97751      3.02560         0.955030     -1.677103     -0.396540
      5.02502      2.94168      2.96959        -2.804340      0.726240      0.453410
      6.80161      1.07434      1.12532        -0.094488      0.358156      0.379378
      2.85314      6.80925      2.88612        -0.042780      0.319604     -1.037833
      3.14949      0.95227      0.85403        -0.741852     -1.918747     -1.526432
      0.78452      0.90036      3.10698        -1.736721     -1.706506      0.054588
      3.09106      3.18362      3.08792         0.645339     -1.534294      0.371519
      0.88874      3.11344      0.79673        -1.532956      1.169905     -1.501649
      5.06216      1.05848      2.80287         0.353688      0.223559      0.832010
      1.09085      6.83450      1.16889         0.888949      0.260610     -1.674208
      6.82764      5.10513      5.19748         0.182963     -1.626456     -2.241349
      2.91788      2.90299      6.80195        -1.079836     -0.625615      1.854206
      3.07413      4.83550      4.79361         0.429404      0.070085      0.416750
      0.90321      4.89191      7.03981        -1.482722     -1.073450      2.110056
      3.09936      7.02225      7.13653         0.327482      1.620511      1.463673
      0.96755      6.97456      4.85430        -1.886710      1.780117     -1.559311
      5.03130      5.13068      6.77587         0.183821     -0.181069      0.826033
      1.09554      2.86677      5.00158         0.210008     -0.252865      1.303701
      2.94228      1.07779      5.05323        -1.291233      0.317256      0.413616
      6.85953      6.75724      6.91615        -0.875570      2.649748     -0.761170
      7.11801      0.85199      4.90608         1.717629     -1.241414     -1.287907
      4.81717      0.90838      7.05503        -1.216380     -2.093864      1.788411
      7.19718      3.01196      7.04161         1.456167      1.870271      1.789893
      4.79367      3.08637      4.90994         0.982232     -0.646516     -0.630900
      1.07585      1.16213      6.69828        -0.002705     -0.286451      1.109364
      5.15387      6.89285      5.14588        -1.594803     -0.487208     -0.672424
      2.85438      5.00079      1.08526         0.149788      1.127461     -0.274095
      6.80975      2.85913      2.77336         1.056915     -0.161990      2.015389
      7.14743      4.93544      0.89594         1.374434     -1.242693     -1.459456
      4.86095      4.89385      3.18672         0.136972     -0.964158     -1.912611
      6.98142      7.01396      3.15927         1.516816      1.439546      0.119031
      4.84271      7.06535      0.88130        -0.544711      1.834444     -1.709844
      1.04692      5.04727      2.96792         0.742495      0.532404     -1.770082
      5.03901      2.84715      1.10992         0.823412     -0.315381     -0.003836
 -----------------------------------------------------------------------------------
    total drift:                               -0.010057      0.009182     -0.005990


--------------------------------------------------------------------------------------------------------



  FREE ENERGIE OF THE ION-ELECTRON SYSTEM (eV)
  ---------------------------------------------------
  free  energy   TOTEN  =      -281.9127511329 eV

  energy  without entropy=     -281.9127461390  energy(sigma->0) =     -281.91274864
 


--------------------------------------------------------------------------------------------------------


    POTLOK:  cpu time    0.1768: real time    0.1772


--------------------------------------------------------------------------------------------------------


     LOOP+:  cpu time 4022.6076: real time 4032.4473
    4ORBIT:  cpu time    0.0000: real time    0.0000

volume of typ            1:    17.6 %

volume of typ            2:     9.0 %
 
total charge     
 
# of ion       s       p       d       tot
------------------------------------------
    1        0.260   0.315   7.801   8.375
    2        0.253   0.292   7.801   8.347
    3        0.304   0.423   7.814   8.541
    4        0.269   0.331   7.814   8.413
    5        0.263   0.324   7.789   8.375
    6        0.307   0.424   7.816   8.548
    7        0.260   0.308   7.806   8.375
    8        0.248   0.294   7.774   8.316
    9        0.307   0.419   7.830   8.556
   10        0.291   0.355   7.827   8.473
   11        0.287   0.358   7.832   8.476
   12        0.264   0.314   7.799   8.377
   13        0.270   0.335   7.792   8.397
   14        0.262   0.304   7.796   8.362
   15        0.251   0.295   7.791   8.337
   16        0.286   0.376   7.812   8.475
   17        1.284   2.696   0.006   3.986
   18        1.289   2.702   0.008   3.998
   19        1.297   2.640   0.005   3.942
   20        1.294   2.644   0.005   3.943
   21        1.287   2.704   0.007   3.998
   22        1.296   2.621   0.004   3.920
   23        1.288   2.697   0.008   3.993
   24        1.278   2.750   0.010   4.038
   25        1.285   2.753   0.012   4.050
   26        1.289   2.711   0.009   4.010
   27        1.292   2.691   0.007   3.990
   28        1.301   2.603   0.003   3.908
   29        1.296   2.632   0.004   3.933
   30        1.301   2.601   0.003   3.904
   31        1.288   2.707   0.008   4.003
   32        1.294   2.669   0.006   3.969
   33        1.293   2.676   0.007   3.976
   34        1.286   2.725   0.009   4.020
   35        1.297   2.620   0.004   3.921
   36        1.298   2.613   0.003   3.914
   37        1.299   2.602   0.003   3.903
   38        1.285   2.720   0.008   4.013
   39        1.275   2.746   0.009   4.030
   40        1.288   2.715   0.009   4.013
   41        1.288   2.706   0.009   4.003
   42        1.283   2.741   0.011   4.035
   43        1.295   2.618   0.003   3.916
   44        1.287   2.715   0.008   4.011
   45        1.298   2.628   0.004   3.931
   46        1.295   2.637   0.005   3.938
   47        1.297   2.662   0.007   3.966
   48        1.294   2.673   0.007   3.973
--------------------------------------------------
tot          45.70   91.09  125.10  261.89
 
magnetization (x)
 
# of ion       s       p       d       tot
------------------------------------------
    1        0.000   0.000   0.004   0.004
    2       -0.000  -0.000  -0.000  -0.000
    3       -0.000  -0.000   0.000   0.000
    4        0.000   0.000   0.003   0.004
    5        0.000   0.000   0.000   0.001
    6       -0.000  -0.000  -0.000  -0.000
    7        0.000   0.000   0.000   0.000
    8        0.000   0.000   0.001   0.001
    9       -0.000  -0.000  -0.000  -0.000
   10        0.000   0.000   0.001   0.001
   11        0.000   0.000   0.004   0.004
   12        0.000   0.000   0.001   0.001
   13        0.000   0.000   0.001   0.001
   14        0.000   0.000   0.003   0.003
   15        0.000   0.000   0.003   0.003
   16       -0.000   0.000  -0.000  -0.000
   17        0.000   0.001  -0.000   0.001
   18        0.000   0.001   0.000   0.001
   19        0.000  -0.000   0.000  -0.000
   20       -0.000  -0.004   0.000  -0.004
   21       -0.000  -0.000   0.000  -0.001
   22       -0.000  -0.004   0.000  -0.004
   23        0.000   0.001  -0.000   0.001
   24        0.000   0.001  -0.000   0.001
   25        0.000   0.001   0.000   0.001
   26        0.000   0.001  -0.000   0.001
   27        0.000  -0.000   0.000  -0.000
   28       -0.000  -0.008   0.000  -0.008
   29       -0.000  -0.001   0.000  -0.001
   30       -0.000  -0.004   0.000  -0.005
   31        0.000   0.002  -0.000   0.003
   32        0.000   0.002  -0.000   0.002
   33        0.000   0.000   0.000   0.000
   34        0.000   0.001   0.000   0.001
   35       -0.000  -0.001   0.000  -0.001
   36       -0.000  -0.002   0.000  -0.002
   37       -0.000  -0.004   0.000  -0.004
   38       -0.000  -0.000   0.000  -0.000
   39        0.000   0.001  -0.000   0.001
   40        0.000   0.001  -0.000   0.001
   41        0.000   0.001   0.000   0.001
   42        0.000   0.002  -0.000   0.002
   43       -0.000  -0.004   0.000  -0.004
   44       -0.000  -0.001   0.000  -0.001
   45       -0.000  -0.004   0.000  -0.004
   46       -0.000  -0.002   0.000  -0.002
   47        0.000   0.004  -0.000   0.004
   48        0.000   0.002  -0.000   0.002
--------------------------------------------------
tot           0.00   -0.02    0.02    0.00
 

 total amount of memory used by VASP MPI-rank0   359822. kBytes
=======================================================================

   base      :      30000. kBytes
   nonlr-proj:      25376. kBytes
   fftplans  :       5538. kBytes
   grid      :      31719. kBytes
   one-center:       1492. kBytes
   wavefun   :     265697. kBytes
 
  
  
 General timing and accounting informations for this job:
 ========================================================
  
                  Total CPU time used (sec):     4086.645
                            User time (sec):     4080.376
                          System time (sec):        6.269
                         Elapsed time (sec):     4100.512
  
                   Maximum memory used (kb):      446480.
                   Average memory used (kb):           0.
  
                          Minor page faults:        48688
                          Major page faults:           36
                 Voluntary context switches:         1175
