 vasp.5.4.4.18Apr17-6-g9f103f2a35 (build May 12 2020 04:58:55) complex          
  
 MD_VERSION_INFO: Compiled 2020-05-12T11:58:55-UTC in devlin.sd.materialsdesign.
 com:/home/medea2/data/build/wwolf/vasp-gpu5.4.4/13047/x86_64/src/src/build/std 
 from svn 13047
 
 This VASP executable licensed from Materials Design, Inc.
 
 executed on                        Lin64 date 2023.03.24  19:27:16
 running on   16 total cores
 distrk:  each k-point on   16 cores,    1 groups
 distr:  one band on NCORES_PER_BAND=   1 cores,   16 groups


--------------------------------------------------------------------------------------------------------


 INCAR:
 POTCAR:    PAW_PBE Ni 02Aug2007                  
 POTCAR:    PAW_PBE O 08Apr2002                   

 ----------------------------------------------------------------------------- 
|                                                                             |
|           W    W    AA    RRRRR   N    N  II  N    N   GGGG   !!!           |
|           W    W   A  A   R    R  NN   N  II  NN   N  G    G  !!!           |
|           W    W  A    A  R    R  N N  N  II  N N  N  G       !!!           |
|           W WW W  AAAAAA  RRRRR   N  N N  II  N  N N  G  GGG   !            |
|           WW  WW  A    A  R   R   N   NN  II  N   NN  G    G                |
|           W    W  A    A  R    R  N    N  II  N    N   GGGG   !!!           |
|                                                                             |
|      For optimal performance we recommend to set                            |
|        NCORE= 4 - approx SQRT( number of cores)                             |
|      NCORE specifies how many cores store one orbital (NPAR=cpu/NCORE).     |
|      This setting can  greatly improve the performance of VASP for DFT.     |
|      The default,   NCORE=1            might be grossly inefficient         |
|      on modern multi-core architectures or massively parallel machines.     |
|      Do your own testing !!!!                                               |
|      Unfortunately you need to use the default for GW and RPA calculations. |
|      (for HF NCORE is supported but not extensively tested yet)             |
|                                                                             |
 ----------------------------------------------------------------------------- 

 POTCAR:    PAW_PBE Ni 02Aug2007                  
  local pseudopotential read in
  partial core-charges read in
  partial kinetic energy density read in
  atomic valenz-charges read in
  non local Contribution for L=           2  read in
    real space projection operators read in
  non local Contribution for L=           2  read in
    real space projection operators read in
  non local Contribution for L=           0  read in
    real space projection operators read in
  non local Contribution for L=           0  read in
    real space projection operators read in
  non local Contribution for L=           1  read in
    real space projection operators read in
  non local Contribution for L=           1  read in
    real space projection operators read in
    PAW grid and wavefunctions read in
 
   number of l-projection  operators is LMAX  =           6
   number of lm-projection operators is LMMAX =          18
 
 POTCAR:    PAW_PBE O 08Apr2002                   
  local pseudopotential read in
  partial core-charges read in
  partial kinetic energy density read in
  kinetic energy density of atom read in
  atomic valenz-charges read in
  non local Contribution for L=           0  read in
    real space projection operators read in
  non local Contribution for L=           0  read in
    real space projection operators read in
  non local Contribution for L=           1  read in
    real space projection operators read in
  non local Contribution for L=           1  read in
    real space projection operators read in
    PAW grid and wavefunctions read in
 
   number of l-projection  operators is LMAX  =           4
   number of lm-projection operators is LMMAX =           8
 
 Optimization of the real space projectors (new method)

 maximal supplied QI-value         = 16.25
 optimisation between [QCUT,QGAM] = [ 11.38, 22.75] = [ 36.24,144.96] Ry 
 Optimized for a Real-space Cutoff    1.47 Angstroem

   l    n(q)    QCUT    max X(q) W(low)/X(q) W(high)/X(q)  e(spline) 
   2      9    11.376    60.317    0.17E-03    0.16E-04    0.16E-06
   2      9    11.376    55.921    0.17E-03    0.16E-04    0.17E-06
   0     10    11.376    51.690    0.45E-04    0.60E-04    0.21E-06
   0     10    11.376    30.015    0.37E-04    0.55E-04    0.19E-06
   1     10    11.376    18.849    0.83E-04    0.11E-03    0.92E-07
   1     10    11.376    14.624    0.69E-04    0.92E-04    0.82E-07
 Optimization of the real space projectors (new method)

 maximal supplied QI-value         = 24.76
 optimisation between [QCUT,QGAM] = [ 11.39, 22.77] = [ 36.31,145.25] Ry 
 Optimized for a Real-space Cutoff    1.10 Angstroem

   l    n(q)    QCUT    max X(q) W(low)/X(q) W(high)/X(q)  e(spline) 
   0      7    11.387    20.381    0.22E-03    0.48E-03    0.18E-06
   0      7    11.387    15.268    0.22E-03    0.52E-03    0.19E-06
   1      7    11.387     5.964    0.22E-03    0.73E-03    0.24E-06
   1      7    11.387     5.382    0.19E-03    0.60E-03    0.21E-06

 ----------------------------------------------------------------------------- 
|                                                                             |
|  ADVICE TO THIS USER RUNNING 'VASP/VAMP'   (HEAR YOUR MASTER'S VOICE ...):  |
|                                                                             |
|      You enforced a specific xc-type in the INCAR file,                     |
|      a different type was found on the POTCAR file                          |
|          I HOPE YOU KNOW, WHAT YOU ARE  DOING                               |
|                                                                             |
 ----------------------------------------------------------------------------- 

  PAW_PBE Ni 02Aug2007                  :
 energy of atom  1       EATOM=-1077.6739
 kinetic energy error for atom=    0.0030 (will be added to EATOM!!)
  PAW_PBE O 08Apr2002                   :
 energy of atom  2       EATOM= -432.3788
 kinetic energy error for atom=    0.0224 (will be added to EATOM!!)
 
 
 POSCAR: NiO2_Fd-3m_scale_1_050_disp_0_05_round_1
  positions in direct lattice
  No initial velocities read in
 exchange correlation table for  LEXCH =       14
   RHO(1)=    0.500       N(1)  =     2000
   RHO(2)=  100.500       N(2)  =     4000
 


--------------------------------------------------------------------------------------------------------


 ion  position               nearest neighbor table
   1  0.117  0.601  0.123-  24 1.79  47 1.83  41 1.90  22 1.92  43 2.28  28 2.29   4 2.80   2 2.82
                             3 2.84
   2  0.358  0.838  0.123-  18 1.85  24 1.85  46 1.91  41 1.93  19 2.22  29 2.35   3 2.75   1 2.82
                             4 2.88  13 3.08
   3  0.366  0.605  0.356-  41 1.80  18 1.82  44 1.82  27 1.88  47 1.94  21 1.99   2 2.75   9 2.75
                             4 2.81   6 2.84   1 2.84  16 2.85
   4  0.115  0.829  0.369-  30 1.77  47 1.79  18 1.87  24 2.02  45 2.17  20 2.27   1 2.80   3 2.81
                             2 2.88  10 3.07   5 3.07
   5  0.130  0.122  0.592-  32 1.78  39 1.84  33 1.85  20 1.88  30 2.33  35 2.42   7 2.78   6 2.79
                             8 2.81   4 3.07
   6  0.358  0.366  0.597-  27 1.83  38 1.87  32 1.89  26 1.93  33 1.94  21 1.98   9 2.73  16 2.76
                             5 2.79   8 2.81   7 2.83   3 2.84
   7  0.357  0.125  0.836-  39 1.90  26 1.91  36 1.93  33 1.96  29 2.28  19 2.33   5 2.78   8 2.82
                             6 2.83
   8  0.114  0.359  0.831-  28 1.87  26 1.88  39 1.88  32 1.89  22 2.21  37 2.26   5 2.81   6 2.81
                             7 2.82
   9  0.595  0.592  0.592-  44 1.77  27 1.79  38 1.82  25 1.82  40 1.89  31 1.94   6 2.73   3 2.75
                            12 2.77  16 2.80  10 2.83  11 2.91
  10  0.828  0.840  0.599-  40 1.75  34 1.82  45 1.86  25 1.93  30 2.24  35 2.27  12 2.72   9 2.83
                            11 2.90   4 3.07
  11  0.827  0.603  0.854-  34 1.77  31 1.82  37 2.00  25 2.07  43 2.18  28 2.39  12 2.76  10 2.90
                             9 2.91  14 2.96
  12  0.590  0.831  0.822-  29 1.76  31 1.79  40 1.80  34 1.94  46 2.25  36 2.38  10 2.72  11 2.76
                             9 2.77
  13  0.595  0.121  0.128-  48 1.84  23 1.86  17 1.88  19 1.95  46 2.34  36 2.34  15 2.69  16 2.72
                            14 2.81   2 3.08
  14  0.829  0.363  0.115-  43 1.81  48 1.89  17 1.91  42 1.99  37 2.14  22 2.25  15 2.80  13 2.81
                            16 2.88  11 2.96
  15  0.832  0.119  0.346-  17 1.79  23 1.79  42 1.90  35 1.92  45 2.34  20 2.36  13 2.69  16 2.78
                            14 2.80
  16  0.590  0.347  0.363-  42 1.82  23 1.83  38 1.84  44 1.89  48 1.94  21 1.96  13 2.72   6 2.76
                            15 2.78   9 2.80   3 2.85  14 2.88
  17  0.820  0.134  0.133-  15 1.79  13 1.88  14 1.91
  18  0.337  0.821  0.342-   3 1.82   2 1.85   4 1.87
  19  0.363  0.104  0.114-  13 1.95   2 2.22   7 2.33
  20  0.113  0.102  0.368-   5 1.88   4 2.27  15 2.36
  21  0.356  0.367  0.360-  16 1.96   6 1.98   3 1.99
  22  0.098  0.373  0.095-   1 1.92   8 2.21  14 2.25
  23  0.617  0.131  0.350-  15 1.79  16 1.83  13 1.86
  24  0.137  0.814  0.129-   1 1.79   2 1.85   4 2.02
  25  0.813  0.609  0.606-   9 1.82  10 1.93  11 2.07
  26  0.340  0.352  0.828-   8 1.88   7 1.91   6 1.93
  27  0.381  0.583  0.579-   9 1.79   6 1.83   3 1.88
  28  0.112  0.583  0.848-   8 1.87   1 2.29  11 2.39
  29  0.381  0.853  0.842-  12 1.76   7 2.28   2 2.35
  30  0.096  0.845  0.579-   4 1.77  10 2.24   5 2.33
  31  0.612  0.618  0.822-  12 1.79  11 1.82   9 1.94
  32  0.133  0.335  0.606-   5 1.78   6 1.89   8 1.89
  33  0.351  0.133  0.601-   5 1.85   6 1.94   7 1.96
  34  0.822  0.811  0.815-  11 1.77  10 1.82  12 1.94
  35  0.841  0.111  0.577-  15 1.92  10 2.27   5 2.42
  36  0.587  0.116  0.848-   7 1.93  13 2.34  12 2.38
  37  0.845  0.364  0.859-  11 2.00  14 2.14   8 2.26
  38  0.582  0.374  0.582-   9 1.82  16 1.84   6 1.87
  39  0.131  0.135  0.812-   5 1.84   8 1.88   7 1.90
  40  0.620  0.816  0.608-  10 1.75  12 1.80   9 1.89
  41  0.344  0.607  0.140-   3 1.80   1 1.90   2 1.93
  42  0.809  0.346  0.352-  16 1.82  15 1.90  14 1.99
  43  0.845  0.579  0.114-  14 1.81  11 2.18   1 2.28
  44  0.581  0.573  0.381-   9 1.77   3 1.82  16 1.89
  45  0.856  0.841  0.378-  10 1.86   4 2.17  15 2.34
  46  0.585  0.844  0.091-   2 1.91  12 2.25  13 2.34
  47  0.135  0.618  0.340-   4 1.79   1 1.83   3 1.94
  48  0.605  0.342  0.131-  13 1.84  14 1.89  16 1.94
 
  LATTYP: Found a simple cubic cell.
 ALAT       =     8.3389845000
  
  Lattice vectors:
  
 A1 = (   8.3389845000,   0.0000000000,   0.0000000000)
 A2 = (   0.0000000000,   8.3389845000,   0.0000000000)
 A3 = (   0.0000000000,   0.0000000000,   8.3389845000)


Analysis of symmetry for initial positions (statically):
=====================================================================
 Subroutine PRICEL returns:
 Original cell was already a primitive cell.
 

 Routine SETGRP: Setting up the symmetry group for a 
 simple cubic supercell.


 Subroutine GETGRP returns: Found  1 space group operations
 (whereof  1 operations were pure point group operations)
 out of a pool of 48 trial point group operations.


The static configuration has the point symmetry C_1 .


Analysis of symmetry for dynamics (positions and initial velocities):
=====================================================================
 Subroutine PRICEL returns:
 Original cell was already a primitive cell.
 

 Routine SETGRP: Setting up the symmetry group for a 
 simple cubic supercell.


 Subroutine GETGRP returns: Found  1 space group operations
 (whereof  1 operations were pure point group operations)
 out of a pool of 48 trial point group operations.


The dynamic configuration has the point symmetry C_1 .


Analysis of structural, dynamic, and magnetic symmetry:
=====================================================================
 Subroutine PRICEL returns:
 Original cell was already a primitive cell.
 

 Routine SETGRP: Setting up the symmetry group for a 
 simple cubic supercell.


 Subroutine GETGRP returns: Found  1 space group operations
 (whereof  1 operations were pure point group operations)
 out of a pool of 48 trial point group operations.


The magnetic configuration has the point symmetry C_1 .


 Subroutine INISYM returns: Found  1 space group operations
 (whereof  1 operations are pure point group operations),
 and found     1 'primitive' translations

 
 
 KPOINTS: Automatic mesh                          

Automatic generation of k-mesh.
Space group operators:
 irot       det(A)        alpha          n_x          n_y          n_z        tau_x        tau_y        tau_z
    1     1.000000     0.000001     1.000000     0.000000     0.000000     0.000000     0.000000     0.000000
 
 Subroutine IBZKPT returns following result:
 ===========================================
 
 Found     36 irreducible k-points:
 
 Following reciprocal coordinates:
            Coordinates               Weight
  0.000000  0.000000  0.000000      1.000000
  0.250000  0.000000  0.000000      2.000000
  0.500000  0.000000  0.000000      1.000000
  0.000000  0.250000  0.000000      2.000000
  0.250000  0.250000  0.000000      2.000000
  0.500000  0.250000  0.000000      2.000000
 -0.250000  0.250000  0.000000      2.000000
  0.000000  0.500000  0.000000      1.000000
  0.250000  0.500000  0.000000      2.000000
  0.500000  0.500000  0.000000      1.000000
  0.000000  0.000000  0.250000      2.000000
  0.250000  0.000000  0.250000      2.000000
  0.500000  0.000000  0.250000      2.000000
 -0.250000  0.000000  0.250000      2.000000
  0.000000  0.250000  0.250000      2.000000
  0.250000  0.250000  0.250000      2.000000
  0.500000  0.250000  0.250000      2.000000
 -0.250000  0.250000  0.250000      2.000000
  0.000000  0.500000  0.250000      2.000000
  0.250000  0.500000  0.250000      2.000000
  0.500000  0.500000  0.250000      2.000000
 -0.250000  0.500000  0.250000      2.000000
  0.000000 -0.250000  0.250000      2.000000
  0.250000 -0.250000  0.250000      2.000000
  0.500000 -0.250000  0.250000      2.000000
 -0.250000 -0.250000  0.250000      2.000000
  0.000000  0.000000  0.500000      1.000000
  0.250000  0.000000  0.500000      2.000000
  0.500000  0.000000  0.500000      1.000000
  0.000000  0.250000  0.500000      2.000000
  0.250000  0.250000  0.500000      2.000000
  0.500000  0.250000  0.500000      2.000000
 -0.250000  0.250000  0.500000      2.000000
  0.000000  0.500000  0.500000      1.000000
  0.250000  0.500000  0.500000      2.000000
  0.500000  0.500000  0.500000      1.000000
 
 Following cartesian coordinates:
            Coordinates               Weight
  0.000000  0.000000  0.000000      1.000000
  0.029980  0.000000  0.000000      2.000000
  0.059959  0.000000  0.000000      1.000000
  0.000000  0.029980  0.000000      2.000000
  0.029980  0.029980  0.000000      2.000000
  0.059959  0.029980  0.000000      2.000000
 -0.029980  0.029980  0.000000      2.000000
  0.000000  0.059959  0.000000      1.000000
  0.029980  0.059959  0.000000      2.000000
  0.059959  0.059959  0.000000      1.000000
  0.000000  0.000000  0.029980      2.000000
  0.029980  0.000000  0.029980      2.000000
  0.059959  0.000000  0.029980      2.000000
 -0.029980  0.000000  0.029980      2.000000
  0.000000  0.029980  0.029980      2.000000
  0.029980  0.029980  0.029980      2.000000
  0.059959  0.029980  0.029980      2.000000
 -0.029980  0.029980  0.029980      2.000000
  0.000000  0.059959  0.029980      2.000000
  0.029980  0.059959  0.029980      2.000000
  0.059959  0.059959  0.029980      2.000000
 -0.029980  0.059959  0.029980      2.000000
  0.000000 -0.029980  0.029980      2.000000
  0.029980 -0.029980  0.029980      2.000000
  0.059959 -0.029980  0.029980      2.000000
 -0.029980 -0.029980  0.029980      2.000000
  0.000000  0.000000  0.059959      1.000000
  0.029980  0.000000  0.059959      2.000000
  0.059959  0.000000  0.059959      1.000000
  0.000000  0.029980  0.059959      2.000000
  0.029980  0.029980  0.059959      2.000000
  0.059959  0.029980  0.059959      2.000000
 -0.029980  0.029980  0.059959      2.000000
  0.000000  0.059959  0.059959      1.000000
  0.029980  0.059959  0.059959      2.000000
  0.059959  0.059959  0.059959      1.000000
 


--------------------------------------------------------------------------------------------------------




 Dimension of arrays:
   k-points           NKPTS =     36   k-points in BZ     NKDIM =     36   number of bands    NBANDS=    240
   number of dos      NEDOS =    301   number of ions     NIONS =     48
   non local maximal  LDIM  =      6   non local SUM 2l+1 LMDIM =     18
   total plane-waves  NPLWV = 262144
   max r-space proj   IRMAX =   6119   max aug-charges    IRDMAX=  14851
   dimension x,y,z NGX =    64 NGY =   64 NGZ =   64
   dimension x,y,z NGXF=   128 NGYF=  128 NGZF=  128
   support grid    NGXF=   128 NGYF=  128 NGZF=  128
   ions per type =              16  32
   NGX,Y,Z   is equivalent  to a cutoff of  12.76, 12.76, 12.76 a.u.
   NGXF,Y,Z  is equivalent  to a cutoff of  25.52, 25.52, 25.52 a.u.

 SYSTEM =  unknown system                          
 POSCAR =  NiO2_Fd-3m_scale_1_050_disp_0_05_round_1

 Startparameter for this run:
   NWRITE =      1    write-flag & timer
   PREC   = accura    normal or accurate (medium, high low for compatibility)
   ISTART =      0    job   : 0-new  1-cont  2-samecut
   ICHARG =      2    charge: 1-file 2-atom 10-const
   ISPIN  =      2    spin polarized calculation?
   LNONCOLLINEAR =      F non collinear calculations
   LSORBIT =      F    spin-orbit coupling
   INIWAV =      1    electr: 0-lowe 1-rand  2-diag
   LASPH  =      F    aspherical Exc in radial PAW
   METAGGA=      F    non-selfconsistent MetaGGA calc.

 Electronic Relaxation 1
   ENCUT  =  500.0 eV  36.75 Ry    6.06 a.u.  15.20 15.20 15.20*2*pi/ulx,y,z
   ENINI  =  500.0     initial cutoff
   ENAUG  =  605.4 eV  augmentation charge cutoff
   NELM   =     80;   NELMIN=  2; NELMDL= -5     # of ELM steps 
   EDIFF  = 0.1E-04   stopping-criterion for ELM
   LREAL  =      T    real-space projection
   NLSPLINE    = F    spline interpolate recip. space projectors
   LCOMPAT=      F    compatible to vasp.4.4
   GGA_COMPAT  = T    GGA compatible to vasp.4.4-vasp.4.6
   LMAXPAW     = -100 max onsite density
   LMAXMIX     =    2 max onsite mixed and CHGCAR
   VOSKOWN=      1    Vosko Wilk Nusair interpolation
   ROPT   =   -0.00025  -0.00025
 Ionic relaxation
   EDIFFG = 0.1E-03   stopping-criterion for IOM
   NSW    =      0    number of steps for IOM
   NBLOCK =      1;   KBLOCK =      1    inner block; outer block 
   IBRION =     -1    ionic relax: 0-MD 1-quasi-New 2-CG
   NFREE  =      0    steps in history (QN), initial steepest desc. (CG)
   ISIF   =      2    stress and relaxation
   IWAVPR =     10    prediction:  0-non 1-charg 2-wave 3-comb
   ISYM   =      2    0-nonsym 1-usesym 2-fastsym
   LCORR  =      T    Harris-Foulkes like correction to forces

   POTIM  = 0.5000    time-step for ionic-motion
   TEIN   =    0.0    initial temperature
   TEBEG  =    0.0;   TEEND  =   0.0 temperature during run
   SMASS  =  -3.00    Nose mass-parameter (am)
   estimated Nose-frequenzy (Omega)   =  0.10E-29 period in steps =****** mass=  -0.159E-26a.u.
   SCALEE = 1.0000    scale energy and forces
   NPACO  =    256;   APACO  = 16.0  distance and # of slots for P.C.
   PSTRESS=    0.0 pullay stress

  Mass of Ions in am
   POMASS =  58.69 16.00
  Ionic Valenz
   ZVAL   =  10.00  6.00
  Atomic Wigner-Seitz radii
   RWIGS  =   1.15  0.73
  virtual crystal weights 
   VCA    =   1.00  1.00
   NELECT =     352.0000    total number of electrons
   NUPDOWN=      -1.0000    fix difference up-down

 DOS related values:
   EMIN   =  10.00;   EMAX   =-10.00  energy-range for DOS
   EFERMI =   0.00
   ISMEAR =     0;   SIGMA  =   0.05  broadening in eV -4-tet -1-fermi 0-gaus

 Electronic relaxation 2 (details)
   IALGO  =     38    algorithm
   LDIAG  =      T    sub-space diagonalisation (order eigenvalues)
   LSUBROT=      F    optimize rotation matrix (better conditioning)
   TURBO    =      0    0=normal 1=particle mesh
   IRESTART =      0    0=no restart 2=restart with 2 vectors
   NREBOOT  =      0    no. of reboots
   NMIN     =      0    reboot dimension
   EREF     =   0.00    reference energy to select bands
   IMIX   =      4    mixing-type and parameters
     AMIX     =   0.40;   BMIX     =  1.00
     AMIX_MAG =   1.60;   BMIX_MAG =  1.00
     AMIN     =   0.10
     WC   =   100.;   INIMIX=   1;  MIXPRE=   1;  MAXMIX= -45

 Intra band minimization:
   WEIMIN = 0.0000     energy-eigenvalue tresh-hold
   EBREAK =  0.10E-07  absolut break condition
   DEPER  =   0.30     relativ break condition  

   TIME   =   0.40     timestep for ELM

  volume/ion in A,a.u.               =      12.08        81.53
  Fermi-wavevector in a.u.,A,eV,Ry     =   1.386147  2.619438 26.142273  1.921403
  Thomas-Fermi vector in A             =   2.510490
 
 Write flags
   LWAVE        =      F    write WAVECAR
   LDOWNSAMPLE  =      F    k-point downsampling of WAVECAR
   LCHARG       =      T    write CHGCAR
   LVTOT        =      F    write LOCPOT, total local potential
   LVHAR        =      F    write LOCPOT, Hartree potential only
   LELF         =      F    write electronic localiz. function (ELF)
   LORBIT       =      0    0 simple, 1 ext, 2 COOP (PROOUT), +10 PAW based schemes


 Dipole corrections
   LMONO  =      F    monopole corrections only (constant potential shift)
   LDIPOL =      F    correct potential (dipole corrections)
   IDIPOL =      0    1-x, 2-y, 3-z, 4-all directions 
   EPSILON=  1.0000000 bulk dielectric constant

 Exchange correlation treatment:
   GGA     =    PS    GGA type
   LEXCH   =    14    internal setting for exchange type
   VOSKOWN=      1    Vosko Wilk Nusair interpolation
   LHFCALC =     F    Hartree Fock is set to
   LHFONE  =     F    Hartree Fock one center treatment
   AEXX    =    0.0000 exact exchange contribution

 Linear response parameters
   LEPSILON=     F    determine dielectric tensor
   LRPA    =     F    only Hartree local field effects (RPA)
   LNABLA  =     F    use nabla operator in PAW spheres
   LVEL    =     F    velocity operator in full k-point grid
   LINTERFAST=   F  fast interpolation
   KINTER  =     0    interpolate to denser k-point grid
   CSHIFT  =0.1000    complex shift for real part using Kramers Kronig
   OMEGAMAX=  -1.0    maximum frequency
   DEG_THRESHOLD= 0.2000000E-02 threshold for treating states as degnerate
   RTIME   =   -0.100 relaxation time in fs
  (WPLASMAI=    0.000 imaginary part of plasma frequency in eV, 0.658/RTIME)
   DFIELD  = 0.0000000 0.0000000 0.0000000 field for delta impulse in time
 
 Orbital magnetization related:
   ORBITALMAG=     F  switch on orbital magnetization
   LCHIMAG   =     F  perturbation theory with respect to B field
   DQ        =  0.001000  dq finite difference perturbation B field
   LLRAUG    =     F  two centre corrections for induced B field



--------------------------------------------------------------------------------------------------------


 Static calculation
 charge density and potential will be updated during run
 spin polarized calculation
 Variant of blocked Davidson
 Davidson routine will perform the subspace rotation
 perform sub-space diagonalisation
    after iterative eigenvector-optimisation
 modified Broyden-mixing scheme, WC =      100.0
 initial mixing is a Kerker type mixing with AMIX =  0.4000 and BMIX =      1.0000
 Hartree-type preconditioning will be used
 using additional bands           64
 real space projection scheme for non local part
 use partial core corrections
 calculate Harris-corrections to forces 
   (improved forces if not selfconsistent)
 use gradient corrections 
 use of overlap-Matrix (Vanderbilt PP)
 Gauss-broadening in eV      SIGMA  =   0.05


--------------------------------------------------------------------------------------------------------


  energy-cutoff  :      500.00
  volume of cell :      579.88
      direct lattice vectors                 reciprocal lattice vectors
     8.338984500  0.000000000  0.000000000     0.119918678  0.000000000  0.000000000
     0.000000000  8.338984500  0.000000000     0.000000000  0.119918678  0.000000000
     0.000000000  0.000000000  8.338984500     0.000000000  0.000000000  0.119918678

  length of vectors
     8.338984500  8.338984500  8.338984500     0.119918678  0.119918678  0.119918678


 
 k-points in units of 2pi/SCALE and weight: Automatic mesh                          
   0.00000000  0.00000000  0.00000000       0.016
   0.02997967  0.00000000  0.00000000       0.031
   0.05995934  0.00000000  0.00000000       0.016
   0.00000000  0.02997967  0.00000000       0.031
   0.02997967  0.02997967  0.00000000       0.031
   0.05995934  0.02997967  0.00000000       0.031
  -0.02997967  0.02997967  0.00000000       0.031
   0.00000000  0.05995934  0.00000000       0.016
   0.02997967  0.05995934  0.00000000       0.031
   0.05995934  0.05995934  0.00000000       0.016
   0.00000000  0.00000000  0.02997967       0.031
   0.02997967  0.00000000  0.02997967       0.031
   0.05995934  0.00000000  0.02997967       0.031
  -0.02997967  0.00000000  0.02997967       0.031
   0.00000000  0.02997967  0.02997967       0.031
   0.02997967  0.02997967  0.02997967       0.031
   0.05995934  0.02997967  0.02997967       0.031
  -0.02997967  0.02997967  0.02997967       0.031
   0.00000000  0.05995934  0.02997967       0.031
   0.02997967  0.05995934  0.02997967       0.031
   0.05995934  0.05995934  0.02997967       0.031
  -0.02997967  0.05995934  0.02997967       0.031
   0.00000000 -0.02997967  0.02997967       0.031
   0.02997967 -0.02997967  0.02997967       0.031
   0.05995934 -0.02997967  0.02997967       0.031
  -0.02997967 -0.02997967  0.02997967       0.031
   0.00000000  0.00000000  0.05995934       0.016
   0.02997967  0.00000000  0.05995934       0.031
   0.05995934  0.00000000  0.05995934       0.016
   0.00000000  0.02997967  0.05995934       0.031
   0.02997967  0.02997967  0.05995934       0.031
   0.05995934  0.02997967  0.05995934       0.031
  -0.02997967  0.02997967  0.05995934       0.031
   0.00000000  0.05995934  0.05995934       0.016
   0.02997967  0.05995934  0.05995934       0.031
   0.05995934  0.05995934  0.05995934       0.016
 
 k-points in reciprocal lattice and weights: Automatic mesh                          
   0.00000000  0.00000000  0.00000000       0.016
   0.25000000  0.00000000  0.00000000       0.031
   0.50000000  0.00000000  0.00000000       0.016
   0.00000000  0.25000000  0.00000000       0.031
   0.25000000  0.25000000  0.00000000       0.031
   0.50000000  0.25000000  0.00000000       0.031
  -0.25000000  0.25000000  0.00000000       0.031
   0.00000000  0.50000000  0.00000000       0.016
   0.25000000  0.50000000  0.00000000       0.031
   0.50000000  0.50000000  0.00000000       0.016
   0.00000000  0.00000000  0.25000000       0.031
   0.25000000  0.00000000  0.25000000       0.031
   0.50000000  0.00000000  0.25000000       0.031
  -0.25000000  0.00000000  0.25000000       0.031
   0.00000000  0.25000000  0.25000000       0.031
   0.25000000  0.25000000  0.25000000       0.031
   0.50000000  0.25000000  0.25000000       0.031
  -0.25000000  0.25000000  0.25000000       0.031
   0.00000000  0.50000000  0.25000000       0.031
   0.25000000  0.50000000  0.25000000       0.031
   0.50000000  0.50000000  0.25000000       0.031
  -0.25000000  0.50000000  0.25000000       0.031
   0.00000000 -0.25000000  0.25000000       0.031
   0.25000000 -0.25000000  0.25000000       0.031
   0.50000000 -0.25000000  0.25000000       0.031
  -0.25000000 -0.25000000  0.25000000       0.031
   0.00000000  0.00000000  0.50000000       0.016
   0.25000000  0.00000000  0.50000000       0.031
   0.50000000  0.00000000  0.50000000       0.016
   0.00000000  0.25000000  0.50000000       0.031
   0.25000000  0.25000000  0.50000000       0.031
   0.50000000  0.25000000  0.50000000       0.031
  -0.25000000  0.25000000  0.50000000       0.031
   0.00000000  0.50000000  0.50000000       0.016
   0.25000000  0.50000000  0.50000000       0.031
   0.50000000  0.50000000  0.50000000       0.016
 
 position of ions in fractional coordinates (direct lattice) 
   0.11695567  0.60113632  0.12253079
   0.35756428  0.83799537  0.12253701
   0.36596762  0.60521042  0.35557686
   0.11491836  0.82916662  0.36877751
   0.12987277  0.12178365  0.59179156
   0.35782748  0.36621819  0.59734346
   0.35660962  0.12454562  0.83636515
   0.11415931  0.35947618  0.83078529
   0.59547567  0.59207246  0.59217835
   0.82800723  0.83985466  0.59927571
   0.82693377  0.60254144  0.85350193
   0.59024796  0.83129263  0.82218946
   0.59524303  0.12115564  0.12817049
   0.82925326  0.36276739  0.11496190
   0.83212756  0.11894276  0.34642265
   0.59013112  0.34737966  0.36294091
   0.82011848  0.13431805  0.13295536
   0.33702522  0.82058267  0.34249826
   0.36263723  0.10357149  0.11441443
   0.11338748  0.10172387  0.36832834
   0.35647485  0.36713449  0.36040515
   0.09764252  0.37339702  0.09482159
   0.61731873  0.13050817  0.34959741
   0.13693032  0.81423332  0.12850382
   0.81312875  0.60884623  0.60561570
   0.33953510  0.35236327  0.82799388
   0.38091785  0.58313797  0.57894702
   0.11245945  0.58322577  0.84808830
   0.38130819  0.85279430  0.84200140
   0.09638092  0.84506192  0.57936268
   0.61157775  0.61784656  0.82234611
   0.13331453  0.33528928  0.60597108
   0.35124593  0.13331079  0.60147159
   0.82221809  0.81096742  0.81495848
   0.84067433  0.11062789  0.57693764
   0.58729393  0.11571436  0.84755344
   0.84518364  0.36372212  0.85890496
   0.58166205  0.37424019  0.58222507
   0.13072094  0.13490203  0.81193531
   0.61997316  0.81629962  0.60838973
   0.34363324  0.60737094  0.14046454
   0.80861617  0.34594285  0.35236227
   0.84470622  0.57899045  0.11376366
   0.58082979  0.57274412  0.38116653
   0.85555580  0.84082984  0.37822248
   0.58487749  0.84378335  0.09125150
   0.13472207  0.61784541  0.34009264
   0.60462431  0.34181178  0.13050043
 
 position of ions in cartesian coordinates  (Angst):
   0.97529152  5.01286645  1.02178236
   2.98172299  6.98803040  1.02183423
   3.05179831  5.04684031  2.96514992
   0.95830242  6.91440759  3.07522994
   1.08300702  1.01555197  4.93494065
   2.98391781  3.05388781  4.98123785
   2.97376209  1.03858399  6.97443602
   0.95197272  2.99766629  6.92790566
   4.96566238  4.93728307  4.93816608
   6.90473946  7.00353499  4.99735086
   6.89578789  5.02458373  7.11733936
   4.92206859  6.93213636  6.85622516
   4.96372240  1.01031500  1.06881173
   6.91513008  3.02511164  0.95866550
   6.93909882  0.99186183  2.88881311
   4.92109426  2.89679360  3.02655862
   6.83895529  1.12007614  1.10871269
   2.81044809  6.84282617  2.85608768
   3.02402624  0.86368105  0.95410016
   0.94553644  0.84827378  3.07148432
   2.97263825  3.06152882  3.00541296
   0.81423946  3.11375196  0.79071577
   5.14781132  1.08830561  2.91528738
   1.14185982  6.78987903  1.07159136
   6.78066804  5.07715927  5.05021994
   2.83137794  2.93835185  6.90462813
   3.17646805  4.86277849  4.82783023
   0.93779761  4.86351066  7.07219519
   3.17972309  7.11143845  7.02143662
   0.80371900  7.04695825  4.83129641
   5.09993738  5.15221289  6.85753146
   1.11170780  2.79597211  5.05318344
   2.92903437  1.11167661  5.01566227
   6.85646391  6.76264475  6.79592613
   7.01037021  0.92252426  4.81107404
   4.89743498  0.96494025  7.06773500
   7.04797327  3.03307312  7.16239515
   4.85047082  3.12078314  4.85516583
   1.09007989  1.12494594  6.77071597
   5.16994657  6.80710988  5.07335253
   2.86555226  5.06485685  1.17133162
   6.74303771  2.88481206  2.93834351
   7.04399208  4.82819239  0.94867340
   4.84353062  4.77610434  3.17854179
   7.13446656  7.01166700  3.15399140
   4.87728432  7.03629628  0.76094484
   1.12344525  5.15220330  2.83602725
   5.04195275  2.85036314  1.08824106
 


--------------------------------------------------------------------------------------------------------


 k-point  1 :   0.0000 0.0000 0.0000  plane waves:   14771
 k-point  2 :   0.2500 0.0000 0.0000  plane waves:   14742
 k-point  3 :   0.5000 0.0000 0.0000  plane waves:   14662
 k-point  4 :   0.0000 0.2500 0.0000  plane waves:   14742
 k-point  5 :   0.2500 0.2500 0.0000  plane waves:   14750
 k-point  6 :   0.5000 0.2500 0.0000  plane waves:   14666
 k-point  7 :  -0.2500 0.2500 0.0000  plane waves:   14750
 k-point  8 :   0.0000 0.5000 0.0000  plane waves:   14662
 k-point  9 :   0.2500 0.5000 0.0000  plane waves:   14666
 k-point 10 :   0.5000 0.5000 0.0000  plane waves:   14676
 k-point 11 :   0.0000 0.0000 0.2500  plane waves:   14742
 k-point 12 :   0.2500 0.0000 0.2500  plane waves:   14750
 k-point 13 :   0.5000 0.0000 0.2500  plane waves:   14666
 k-point 14 :  -0.2500 0.0000 0.2500  plane waves:   14750
 k-point 15 :   0.0000 0.2500 0.2500  plane waves:   14750
 k-point 16 :   0.2500 0.2500 0.2500  plane waves:   14676
 k-point 17 :   0.5000 0.2500 0.2500  plane waves:   14700
 k-point 18 :  -0.2500 0.2500 0.2500  plane waves:   14676
 k-point 19 :   0.0000 0.5000 0.2500  plane waves:   14666
 k-point 20 :   0.2500 0.5000 0.2500  plane waves:   14700
 k-point 21 :   0.5000 0.5000 0.2500  plane waves:   14772
 k-point 22 :  -0.2500 0.5000 0.2500  plane waves:   14700
 k-point 23 :   0.0000-0.2500 0.2500  plane waves:   14750
 k-point 24 :   0.2500-0.2500 0.2500  plane waves:   14676
 k-point 25 :   0.5000-0.2500 0.2500  plane waves:   14700
 k-point 26 :  -0.2500-0.2500 0.2500  plane waves:   14676
 k-point 27 :   0.0000 0.0000 0.5000  plane waves:   14662
 k-point 28 :   0.2500 0.0000 0.5000  plane waves:   14666
 k-point 29 :   0.5000 0.0000 0.5000  plane waves:   14676
 k-point 30 :   0.0000 0.2500 0.5000  plane waves:   14666
 k-point 31 :   0.2500 0.2500 0.5000  plane waves:   14700
 k-point 32 :   0.5000 0.2500 0.5000  plane waves:   14772
 k-point 33 :  -0.2500 0.2500 0.5000  plane waves:   14700
 k-point 34 :   0.0000 0.5000 0.5000  plane waves:   14676
 k-point 35 :   0.2500 0.5000 0.5000  plane waves:   14772
 k-point 36 :   0.5000 0.5000 0.5000  plane waves:   14832

 maximum and minimum number of plane-waves per node :     14832    14662

 maximum number of plane-waves:     14832
 maximum index in each direction: 
   IXMAX=   15   IYMAX=   15   IZMAX=   15
   IXMIN=  -15   IYMIN=  -15   IZMIN=  -15

 The following grids will avoid any aliasing or wrap around errors in the Hartre
 e energy
  - symmetry arguments have not been applied
  - exchange correlation energies might require even more grid points
  - we recommend to set PREC=Normal or Accurate and rely on VASP defaults
 NGX is ok and might be reduce to    64
 NGY is ok and might be reduce to    64
 NGZ is ok and might be reduce to    64

 serial   3D FFT for wavefunctions
 parallel 3D FFT for charge:
    minimum data exchange during FFTs selected (reduces bandwidth)


 total amount of memory used by VASP MPI-rank0   359839. kBytes
=======================================================================

   base      :      30000. kBytes
   nonlr-proj:      25393. kBytes
   fftplans  :       5538. kBytes
   grid      :      31719. kBytes
   one-center:       1492. kBytes
   wavefun   :     265697. kBytes
 
     INWAV:  cpu time    0.0000: real time    0.0000
 Broyden mixing: mesh for mixing (old mesh)
   NGX = 31   NGY = 31   NGZ = 31
  (NGX  =128   NGY  =128   NGZ  =128)
  gives a total of  29791 points

 initial charge density was supplied:
 charge density of overlapping atoms calculated
 number of electron     352.0000000 magnetization      40.0000000
 keeping initial charge density in first step


--------------------------------------------------------------------------------------------------------


 Maximum index for non-local projection operator         5916
 Maximum index for augmentation-charges          995 (set IRDMAX)


--------------------------------------------------------------------------------------------------------


 First call to EWALD:  gamma=   0.213
 Maximum number of real-space cells 3x 3x 3
 Maximum number of reciprocal cells 3x 3x 3

    FEWALD:  cpu time    0.0021: real time    0.0021


--------------------------------------- Iteration      1(   1)  ---------------------------------------


    POTLOK:  cpu time    0.1660: real time    0.6298
    SETDIJ:  cpu time    0.0167: real time    0.0167
     EDDAV:  cpu time   71.9435: real time   72.1321
    --------------------------------------------
      LOOP:  cpu time   72.1294: real time   72.7819

 eigenvalue-minimisations  : 34592
 total energy-change (2. order) : 0.4343560E+04  (-0.1531043E+05)
 number of electron     352.0000000 magnetization      40.0000000
 augmentation part      352.0000000 magnetization      40.0000000

 Free energy of the ion-electron system (eV)
  ---------------------------------------------------
  alpha Z        PSCENC =       945.17957177
  Ewald energy   TEWEN  =    -18509.68098616
  -Hartree energ DENC   =    -12868.50901341
  -exchange      EXHF   =         0.00000000
  -V(xc)+E(xc)   XCENC  =      1409.53415265
  PAW double counting   =     26463.90193480   -27579.55909067
  entropy T*S    EENTRO =        -0.00930206
  eigenvalues    EBANDS =      3469.03087452
  atomic energy  EATOM  =     31013.67235384
  Solvation  Ediel_sol  =         0.00000000
  ---------------------------------------------------
  free energy    TOTEN  =      4343.56049528 eV

  energy without entropy =     4343.56979734  energy(sigma->0) =     4343.56514631


--------------------------------------------------------------------------------------------------------




--------------------------------------- Iteration      1(   2)  ---------------------------------------


     EDDAV:  cpu time   73.7690: real time   73.9441
    --------------------------------------------
      LOOP:  cpu time   73.7690: real time   73.9441

 eigenvalue-minimisations  : 36176
 total energy-change (2. order) :-0.3847004E+04  (-0.3445976E+04)
 number of electron     352.0000000 magnetization      40.0000000
 augmentation part      352.0000000 magnetization      40.0000000

 Free energy of the ion-electron system (eV)
  ---------------------------------------------------
  alpha Z        PSCENC =       945.17957177
  Ewald energy   TEWEN  =    -18509.68098616
  -Hartree energ DENC   =    -12868.50901341
  -exchange      EXHF   =         0.00000000
  -V(xc)+E(xc)   XCENC  =      1409.53415265
  PAW double counting   =     26463.90193480   -27579.55909067
  entropy T*S    EENTRO =        -0.03100242
  eigenvalues    EBANDS =      -377.95133215
  atomic energy  EATOM  =     31013.67235384
  Solvation  Ediel_sol  =         0.00000000
  ---------------------------------------------------
  free energy    TOTEN  =       496.55658826 eV

  energy without entropy =      496.58759067  energy(sigma->0) =      496.57208946


--------------------------------------------------------------------------------------------------------




--------------------------------------- Iteration      1(   3)  ---------------------------------------


     EDDAV:  cpu time   74.4808: real time   74.6574
    --------------------------------------------
      LOOP:  cpu time   74.4814: real time   74.6580

 eigenvalue-minimisations  : 36480
 total energy-change (2. order) :-0.8360077E+03  (-0.7592050E+03)
 number of electron     352.0000000 magnetization      40.0000000
 augmentation part      352.0000000 magnetization      40.0000000

 Free energy of the ion-electron system (eV)
  ---------------------------------------------------
  alpha Z        PSCENC =       945.17957177
  Ewald energy   TEWEN  =    -18509.68098616
  -Hartree energ DENC   =    -12868.50901341
  -exchange      EXHF   =         0.00000000
  -V(xc)+E(xc)   XCENC  =      1409.53415265
  PAW double counting   =     26463.90193480   -27579.55909067
  entropy T*S    EENTRO =        -0.11039752
  eigenvalues    EBANDS =     -1213.87966032
  atomic energy  EATOM  =     31013.67235384
  Solvation  Ediel_sol  =         0.00000000
  ---------------------------------------------------
  free energy    TOTEN  =      -339.45113502 eV

  energy without entropy =     -339.34073750  energy(sigma->0) =     -339.39593626


--------------------------------------------------------------------------------------------------------




--------------------------------------- Iteration      1(   4)  ---------------------------------------


     EDDAV:  cpu time   71.8618: real time   72.0325
    --------------------------------------------
      LOOP:  cpu time   71.8612: real time   72.0319

 eigenvalue-minimisations  : 39072
 total energy-change (2. order) :-0.7170347E+02  (-0.6992690E+02)
 number of electron     352.0000000 magnetization      40.0000000
 augmentation part      352.0000000 magnetization      40.0000000

 Free energy of the ion-electron system (eV)
  ---------------------------------------------------
  alpha Z        PSCENC =       945.17957177
  Ewald energy   TEWEN  =    -18509.68098616
  -Hartree energ DENC   =    -12868.50901341
  -exchange      EXHF   =         0.00000000
  -V(xc)+E(xc)   XCENC  =      1409.53415265
  PAW double counting   =     26463.90193480   -27579.55909067
  entropy T*S    EENTRO =        -0.13351673
  eigenvalues    EBANDS =     -1285.56000644
  atomic energy  EATOM  =     31013.67235384
  Solvation  Ediel_sol  =         0.00000000
  ---------------------------------------------------
  free energy    TOTEN  =      -411.15460036 eV

  energy without entropy =     -411.02108362  energy(sigma->0) =     -411.08784199


--------------------------------------------------------------------------------------------------------




--------------------------------------- Iteration      1(   5)  ---------------------------------------


     EDDAV:  cpu time   69.4779: real time   69.6474
    CHARGE:  cpu time    2.6990: real time    2.7054
    MIXING:  cpu time    0.0026: real time    0.0026
    --------------------------------------------
      LOOP:  cpu time   72.1764: real time   72.3523

 eigenvalue-minimisations  : 38544
 total energy-change (2. order) :-0.1864776E+01  (-0.1855351E+01)
 number of electron     352.0000019 magnetization      47.2834352
 augmentation part       98.8504722 magnetization      33.7102115

 Broyden mixing:
  rms(total) = 0.12325E+02    rms(broyden)= 0.12324E+02
  rms(prec ) = 0.16174E+02
  weight for this iteration     100.00

 Free energy of the ion-electron system (eV)
  ---------------------------------------------------
  alpha Z        PSCENC =       945.17957177
  Ewald energy   TEWEN  =    -18509.68098616
  -Hartree energ DENC   =    -12868.50901341
  -exchange      EXHF   =         0.00000000
  -V(xc)+E(xc)   XCENC  =      1409.53415265
  PAW double counting   =     26463.90193480   -27579.55909067
  entropy T*S    EENTRO =        -0.13336544
  eigenvalues    EBANDS =     -1287.42493353
  atomic energy  EATOM  =     31013.67235384
  Solvation  Ediel_sol  =         0.00000000
  ---------------------------------------------------
  free energy    TOTEN  =      -413.01937615 eV

  energy without entropy =     -412.88601071  energy(sigma->0) =     -412.95269343


--------------------------------------------------------------------------------------------------------




--------------------------------------- Iteration      1(   6)  ---------------------------------------


    POTLOK:  cpu time    0.1148: real time    0.1151
    SETDIJ:  cpu time    0.0149: real time    0.0149
     EDDAV:  cpu time   97.8424: real time   98.0997
    CHARGE:  cpu time    3.2658: real time    3.3003
    MIXING:  cpu time    0.0065: real time    0.0437
    --------------------------------------------
      LOOP:  cpu time  101.2444: real time  101.5737

 eigenvalue-minimisations  : 54864
 total energy-change (2. order) :-0.1501059E+03  (-0.1180524E+03)
 number of electron     352.0000015 magnetization      39.8079434
 augmentation part      139.0718434 magnetization      38.1911057

 Broyden mixing:
  rms(total) = 0.24696E+02    rms(broyden)= 0.24695E+02
  rms(prec ) = 0.28207E+02
  weight for this iteration     100.00

 eigenvalues of (default mixing * dielectric matrix)
  average eigenvalue GAMMA=   0.2281
  0.2281

 Free energy of the ion-electron system (eV)
  ---------------------------------------------------
  alpha Z        PSCENC =       945.17957177
  Ewald energy   TEWEN  =    -18509.68098616
  -Hartree energ DENC   =    -12189.81427618
  -exchange      EXHF   =         0.00000000
  -V(xc)+E(xc)   XCENC  =      1429.63198933
  PAW double counting   =     28445.14942875   -29349.96735360
  entropy T*S    EENTRO =        -0.04583814
  eigenvalues    EBANDS =     -2347.25017970
  atomic energy  EATOM  =     31013.67235384
  Solvation  Ediel_sol  =         0.00000000
  ---------------------------------------------------
  free energy    TOTEN  =      -563.12529010 eV

  energy without entropy =     -563.07945196  energy(sigma->0) =     -563.10237103


--------------------------------------------------------------------------------------------------------




--------------------------------------- Iteration      1(   7)  ---------------------------------------


    POTLOK:  cpu time    0.1414: real time    0.1417
    SETDIJ:  cpu time    0.0172: real time    0.0172
     EDDAV:  cpu time   90.2308: real time   90.4444
    CHARGE:  cpu time    3.2443: real time    3.2520
    MIXING:  cpu time    0.0044: real time    0.0182
    --------------------------------------------
      LOOP:  cpu time   93.6380: real time   93.8735

 eigenvalue-minimisations  : 46208
 total energy-change (2. order) : 0.2201059E+03  (-0.3337278E+02)
 number of electron     352.0000009 magnetization      32.1294987
 augmentation part      128.4572888 magnetization      30.8647387

 Broyden mixing:
  rms(total) = 0.10902E+02    rms(broyden)= 0.10900E+02
  rms(prec ) = 0.14138E+02
  weight for this iteration     100.00

 eigenvalues of (default mixing * dielectric matrix)
  average eigenvalue GAMMA=   0.4906
  0.4906  0.4906

 Free energy of the ion-electron system (eV)
  ---------------------------------------------------
  alpha Z        PSCENC =       945.17957177
  Ewald energy   TEWEN  =    -18509.68098616
  -Hartree energ DENC   =    -12462.29902557
  -exchange      EXHF   =         0.00000000
  -V(xc)+E(xc)   XCENC  =      1410.23846262
  PAW double counting   =     29733.49718594   -30783.49941621
  entropy T*S    EENTRO =        -0.02741965
  eigenvalues    EBANDS =     -1690.10009842
  atomic energy  EATOM  =     31013.67235384
  Solvation  Ediel_sol  =         0.00000000
  ---------------------------------------------------
  free energy    TOTEN  =      -343.01937183 eV

  energy without entropy =     -342.99195218  energy(sigma->0) =     -343.00566201


--------------------------------------------------------------------------------------------------------




--------------------------------------- Iteration      1(   8)  ---------------------------------------


    POTLOK:  cpu time    0.1345: real time    0.1348
    SETDIJ:  cpu time    0.0171: real time    0.0172
     EDDAV:  cpu time  104.3830: real time  104.6304
    CHARGE:  cpu time    3.1516: real time    3.1591
    MIXING:  cpu time    0.0037: real time    0.0053
    --------------------------------------------
      LOOP:  cpu time  107.6900: real time  107.9468

 eigenvalue-minimisations  : 55136
 total energy-change (2. order) :-0.3759132E+01  (-0.2052564E+02)
 number of electron     352.0000023 magnetization      26.8055547
 augmentation part      126.5466542 magnetization      21.5903296

 Broyden mixing:
  rms(total) = 0.10809E+02    rms(broyden)= 0.10808E+02
  rms(prec ) = 0.16118E+02
  weight for this iteration     100.00

 eigenvalues of (default mixing * dielectric matrix)
  average eigenvalue GAMMA=   0.4590
  0.5887  0.5887  0.1997

 Free energy of the ion-electron system (eV)
  ---------------------------------------------------
  alpha Z        PSCENC =       945.17957177
  Ewald energy   TEWEN  =    -18509.68098616
  -Hartree energ DENC   =    -12482.57091584
  -exchange      EXHF   =         0.00000000
  -V(xc)+E(xc)   XCENC  =      1401.86747037
  PAW double counting   =     30323.36843951   -31438.73731597
  entropy T*S    EENTRO =        -0.04176531
  eigenvalues    EBANDS =     -1599.83535608
  atomic energy  EATOM  =     31013.67235384
  Solvation  Ediel_sol  =         0.00000000
  ---------------------------------------------------
  free energy    TOTEN  =      -346.77850386 eV

  energy without entropy =     -346.73673855  energy(sigma->0) =     -346.75762121


--------------------------------------------------------------------------------------------------------




--------------------------------------- Iteration      1(   9)  ---------------------------------------


    POTLOK:  cpu time    0.1340: real time    0.1343
    SETDIJ:  cpu time    0.0171: real time    0.0171
     EDDAV:  cpu time   95.9926: real time   96.2201
    CHARGE:  cpu time    3.2761: real time    3.2838
    MIXING:  cpu time    0.0034: real time    0.0034
    --------------------------------------------
      LOOP:  cpu time   99.4231: real time   99.6587

 eigenvalue-minimisations  : 49728
 total energy-change (2. order) : 0.3723375E+02  (-0.2182332E+02)
 number of electron     352.0000015 magnetization      24.4966395
 augmentation part      107.9990036 magnetization      19.5060791

 Broyden mixing:
  rms(total) = 0.79938E+01    rms(broyden)= 0.79914E+01
  rms(prec ) = 0.12615E+02
  weight for this iteration     100.00

 eigenvalues of (default mixing * dielectric matrix)
  average eigenvalue GAMMA=   0.4102
  0.6195  0.6195  0.2009  0.2009

 Free energy of the ion-electron system (eV)
  ---------------------------------------------------
  alpha Z        PSCENC =       945.17957177
  Ewald energy   TEWEN  =    -18509.68098616
  -Hartree energ DENC   =    -12614.04866847
  -exchange      EXHF   =         0.00000000
  -V(xc)+E(xc)   XCENC  =      1399.59522470
  PAW double counting   =     31108.41022548   -32265.59171599
  entropy T*S    EENTRO =        -0.04160159
  eigenvalues    EBANDS =     -1387.03915559
  atomic energy  EATOM  =     31013.67235384
  Solvation  Ediel_sol  =         0.00000000
  ---------------------------------------------------
  free energy    TOTEN  =      -309.54475202 eV

  energy without entropy =     -309.50315043  energy(sigma->0) =     -309.52395122


--------------------------------------------------------------------------------------------------------




--------------------------------------- Iteration      1(  10)  ---------------------------------------


    POTLOK:  cpu time    0.1335: real time    0.1338
    SETDIJ:  cpu time    0.0172: real time    0.0172
     EDDAV:  cpu time   90.6579: real time   90.8727
    CHARGE:  cpu time    3.3979: real time    3.4060
    MIXING:  cpu time    0.0036: real time    0.0036
    --------------------------------------------
      LOOP:  cpu time   94.2100: real time   94.4332

 eigenvalue-minimisations  : 46480
 total energy-change (2. order) : 0.1218634E+02  (-0.1477251E+02)
 number of electron     352.0000021 magnetization      20.9493086
 augmentation part      109.2945533 magnetization      19.0574739

 Broyden mixing:
  rms(total) = 0.58949E+01    rms(broyden)= 0.58936E+01
  rms(prec ) = 0.83796E+01
  weight for this iteration     100.00

 eigenvalues of (default mixing * dielectric matrix)
  average eigenvalue GAMMA=   0.3609
  0.6294  0.6294  0.2365  0.2365  0.0724

 Free energy of the ion-electron system (eV)
  ---------------------------------------------------
  alpha Z        PSCENC =       945.17957177
  Ewald energy   TEWEN  =    -18509.68098616
  -Hartree energ DENC   =    -12583.42535771
  -exchange      EXHF   =         0.00000000
  -V(xc)+E(xc)   XCENC  =      1397.86050148
  PAW double counting   =     31402.89764097   -32561.45645414
  entropy T*S    EENTRO =        -0.08104091
  eigenvalues    EBANDS =     -1402.32463999
  atomic energy  EATOM  =     31013.67235384
  Solvation  Ediel_sol  =         0.00000000
  ---------------------------------------------------
  free energy    TOTEN  =      -297.35841085 eV

  energy without entropy =     -297.27736994  energy(sigma->0) =     -297.31789040


--------------------------------------------------------------------------------------------------------




--------------------------------------- Iteration      1(  11)  ---------------------------------------


    POTLOK:  cpu time    0.1335: real time    0.1338
    SETDIJ:  cpu time    0.0170: real time    0.0170
     EDDAV:  cpu time   98.7644: real time   98.9984
    CHARGE:  cpu time    3.2488: real time    3.2565
    MIXING:  cpu time    0.0037: real time    0.0037
    --------------------------------------------
      LOOP:  cpu time  102.1673: real time  102.4094

 eigenvalue-minimisations  : 51744
 total energy-change (2. order) : 0.1052350E+02  (-0.3245798E+01)
 number of electron     352.0000020 magnetization      18.7902800
 augmentation part      112.3853830 magnetization      17.8015477

 Broyden mixing:
  rms(total) = 0.34234E+01    rms(broyden)= 0.34220E+01
  rms(prec ) = 0.49418E+01
  weight for this iteration     100.00

 eigenvalues of (default mixing * dielectric matrix)
  average eigenvalue GAMMA=   0.3754
  0.6749  0.6749  0.2940  0.2940  0.2095  0.1050

 Free energy of the ion-electron system (eV)
  ---------------------------------------------------
  alpha Z        PSCENC =       945.17957177
  Ewald energy   TEWEN  =    -18509.68098616
  -Hartree energ DENC   =    -12540.17657761
  -exchange      EXHF   =         0.00000000
  -V(xc)+E(xc)   XCENC  =      1395.73176387
  PAW double counting   =     31719.42226864   -32873.86241144
  entropy T*S    EENTRO =        -0.03683666
  eigenvalues    EBANDS =     -1437.08405574
  atomic energy  EATOM  =     31013.67235384
  Solvation  Ediel_sol  =         0.00000000
  ---------------------------------------------------
  free energy    TOTEN  =      -286.83490948 eV

  energy without entropy =     -286.79807281  energy(sigma->0) =     -286.81649115


--------------------------------------------------------------------------------------------------------




--------------------------------------- Iteration      1(  12)  ---------------------------------------


    POTLOK:  cpu time    0.1337: real time    0.1340
    SETDIJ:  cpu time    0.0171: real time    0.0172
     EDDAV:  cpu time   89.6785: real time   89.8910
    CHARGE:  cpu time    3.3076: real time    3.3154
    MIXING:  cpu time    0.0037: real time    0.0037
    --------------------------------------------
      LOOP:  cpu time   93.1407: real time   93.3614

 eigenvalue-minimisations  : 45728
 total energy-change (2. order) :-0.7497380E+00  (-0.4909127E+01)
 number of electron     352.0000020 magnetization      16.3362029
 augmentation part      112.5118232 magnetization      14.2557044

 Broyden mixing:
  rms(total) = 0.45122E+01    rms(broyden)= 0.45113E+01
  rms(prec ) = 0.67924E+01
  weight for this iteration     100.00

 eigenvalues of (default mixing * dielectric matrix)
  average eigenvalue GAMMA=   0.3814
  0.7269  0.7269  0.3875  0.3875  0.2268  0.1253  0.0887

 Free energy of the ion-electron system (eV)
  ---------------------------------------------------
  alpha Z        PSCENC =       945.17957177
  Ewald energy   TEWEN  =    -18509.68098616
  -Hartree energ DENC   =    -12530.09125372
  -exchange      EXHF   =         0.00000000
  -V(xc)+E(xc)   XCENC  =      1395.16880412
  PAW double counting   =     31824.02466070   -32975.70552354
  entropy T*S    EENTRO =        -0.05373422
  eigenvalues    EBANDS =     -1450.09854025
  atomic energy  EATOM  =     31013.67235384
  Solvation  Ediel_sol  =         0.00000000
  ---------------------------------------------------
  free energy    TOTEN  =      -287.58464745 eV

  energy without entropy =     -287.53091323  energy(sigma->0) =     -287.55778034


--------------------------------------------------------------------------------------------------------




--------------------------------------- Iteration      1(  13)  ---------------------------------------


    POTLOK:  cpu time    0.1336: real time    0.1340
    SETDIJ:  cpu time    0.0172: real time    0.0172
     EDDAV:  cpu time   90.6490: real time   90.8637
    CHARGE:  cpu time    2.9082: real time    2.9150
    MIXING:  cpu time    0.0039: real time    0.0039
    --------------------------------------------
      LOOP:  cpu time   93.7118: real time   93.9338

 eigenvalue-minimisations  : 47344
 total energy-change (2. order) : 0.3338813E+01  (-0.3066992E+01)
 number of electron     352.0000019 magnetization      14.4491583
 augmentation part      113.4057251 magnetization      14.1691935

 Broyden mixing:
  rms(total) = 0.28521E+01    rms(broyden)= 0.28512E+01
  rms(prec ) = 0.39693E+01
  weight for this iteration     100.00

 eigenvalues of (default mixing * dielectric matrix)
  average eigenvalue GAMMA=   0.4031
  0.8225  0.8225  0.4646  0.4646  0.2412  0.2141  0.1037  0.0916

 Free energy of the ion-electron system (eV)
  ---------------------------------------------------
  alpha Z        PSCENC =       945.17957177
  Ewald energy   TEWEN  =    -18509.68098616
  -Hartree energ DENC   =    -12527.13185546
  -exchange      EXHF   =         0.00000000
  -V(xc)+E(xc)   XCENC  =      1394.87960024
  PAW double counting   =     31946.43435353   -33096.77769957
  entropy T*S    EENTRO =        -0.02432734
  eigenvalues    EBANDS =     -1450.79684572
  atomic energy  EATOM  =     31013.67235384
  Solvation  Ediel_sol  =         0.00000000
  ---------------------------------------------------
  free energy    TOTEN  =      -284.24583488 eV

  energy without entropy =     -284.22150754  energy(sigma->0) =     -284.23367121


--------------------------------------------------------------------------------------------------------




--------------------------------------- Iteration      1(  14)  ---------------------------------------


    POTLOK:  cpu time    0.1209: real time    0.1212
    SETDIJ:  cpu time    0.0151: real time    0.0152
     EDDAV:  cpu time   81.4471: real time   81.6531
    CHARGE:  cpu time    2.9493: real time    3.0012
    MIXING:  cpu time    0.0041: real time    0.0041
    --------------------------------------------
      LOOP:  cpu time   84.5365: real time   84.7948

 eigenvalue-minimisations  : 43712
 total energy-change (2. order) : 0.2197156E+01  (-0.6395927E+00)
 number of electron     352.0000019 magnetization      10.2063874
 augmentation part      113.8031795 magnetization      10.7860090

 Broyden mixing:
  rms(total) = 0.20275E+01    rms(broyden)= 0.20269E+01
  rms(prec ) = 0.25543E+01
  weight for this iteration     100.00

 eigenvalues of (default mixing * dielectric matrix)
  average eigenvalue GAMMA=   0.4180
  0.9741  0.9741  0.4861  0.4861  0.2601  0.2248  0.1460  0.1205  0.0904

 Free energy of the ion-electron system (eV)
  ---------------------------------------------------
  alpha Z        PSCENC =       945.17957177
  Ewald energy   TEWEN  =    -18509.68098616
  -Hartree energ DENC   =    -12526.18098540
  -exchange      EXHF   =         0.00000000
  -V(xc)+E(xc)   XCENC  =      1394.55180327
  PAW double counting   =     32012.62195161   -33162.28898497
  entropy T*S    EENTRO =        -0.00290579
  eigenvalues    EBANDS =     -1449.92049694
  atomic energy  EATOM  =     31013.67235384
  Solvation  Ediel_sol  =         0.00000000
  ---------------------------------------------------
  free energy    TOTEN  =      -282.04867879 eV

  energy without entropy =     -282.04577299  energy(sigma->0) =     -282.04722589


--------------------------------------------------------------------------------------------------------




--------------------------------------- Iteration      1(  15)  ---------------------------------------


    POTLOK:  cpu time    0.1330: real time    0.1333
    SETDIJ:  cpu time    0.0170: real time    0.0170
     EDDAV:  cpu time   99.1651: real time   99.3999
    CHARGE:  cpu time    3.1379: real time    3.1454
    MIXING:  cpu time    0.0042: real time    0.0042
    --------------------------------------------
      LOOP:  cpu time  102.4572: real time  102.6999

 eigenvalue-minimisations  : 51952
 total energy-change (2. order) : 0.4182240E+00  (-0.1917681E+00)
 number of electron     352.0000018 magnetization       5.1603841
 augmentation part      114.3745807 magnetization       5.4880116

 Broyden mixing:
  rms(total) = 0.13803E+01    rms(broyden)= 0.13801E+01
  rms(prec ) = 0.17573E+01
  weight for this iteration     100.00

 eigenvalues of (default mixing * dielectric matrix)
  average eigenvalue GAMMA=   0.4788
  1.1736  1.1736  0.5005  0.5005  0.4231  0.4231  0.2400  0.1527  0.1110  0.0904

 Free energy of the ion-electron system (eV)
  ---------------------------------------------------
  alpha Z        PSCENC =       945.17957177
  Ewald energy   TEWEN  =    -18509.68098616
  -Hartree energ DENC   =    -12520.90384346
  -exchange      EXHF   =         0.00000000
  -V(xc)+E(xc)   XCENC  =      1393.98342333
  PAW double counting   =     32152.97591476   -33300.11087037
  entropy T*S    EENTRO =        -0.00036289
  eigenvalues    EBANDS =     -1456.74565565
  atomic energy  EATOM  =     31013.67235384
  Solvation  Ediel_sol  =         0.00000000
  ---------------------------------------------------
  free energy    TOTEN  =      -281.63045482 eV

  energy without entropy =     -281.63009193  energy(sigma->0) =     -281.63027338


--------------------------------------------------------------------------------------------------------




--------------------------------------- Iteration      1(  16)  ---------------------------------------


    POTLOK:  cpu time    0.1349: real time    0.1352
    SETDIJ:  cpu time    0.0170: real time    0.0170
     EDDAV:  cpu time   91.1950: real time   91.4111
    CHARGE:  cpu time    3.2228: real time    3.2305
    MIXING:  cpu time    0.0082: real time    0.0550
    --------------------------------------------
      LOOP:  cpu time   94.5779: real time   94.8488

 eigenvalue-minimisations  : 47072
 total energy-change (2. order) :-0.1305974E+01  (-0.2670051E+00)
 number of electron     352.0000020 magnetization       0.6253286
 augmentation part      114.8528401 magnetization       0.6637917

 Broyden mixing:
  rms(total) = 0.16377E+01    rms(broyden)= 0.16373E+01
  rms(prec ) = 0.23466E+01
  weight for this iteration     100.00

 eigenvalues of (default mixing * dielectric matrix)
  average eigenvalue GAMMA=   0.4692
  0.9800  0.9800  1.0138  0.4607  0.4607  0.4637  0.2400  0.2122  0.1489  0.1109
  0.0904

 Free energy of the ion-electron system (eV)
  ---------------------------------------------------
  alpha Z        PSCENC =       945.17957177
  Ewald energy   TEWEN  =    -18509.68098616
  -Hartree energ DENC   =    -12514.24014320
  -exchange      EXHF   =         0.00000000
  -V(xc)+E(xc)   XCENC  =      1393.46571391
  PAW double counting   =     32420.52293343   -33567.49666710
  entropy T*S    EENTRO =        -0.00099954
  eigenvalues    EBANDS =     -1464.35820539
  atomic energy  EATOM  =     31013.67235384
  Solvation  Ediel_sol  =         0.00000000
  ---------------------------------------------------
  free energy    TOTEN  =      -282.93642845 eV

  energy without entropy =     -282.93542891  energy(sigma->0) =     -282.93592868


--------------------------------------------------------------------------------------------------------




--------------------------------------- Iteration      1(  17)  ---------------------------------------


    POTLOK:  cpu time    0.1426: real time    0.1429
    SETDIJ:  cpu time    0.0169: real time    0.0170
     EDDAV:  cpu time   89.8797: real time   90.0926
    CHARGE:  cpu time    3.1558: real time    3.1633
    MIXING:  cpu time    0.0046: real time    0.0046
    --------------------------------------------
      LOOP:  cpu time   93.1996: real time   93.4203

 eigenvalue-minimisations  : 46320
 total energy-change (2. order) : 0.6078127E+00  (-0.2066669E+00)
 number of electron     352.0000018 magnetization       0.1353953
 augmentation part      115.3931988 magnetization      -0.0446405

 Broyden mixing:
  rms(total) = 0.88916E+00    rms(broyden)= 0.88863E+00
  rms(prec ) = 0.11680E+01
  weight for this iteration     100.00

 eigenvalues of (default mixing * dielectric matrix)
  average eigenvalue GAMMA=   0.4945
  1.5224  0.8924  0.8924  0.5549  0.4676  0.4676  0.3644  0.2377  0.1856  0.1477
  0.1111  0.0904

 Free energy of the ion-electron system (eV)
  ---------------------------------------------------
  alpha Z        PSCENC =       945.17957177
  Ewald energy   TEWEN  =    -18509.68098616
  -Hartree energ DENC   =    -12504.97020666
  -exchange      EXHF   =         0.00000000
  -V(xc)+E(xc)   XCENC  =      1393.02849489
  PAW double counting   =     32770.26859120   -33919.69305892
  entropy T*S    EENTRO =        -0.00000514
  eigenvalues    EBANDS =     -1470.13337061
  atomic energy  EATOM  =     31013.67235384
  Solvation  Ediel_sol  =         0.00000000
  ---------------------------------------------------
  free energy    TOTEN  =      -282.32861578 eV

  energy without entropy =     -282.32861064  energy(sigma->0) =     -282.32861321


--------------------------------------------------------------------------------------------------------




--------------------------------------- Iteration      1(  18)  ---------------------------------------


    POTLOK:  cpu time    0.1336: real time    0.1339
    SETDIJ:  cpu time    0.0172: real time    0.0172
     EDDAV:  cpu time   91.5739: real time   91.7907
    CHARGE:  cpu time    3.0633: real time    3.0706
    MIXING:  cpu time    0.0048: real time    0.0048
    --------------------------------------------
      LOOP:  cpu time   94.7927: real time   95.0172

 eigenvalue-minimisations  : 47376
 total energy-change (2. order) : 0.1255601E+00  (-0.8683165E-01)
 number of electron     352.0000019 magnetization       0.1157896
 augmentation part      115.5683854 magnetization      -0.0443984

 Broyden mixing:
  rms(total) = 0.62071E+00    rms(broyden)= 0.62045E+00
  rms(prec ) = 0.77427E+00
  weight for this iteration     100.00

 eigenvalues of (default mixing * dielectric matrix)
  average eigenvalue GAMMA=   0.5148
  1.7490  0.9952  0.9952  0.5933  0.4670  0.4670  0.3880  0.2729  0.2381  0.0904
  0.1111  0.1485  0.1771

 Free energy of the ion-electron system (eV)
  ---------------------------------------------------
  alpha Z        PSCENC =       945.17957177
  Ewald energy   TEWEN  =    -18509.68098616
  -Hartree energ DENC   =    -12500.20240849
  -exchange      EXHF   =         0.00000000
  -V(xc)+E(xc)   XCENC  =      1392.84976523
  PAW double counting   =     32896.61261759   -34047.81536824
  entropy T*S    EENTRO =        -0.00009520
  eigenvalues    EBANDS =     -1472.81850604
  atomic energy  EATOM  =     31013.67235384
  Solvation  Ediel_sol  =         0.00000000
  ---------------------------------------------------
  free energy    TOTEN  =      -282.20305570 eV

  energy without entropy =     -282.20296050  energy(sigma->0) =     -282.20300810


--------------------------------------------------------------------------------------------------------




--------------------------------------- Iteration      1(  19)  ---------------------------------------


    POTLOK:  cpu time    0.1336: real time    0.1339
    SETDIJ:  cpu time    0.0171: real time    0.0171
     EDDAV:  cpu time   88.3465: real time   88.5557
    CHARGE:  cpu time    3.1630: real time    3.1706
    MIXING:  cpu time    0.0049: real time    0.0049
    --------------------------------------------
      LOOP:  cpu time   91.6650: real time   91.8822

 eigenvalue-minimisations  : 45248
 total energy-change (2. order) :-0.1098594E-01  (-0.3906430E-01)
 number of electron     352.0000018 magnetization       0.2386245
 augmentation part      115.6449430 magnetization       0.1505720

 Broyden mixing:
  rms(total) = 0.47180E+00    rms(broyden)= 0.47165E+00
  rms(prec ) = 0.60212E+00
  weight for this iteration     100.00

 eigenvalues of (default mixing * dielectric matrix)
  average eigenvalue GAMMA=   0.5300
  1.8920  1.0776  1.0776  0.4626  0.4626  0.5325  0.4685  0.4685  0.2342  0.2162
  0.0904  0.1111  0.1479  0.1778

 Free energy of the ion-electron system (eV)
  ---------------------------------------------------
  alpha Z        PSCENC =       945.17957177
  Ewald energy   TEWEN  =    -18509.68098616
  -Hartree energ DENC   =    -12495.72395905
  -exchange      EXHF   =         0.00000000
  -V(xc)+E(xc)   XCENC  =      1392.67167299
  PAW double counting   =     33013.04276527   -34166.40497238
  entropy T*S    EENTRO =        -0.00000366
  eigenvalues    EBANDS =     -1474.97048425
  atomic energy  EATOM  =     31013.67235384
  Solvation  Ediel_sol  =         0.00000000
  ---------------------------------------------------
  free energy    TOTEN  =      -282.21404163 eV

  energy without entropy =     -282.21403798  energy(sigma->0) =     -282.21403981


--------------------------------------------------------------------------------------------------------




--------------------------------------- Iteration      1(  20)  ---------------------------------------


    POTLOK:  cpu time    0.1335: real time    0.1338
    SETDIJ:  cpu time    0.0171: real time    0.0171
     EDDAV:  cpu time   87.9632: real time   88.1715
    CHARGE:  cpu time    3.0695: real time    3.0768
    MIXING:  cpu time    0.0052: real time    0.0052
    --------------------------------------------
      LOOP:  cpu time   91.1884: real time   91.4044

 eigenvalue-minimisations  : 45024
 total energy-change (2. order) : 0.9366293E-02  (-0.1577024E-01)
 number of electron     352.0000019 magnetization       0.4861240
 augmentation part      115.5978562 magnetization       0.4653907

 Broyden mixing:
  rms(total) = 0.35565E+00    rms(broyden)= 0.35555E+00
  rms(prec ) = 0.44553E+00
  weight for this iteration     100.00

 eigenvalues of (default mixing * dielectric matrix)
  average eigenvalue GAMMA=   0.5471
  1.9692  1.1552  1.1552  0.6480  0.6480  0.4620  0.4620  0.4719  0.2787  0.2402
  0.0904  0.1111  0.1477  0.1925  0.1748

 Free energy of the ion-electron system (eV)
  ---------------------------------------------------
  alpha Z        PSCENC =       945.17957177
  Ewald energy   TEWEN  =    -18509.68098616
  -Hartree energ DENC   =    -12493.69277622
  -exchange      EXHF   =         0.00000000
  -V(xc)+E(xc)   XCENC  =      1392.56449218
  PAW double counting   =     33090.02611601   -34245.31406653
  entropy T*S    EENTRO =        -0.00000788
  eigenvalues    EBANDS =     -1474.95937236
  atomic energy  EATOM  =     31013.67235384
  Solvation  Ediel_sol  =         0.00000000
  ---------------------------------------------------
  free energy    TOTEN  =      -282.20467534 eV

  energy without entropy =     -282.20466746  energy(sigma->0) =     -282.20467140


--------------------------------------------------------------------------------------------------------




--------------------------------------- Iteration      1(  21)  ---------------------------------------


    POTLOK:  cpu time    0.1337: real time    0.1340
    SETDIJ:  cpu time    0.0173: real time    0.0173
     EDDAV:  cpu time   92.7004: real time   92.9200
    CHARGE:  cpu time    3.0944: real time    3.1017
    MIXING:  cpu time    0.0054: real time    0.0054
    --------------------------------------------
      LOOP:  cpu time   95.9512: real time   96.1785

 eigenvalue-minimisations  : 47776
 total energy-change (2. order) : 0.2693430E-02  (-0.1011820E-01)
 number of electron     352.0000018 magnetization       0.3913956
 augmentation part      115.4797896 magnetization       0.4510762

 Broyden mixing:
  rms(total) = 0.26982E+00    rms(broyden)= 0.26975E+00
  rms(prec ) = 0.34360E+00
  weight for this iteration     100.00

 eigenvalues of (default mixing * dielectric matrix)
  average eigenvalue GAMMA=   0.5629
  2.1706  1.1539  1.1539  0.7715  0.7715  0.4627  0.4627  0.4852  0.3765  0.2468
  0.2403  0.0904  0.1111  0.1479  0.1905  0.1705

 Free energy of the ion-electron system (eV)
  ---------------------------------------------------
  alpha Z        PSCENC =       945.17957177
  Ewald energy   TEWEN  =    -18509.68098616
  -Hartree energ DENC   =    -12492.92144381
  -exchange      EXHF   =         0.00000000
  -V(xc)+E(xc)   XCENC  =      1392.50311522
  PAW double counting   =     33141.53041115   -34298.42314466
  entropy T*S    EENTRO =        -0.00000954
  eigenvalues    EBANDS =     -1474.06184972
  atomic energy  EATOM  =     31013.67235384
  Solvation  Ediel_sol  =         0.00000000
  ---------------------------------------------------
  free energy    TOTEN  =      -282.20198191 eV

  energy without entropy =     -282.20197237  energy(sigma->0) =     -282.20197714


--------------------------------------------------------------------------------------------------------




--------------------------------------- Iteration      1(  22)  ---------------------------------------


    POTLOK:  cpu time    0.1196: real time    0.1199
    SETDIJ:  cpu time    0.0165: real time    0.0165
     EDDAV:  cpu time   87.2933: real time   87.5001
    CHARGE:  cpu time    2.5034: real time    2.5093
    MIXING:  cpu time    0.0050: real time    0.0051
    --------------------------------------------
      LOOP:  cpu time   89.9379: real time   90.1509

 eigenvalue-minimisations  : 47520
 total energy-change (2. order) : 0.3895542E-02  (-0.4600937E-02)
 number of electron     352.0000018 magnetization       0.1765833
 augmentation part      115.4763005 magnetization       0.2623049

 Broyden mixing:
  rms(total) = 0.21010E+00    rms(broyden)= 0.21004E+00
  rms(prec ) = 0.28208E+00
  weight for this iteration     100.00

 eigenvalues of (default mixing * dielectric matrix)
  average eigenvalue GAMMA=   0.5728
  2.3674  1.1236  1.1236  0.9007  0.9007  0.4640  0.4640  0.5038  0.4175  0.3054
  0.0904  0.1111  0.2342  0.2262  0.1479  0.1861  0.1707

 Free energy of the ion-electron system (eV)
  ---------------------------------------------------
  alpha Z        PSCENC =       945.17957177
  Ewald energy   TEWEN  =    -18509.68098616
  -Hartree energ DENC   =    -12492.06918767
  -exchange      EXHF   =         0.00000000
  -V(xc)+E(xc)   XCENC  =      1392.47132744
  PAW double counting   =     33187.93707485   -34345.73208459
  entropy T*S    EENTRO =        -0.00000311
  eigenvalues    EBANDS =     -1473.97615274
  atomic energy  EATOM  =     31013.67235384
  Solvation  Ediel_sol  =         0.00000000
  ---------------------------------------------------
  free energy    TOTEN  =      -282.19808637 eV

  energy without entropy =     -282.19808326  energy(sigma->0) =     -282.19808482


--------------------------------------------------------------------------------------------------------




--------------------------------------- Iteration      1(  23)  ---------------------------------------


    POTLOK:  cpu time    0.1154: real time    0.1156
    SETDIJ:  cpu time    0.0150: real time    0.0150
     EDDAV:  cpu time   81.8311: real time   82.0371
    CHARGE:  cpu time    3.0883: real time    3.1182
    MIXING:  cpu time    0.0056: real time    0.0056
    --------------------------------------------
      LOOP:  cpu time   85.0554: real time   85.2916

 eigenvalue-minimisations  : 43968
 total energy-change (2. order) : 0.7910802E-02  (-0.2953988E-02)
 number of electron     352.0000019 magnetization       0.1167497
 augmentation part      115.5408462 magnetization       0.1957958

 Broyden mixing:
  rms(total) = 0.15383E+00    rms(broyden)= 0.15378E+00
  rms(prec ) = 0.20050E+00
  weight for this iteration     100.00

 eigenvalues of (default mixing * dielectric matrix)
  average eigenvalue GAMMA=   0.5868
  2.4632  1.0906  1.0906  1.0682  1.0682  0.6193  0.4636  0.4636  0.4222  0.4222
  0.2484  0.2453  0.0904  0.1111  0.1479  0.1959  0.1835  0.1682

 Free energy of the ion-electron system (eV)
  ---------------------------------------------------
  alpha Z        PSCENC =       945.17957177
  Ewald energy   TEWEN  =    -18509.68098616
  -Hartree energ DENC   =    -12491.51848827
  -exchange      EXHF   =         0.00000000
  -V(xc)+E(xc)   XCENC  =      1392.47731079
  PAW double counting   =     33218.70152581   -34376.75607964
  entropy T*S    EENTRO =        -0.00001006
  eigenvalues    EBANDS =     -1474.26537365
  atomic energy  EATOM  =     31013.67235384
  Solvation  Ediel_sol  =         0.00000000
  ---------------------------------------------------
  free energy    TOTEN  =      -282.19017557 eV

  energy without entropy =     -282.19016551  energy(sigma->0) =     -282.19017054


--------------------------------------------------------------------------------------------------------




--------------------------------------- Iteration      1(  24)  ---------------------------------------


    POTLOK:  cpu time    0.1337: real time    0.1340
    SETDIJ:  cpu time    0.0171: real time    0.0171
     EDDAV:  cpu time   98.4693: real time   98.7031
    CHARGE:  cpu time    3.0926: real time    3.1000
    MIXING:  cpu time    0.0060: real time    0.0092
    --------------------------------------------
      LOOP:  cpu time  101.7188: real time  101.9634

 eigenvalue-minimisations  : 51328
 total energy-change (2. order) : 0.3150286E-02  (-0.1419511E-02)
 number of electron     352.0000018 magnetization       0.1299769
 augmentation part      115.5762524 magnetization       0.2026521

 Broyden mixing:
  rms(total) = 0.98029E-01    rms(broyden)= 0.97999E-01
  rms(prec ) = 0.12973E+00
  weight for this iteration     100.00

 eigenvalues of (default mixing * dielectric matrix)
  average eigenvalue GAMMA=   0.6072
  2.5287  1.6044  1.0965  1.0965  0.8364  0.8364  0.4635  0.4635  0.4615  0.4615
  0.3048  0.2455  0.2455  0.0904  0.1111  0.1479  0.1933  0.1819  0.1677

 Free energy of the ion-electron system (eV)
  ---------------------------------------------------
  alpha Z        PSCENC =       945.17957177
  Ewald energy   TEWEN  =    -18509.68098616
  -Hartree energ DENC   =    -12491.80753493
  -exchange      EXHF   =         0.00000000
  -V(xc)+E(xc)   XCENC  =      1392.52171777
  PAW double counting   =     33227.66660609   -34385.67534252
  entropy T*S    EENTRO =        -0.00000490
  eigenvalues    EBANDS =     -1474.06340624
  atomic energy  EATOM  =     31013.67235384
  Solvation  Ediel_sol  =         0.00000000
  ---------------------------------------------------
  free energy    TOTEN  =      -282.18702528 eV

  energy without entropy =     -282.18702038  energy(sigma->0) =     -282.18702283


--------------------------------------------------------------------------------------------------------




--------------------------------------- Iteration      1(  25)  ---------------------------------------


    POTLOK:  cpu time    0.1338: real time    0.1341
    SETDIJ:  cpu time    0.0170: real time    0.0171
     EDDAV:  cpu time   97.3474: real time   97.5780
[...]
  0.000   0.000  -0.000   0.000   0.000  -0.000  -0.000   0.000  -0.000  -0.000  -0.000   0.000   0.000  -0.000  -0.000  -0.000


------------------------ aborting loop because EDIFF is reached ----------------------------------------


    CHARGE:  cpu time    3.1910: real time    3.1986
    FORLOC:  cpu time    0.0284: real time    0.0302
    FORNL :  cpu time   20.5872: real time   20.6359
    STRESS:  cpu time   61.8765: real time   62.0259
    FORCOR:  cpu time    0.1477: real time    0.1481
    FORHAR:  cpu time    0.0394: real time    0.0394
    MIXING:  cpu time    0.0077: real time    0.0077
    OFIELD:  cpu time    0.0000: real time    0.0000

  FORCE on cell =-STRESS in cart. coord.  units (eV):
  Direction    XX          YY          ZZ          XY          YZ          ZX
  --------------------------------------------------------------------------------------
  Alpha Z   945.17957   945.17957   945.17957
  Ewald   -6172.06193 -6166.15235 -6171.57839    42.84517   212.06956  -173.94868
  Hartree  4145.45866  4162.48189  4186.29494    32.32514   142.31632  -132.31903
  E(xc)   -1781.66739 -1781.67735 -1781.58446     0.00357     0.08064    -0.09500
  Local   -4718.40087 -4743.24929 -4767.94974   -74.97512  -346.08433   303.70032
  n-local  -799.49480  -799.98291  -801.19327     0.32674     0.29596     0.01101
  augment  3000.38254  3001.16985  3005.04604    -0.09365    -3.38169     1.37459
  Kinetic  5336.29521  5338.59812  5337.43961    -0.93966    -7.90853     3.19839
  Fock        0.00000     0.00000     0.00000     0.00000     0.00000     0.00000
  -------------------------------------------------------------------------------------
  Total      -44.3090062    -43.6324702    -48.3456874     -0.5078153     -2.6120776      1.9216036
  in kB     -122.4230209   -120.5537943   -133.5761194     -1.4030619     -7.2170076      5.3092709
  external PRESSURE =    -125.5176449 kB  Pullay stress =       0.0000000 kB


 VOLUME and BASIS-vectors are now :
 -----------------------------------------------------------------------------
  energy-cutoff  :      500.00
  volume of cell :      579.88
      direct lattice vectors                 reciprocal lattice vectors
     8.338984500  0.000000000  0.000000000     0.119918678  0.000000000  0.000000000
     0.000000000  8.338984500  0.000000000     0.000000000  0.119918678  0.000000000
     0.000000000  0.000000000  8.338984500     0.000000000  0.000000000  0.119918678

  length of vectors
     8.338984500  8.338984500  8.338984500     0.119918678  0.119918678  0.119918678


 FORCES acting on ions
    electron-ion (+dipol)            ewald-force                    non-local-force                 convergence-correction
 -----------------------------------------------------------------------------------------------
   0.220E+03 0.610E+02 0.228E+03   -.221E+03 -.647E+02 -.230E+03   -.111E+00 0.169E+01 -.181E-01   -.624E-01 -.180E-01 -.620E-01
   -.480E+02 -.219E+03 0.232E+03   0.507E+02 0.221E+03 -.233E+03   -.176E+01 -.721E+00 -.752E+00   -.223E-01 0.671E-01 -.575E-01
   0.309E+02 -.469E+02 0.440E+02   -.315E+02 0.450E+02 -.436E+02   -.122E+01 -.547E+00 0.304E+00   -.873E-01 -.909E-04 -.586E-01
   0.201E+03 -.212E+03 -.232E+01   -.203E+03 0.215E+03 0.344E+01   0.395E+00 0.409E+00 -.277E+01   -.752E-01 0.676E-01 -.586E-02
   0.226E+03 0.245E+03 0.453E+02   -.227E+03 -.247E+03 -.486E+02   -.862E+00 -.499E+00 0.209E+01   -.362E-01 -.117E-01 -.942E-02
   0.914E+02 0.500E+02 -.824E+02   -.920E+02 -.510E+02 0.821E+02   0.415E+00 -.661E+00 -.404E+00   -.107E+00 -.102E+00 0.594E-01
   -.258E+02 0.204E+03 -.221E+03   0.286E+02 -.205E+03 0.222E+03   -.156E+01 -.777E+00 0.687E-01   0.125E-01 -.649E-02 0.316E-01
   0.228E+03 -.260E+02 -.172E+03   -.229E+03 0.284E+02 0.174E+03   0.489E-01 -.156E+01 -.241E+00   -.289E-01 0.162E-01 0.268E-01
   -.833E+02 -.575E+02 -.999E+02   0.853E+02 0.581E+02 0.101E+03   -.752E+00 0.186E+00 0.146E+00   0.676E-01 0.350E-01 0.629E-01
   -.248E+03 -.246E+03 0.178E+02   0.252E+03 0.247E+03 -.213E+02   -.937E-02 -.663E+00 0.190E+01   0.762E-01 0.690E-01 -.526E-02
   -.235E+03 0.566E+02 -.196E+03   0.236E+03 -.603E+02 0.197E+03   0.753E+00 0.889E+00 -.127E+01   0.886E-01 -.245E-01 0.495E-01
   0.433E+02 -.275E+03 -.221E+03   -.452E+02 0.277E+03 0.224E+03   0.283E+01 0.529E+00 -.232E-01   -.199E-02 0.891E-01 0.524E-01
   0.699E+02 0.257E+03 0.238E+03   -.729E+02 -.258E+03 -.241E+03   0.179E+01 -.472E+00 0.199E+00   0.834E-02 -.717E-04 -.509E-01
   -.199E+03 -.265E+01 0.161E+03   0.200E+03 0.384E+01 -.163E+03   0.430E+00 -.150E+01 0.106E+01   0.259E-01 -.256E-01 -.418E-01
   -.297E+03 0.236E+03 -.297E+02   0.300E+03 -.237E+03 0.343E+02   -.840E-01 -.235E+00 -.134E+01   0.428E-01 -.270E-01 -.807E-02
   0.625E+01 0.757E+02 0.635E+02   -.721E+01 -.747E+02 -.639E+02   0.363E+00 0.599E+00 -.523E+00   0.351E-01 -.108E+00 -.975E-01
   -.277E+03 0.263E+03 0.293E+03   0.292E+03 -.277E+03 -.312E+03   -.157E+02 0.142E+02 0.182E+02   -.228E-01 0.323E-02 -.598E-02
   -.171E+03 -.298E+03 -.173E+03   0.185E+03 0.316E+03 0.188E+03   -.131E+02 -.175E+02 -.150E+02   -.635E-01 0.653E-01 -.587E-02
   0.227E+03 -.709E+02 -.451E+02   -.243E+03 0.794E+02 0.526E+02   0.174E+02 -.103E+02 -.908E+01   0.238E-01 0.119E-01 -.164E-01
   -.423E+02 -.743E+02 0.243E+03   0.493E+02 0.811E+02 -.260E+03   -.860E+01 -.840E+01 0.184E+02   -.195E-01 -.201E-01 0.102E-01
   0.251E+03 0.219E+03 0.234E+03   -.267E+03 -.232E+03 -.248E+03   0.173E+02 0.135E+02 0.155E+02   -.512E-01 -.597E-01 -.280E-01
   -.758E+02 0.232E+03 -.811E+02   0.836E+02 -.248E+03 0.887E+02   -.940E+01 0.171E+02 -.886E+01   -.174E-01 0.955E-03 -.265E-01
   0.181E+03 0.300E+03 -.180E+03   -.197E+03 -.318E+03 0.197E+03   0.151E+02 0.170E+02 -.176E+02   0.232E-01 -.373E-01 -.537E-01
   0.269E+03 -.295E+03 0.265E+03   -.284E+03 0.313E+03 -.277E+03   0.148E+02 -.168E+02 0.130E+02   -.379E-01 0.557E-02 0.743E-02
   -.321E+03 0.186E+03 0.134E+03   0.339E+03 -.199E+03 -.144E+03   -.175E+02 0.140E+02 0.115E+02   0.108E+00 0.242E-01 0.315E-01
   -.166E+03 -.165E+03 -.271E+03   0.181E+03 0.179E+03 0.287E+03   -.149E+02 -.155E+02 -.162E+02   -.392E-01 -.251E-01 0.273E-01
   0.275E+03 -.244E+03 -.239E+03   -.293E+03 0.262E+03 0.254E+03   0.164E+02 -.170E+02 -.152E+02   -.104E+00 -.913E-03 0.459E-01
   -.591E+02 -.246E+03 0.804E+02   0.662E+02 0.262E+03 -.878E+02   -.891E+01 -.178E+02 0.912E+01   -.245E-01 -.194E-01 0.191E-01
   0.279E+03 0.509E+02 0.488E+02   -.300E+03 -.579E+02 -.547E+02   0.208E+02 0.851E+01 0.711E+01   -.141E-01 0.313E-01 0.143E-01
   -.724E+02 0.573E+02 -.283E+03   0.791E+02 -.643E+02 0.304E+03   -.793E+01 0.854E+01 -.205E+02   -.245E-01 0.259E-01 -.291E-01
   0.184E+03 0.199E+03 -.268E+03   -.201E+03 -.217E+03 0.282E+03   0.163E+02 0.169E+02 -.135E+02   0.366E-01 0.942E-02 0.852E-01
   0.285E+03 -.191E+03 0.172E+03   -.301E+03 0.208E+03 -.187E+03   0.159E+02 -.157E+02 0.156E+02   -.250E-01 -.322E-01 0.279E-01
   -.185E+03 0.270E+03 0.146E+03   0.203E+03 -.284E+03 -.159E+03   -.176E+02 0.143E+02 0.148E+02   -.360E-01 -.133E-01 0.166E-01
   -.281E+03 -.290E+03 -.273E+03   0.295E+03 0.308E+03 0.289E+03   -.146E+02 -.164E+02 -.146E+02   0.288E-01 0.923E-02 0.429E-02
   0.371E+02 -.727E+02 -.239E+03   -.434E+02 0.814E+02 0.254E+03   0.778E+01 -.106E+02 -.163E+02   0.297E-01 -.172E-01 0.476E-03
   -.227E+03 -.551E+02 0.578E+02   0.242E+03 0.620E+02 -.644E+02   -.174E+02 -.850E+01 0.824E+01   0.507E-02 -.360E-02 0.365E-01
   0.610E+02 0.215E+03 0.112E+03   -.690E+02 -.230E+03 -.121E+03   0.939E+01 0.161E+02 0.119E+02   0.306E-01 -.448E-02 0.238E-01
   -.238E+03 0.258E+03 -.261E+03   0.254E+03 -.275E+03 0.278E+03   -.167E+02 0.165E+02 -.169E+02   0.124E-01 -.101E+00 0.422E-01
   0.264E+03 0.275E+03 -.270E+03   -.279E+03 -.290E+03 0.285E+03   0.160E+02 0.152E+02 -.149E+02   -.930E-02 0.141E-01 -.739E-02
   0.192E+03 -.279E+03 0.196E+03   -.210E+03 0.293E+03 -.214E+03   0.161E+02 -.136E+02 0.172E+02   0.460E-01 0.101E+00 0.223E-01
   -.168E+03 0.174E+03 0.305E+03   0.182E+03 -.190E+03 -.323E+03   -.140E+02 0.159E+02 0.170E+02   -.409E-01 -.122E-01 -.579E-01
   -.312E+03 -.174E+03 -.159E+03   0.329E+03 0.189E+03 0.173E+03   -.162E+02 -.157E+02 -.150E+02   0.557E-01 -.383E-01 -.342E-01
   0.599E+02 -.256E+03 -.876E+02   -.672E+02 0.275E+03 0.981E+02   0.868E+01 -.184E+02 -.125E+02   0.349E-01 -.138E-01 -.313E-01
   -.248E+03 -.224E+03 0.274E+03   0.266E+03 0.237E+03 -.293E+03   -.179E+02 -.128E+02 0.169E+02   0.415E-01 0.116E-01 -.884E-01
   0.788E+02 0.575E+02 0.253E+03   -.869E+02 -.655E+02 -.270E+03   0.946E+01 0.985E+01 0.172E+02   0.471E-01 0.322E-01 0.552E-02
   -.230E+03 0.557E+02 -.751E+02   0.246E+03 -.634E+02 0.812E+02   -.174E+02 0.948E+01 -.704E+01   0.198E-01 0.497E-01 -.183E-01
   0.265E+03 0.210E+03 -.182E+03   -.278E+03 -.230E+03 0.199E+03   0.124E+02 0.182E+02 -.153E+02   -.629E-01 0.375E-01 -.199E-01
   0.181E+03 -.181E+03 0.271E+03   -.197E+03 0.197E+03 -.286E+03   0.160E+02 -.166E+02 0.150E+02   0.219E-01 -.653E-01 -.487E-01
 -----------------------------------------------------------------------------------------------
   -.256E+01 0.952E+01 0.371E+01   0.853E-13 0.000E+00 -.512E-12   0.266E+01 -.953E+01 -.354E+01   -.914E-01 -.107E-01 -.166E+00
 
 
 POSITION                                       TOTAL-FORCE (eV/Angst)
 -----------------------------------------------------------------------------------
      0.97529      5.01287      1.02178        -0.969032     -2.079422     -2.358955
      2.98172      6.98803      1.02183         0.875603      1.030002     -2.168779
      3.05180      5.04684      2.96515        -1.932655     -2.463386      0.629915
      0.95830      6.91441      3.07523        -1.755370      2.827731     -1.656222
      1.08301      1.01555      4.93494        -2.225817     -2.406707     -1.155683
      2.98392      3.05389      4.98124        -0.258317     -1.722216     -0.706015
      2.97376      1.03858      6.97444         1.302725     -1.344725      0.725321
      0.95197      2.99767      6.92791        -1.236799      0.889401      2.125853
      4.96566      4.93728      4.93817         1.320587      0.758668      1.801236
      6.90474      7.00353      4.99735         3.770538      0.330306     -1.609973
      6.89579      5.02458      7.11734         2.209700     -2.820004     -0.753154
      4.92207      6.93214      6.85623         0.940048      2.794942      3.424261
      4.96372      1.01032      1.06881        -1.212829     -1.980235     -2.829024
      6.91513      3.02511      0.95867         1.799203     -0.346753     -0.830803
      6.93910      0.99186      2.88881         2.702495     -1.181356      3.201313
      4.92109      2.89679      3.02656        -0.556051      1.536060     -1.049420
      6.83896      1.12008      1.10871        -0.427497      0.531651     -0.763708
      2.81045      6.84283      2.85609         0.715671      1.048581      0.404926
      3.02403      0.86368      0.95410         1.599944     -1.737810     -1.647108
      0.94554      0.84827      3.07148        -1.580934     -1.619070      0.886249
      2.97264      3.06153      3.00541         1.462105      1.037154      1.505790
      0.81424      3.11375      0.79072        -1.598360      0.984309     -1.274161
      5.14781      1.08831      2.91529        -1.084066     -0.645841     -0.346250
      1.14186      6.78988      1.07159        -0.224454      1.070890      0.843317
      6.78067      5.07716      5.05022         0.853129      0.200510      1.051420
      2.83138      2.93835      6.90463        -0.259936     -0.704335     -0.749360
      3.17647      4.86278      4.82783        -1.355068      0.540389      0.142451
      0.93780      4.86351      7.07220        -1.911820     -0.931040      1.764775
      3.17972      7.11144      7.02144        -0.745181      1.561519      1.284104
      0.80372      7.04696      4.83130        -1.253411      1.556094      0.555571
      5.09994      5.15221      6.85753        -0.740453     -1.142922     -0.076435
      1.11171      2.79597      5.05318         0.216199      1.292982      0.191679
      2.92903      1.11168      5.01566        -0.295801      0.746643      1.301784
      6.85646      6.76264      6.79593        -0.562352      1.738634      0.955258
      7.01037      0.92252      4.81107         1.565635     -1.881611     -1.108305
      4.89743      0.96494      7.06773        -1.636626     -1.556408      1.649421
      7.04797      3.03307      7.16240         1.412739      1.855558      1.920041
      4.85047      3.12078      4.85517        -0.550012     -0.799370      0.402821
      1.09008      1.12495      6.77072         0.553928      0.012644      0.381361
      5.16995      6.80711      5.07335        -2.080579      0.418944     -0.916996
      2.86555      5.06486      1.17133         0.017680      0.754649     -1.076553
      6.74304      2.88481      2.93834         0.797486     -0.484132     -1.075387
      7.04399      4.82819      0.94867         1.339264      0.012468     -2.024356
      4.84353      4.77610      3.17854         0.565358      0.085072     -1.879345
      7.13447      7.01167      3.15399         1.374152      1.806778      0.319152
      4.87728      7.03630      0.76094        -1.195372      1.775914     -0.930093
      1.12345      5.15220      2.83603         0.050716     -1.184943      0.729155
      5.04195      2.85036      1.08824         0.203889     -0.166209      0.788913
 -----------------------------------------------------------------------------------
    total drift:                                0.002568     -0.013405      0.001786


--------------------------------------------------------------------------------------------------------



  FREE ENERGIE OF THE ION-ELECTRON SYSTEM (eV)
  ---------------------------------------------------
  free  energy   TOTEN  =      -282.1852705839 eV

  energy  without entropy=     -282.1852675387  energy(sigma->0) =     -282.18526906
 


--------------------------------------------------------------------------------------------------------


    POTLOK:  cpu time    0.1514: real time    0.1518


--------------------------------------------------------------------------------------------------------


     LOOP+:  cpu time 3142.9598: real time 3151.5733
    4ORBIT:  cpu time    0.0000: real time    0.0000

volume of typ            1:    17.6 %

volume of typ            2:     9.0 %
 
total charge     
 
# of ion       s       p       d       tot
------------------------------------------
    1        0.267   0.329   7.801   8.398
    2        0.256   0.304   7.796   8.357
    3        0.304   0.415   7.823   8.543
    4        0.278   0.339   7.801   8.418
    5        0.274   0.336   7.805   8.415
    6        0.286   0.377   7.809   8.472
    7        0.242   0.277   7.790   8.310
    8        0.259   0.313   7.786   8.358
    9        0.320   0.456   7.841   8.617
   10        0.277   0.351   7.806   8.434
   11        0.255   0.300   7.805   8.361
   12        0.287   0.357   7.814   8.458
   13        0.259   0.305   7.799   8.363
   14        0.259   0.314   7.786   8.359
   15        0.268   0.330   7.811   8.410
   16        0.298   0.407   7.820   8.525
   17        1.281   2.731   0.009   4.020
   18        1.285   2.724   0.009   4.018
   19        1.300   2.601   0.003   3.904
   20        1.297   2.620   0.003   3.920
   21        1.296   2.658   0.005   3.959
   22        1.296   2.619   0.003   3.918
   23        1.287   2.726   0.010   4.023
   24        1.282   2.725   0.008   4.015
   25        1.295   2.675   0.007   3.976
   26        1.291   2.680   0.007   3.978
   27        1.282   2.747   0.010   4.038
   28        1.298   2.615   0.003   3.916
   29        1.295   2.643   0.005   3.943
   30        1.294   2.648   0.005   3.947
   31        1.286   2.723   0.009   4.018
   32        1.287   2.712   0.009   4.008
   33        1.293   2.675   0.007   3.975
   34        1.279   2.748   0.009   4.036
   35        1.299   2.606   0.003   3.908
   36        1.301   2.598   0.003   3.902
   37        1.298   2.608   0.003   3.909
   38        1.288   2.722   0.009   4.019
   39        1.280   2.725   0.008   4.013
   40        1.283   2.748   0.011   4.042
   41        1.291   2.699   0.008   3.998
   42        1.293   2.684   0.007   3.984
   43        1.296   2.635   0.005   3.936
   44        1.284   2.742   0.010   4.037
   45        1.295   2.631   0.004   3.930
   46        1.295   2.619   0.003   3.918
   47        1.287   2.720   0.009   4.017
   48        1.290   2.692   0.008   3.989
--------------------------------------------------
tot          45.70   91.21  125.11  262.01
 
magnetization (x)
 
# of ion       s       p       d       tot
------------------------------------------
    1       -0.000   0.000   0.001   0.001
    2        0.000   0.000   0.007   0.008
    3       -0.000   0.000   0.000   0.000
    4        0.000   0.000   0.001   0.001
    5        0.000   0.000   0.005   0.005
    6       -0.000  -0.000  -0.000  -0.000
    7        0.000   0.000   0.009   0.009
    8       -0.000   0.000   0.002   0.002
    9       -0.000  -0.000   0.000  -0.000
   10        0.000   0.000   0.003   0.003
   11       -0.000   0.000   0.001   0.001
   12        0.000   0.000   0.001   0.002
   13        0.000   0.000   0.005   0.005
   14        0.000   0.000   0.002   0.002
   15        0.000   0.000   0.003   0.003
   16       -0.000  -0.000   0.000   0.000
   17        0.000   0.002  -0.000   0.002
   18        0.000   0.004   0.000   0.004
   19       -0.000  -0.009   0.000  -0.009
   20       -0.000  -0.005   0.000  -0.005
   21       -0.000  -0.001   0.000  -0.001
   22       -0.000  -0.003   0.000  -0.003
   23        0.000   0.003   0.000   0.003
   24        0.000   0.002  -0.000   0.002
   25        0.000   0.002  -0.000   0.002
   26        0.000   0.004  -0.000   0.004
   27       -0.000  -0.001   0.000  -0.001
   28       -0.000  -0.002   0.000  -0.002
   29       -0.000  -0.012   0.000  -0.012
   30       -0.000  -0.006   0.000  -0.006
   31        0.000   0.002   0.000   0.002
   32        0.000   0.002   0.000   0.003
   33        0.000   0.005  -0.000   0.005
   34        0.000   0.002  -0.000   0.002
   35       -0.000  -0.009   0.000  -0.009
   36       -0.000  -0.010   0.000  -0.010
   37       -0.000  -0.003   0.000  -0.003
   38       -0.000  -0.001   0.000  -0.001
   39        0.000   0.002  -0.000   0.002
   40        0.000   0.003   0.000   0.003
   41        0.000   0.002   0.000   0.002
   42        0.000   0.002  -0.000   0.002
   43       -0.000  -0.001   0.000  -0.001
   44       -0.000  -0.001   0.000  -0.001
   45       -0.000  -0.004   0.000  -0.004
   46       -0.000  -0.007   0.000  -0.007
   47        0.000   0.001  -0.000   0.001
   48        0.000   0.002   0.000   0.002
--------------------------------------------------
tot           0.00   -0.03    0.04    0.01
 

 total amount of memory used by VASP MPI-rank0   359839. kBytes
=======================================================================

   base      :      30000. kBytes
   nonlr-proj:      25393. kBytes
   fftplans  :       5538. kBytes
   grid      :      31719. kBytes
   one-center:       1492. kBytes
   wavefun   :     265697. kBytes
 
  
  
 General timing and accounting informations for this job:
 ========================================================
  
                  Total CPU time used (sec):     3199.653
                            User time (sec):     3194.279
                          System time (sec):        5.374
                         Elapsed time (sec):     3212.362
  
                   Maximum memory used (kb):      438744.
                   Average memory used (kb):           0.
  
                          Minor page faults:        44612
                          Major page faults:           81
                 Voluntary context switches:         1301
