 vasp.5.4.4.18Apr17-6-g9f103f2a35 (build May 12 2020 04:58:55) complex          
  
 MD_VERSION_INFO: Compiled 2020-05-12T11:58:55-UTC in devlin.sd.materialsdesign.
 com:/home/medea2/data/build/wwolf/vasp-gpu5.4.4/13047/x86_64/src/src/build/std 
 from svn 13047
 
 This VASP executable licensed from Materials Design, Inc.
 
 executed on                        Lin64 date 2023.03.24  19:41:56
 running on   16 total cores
 distrk:  each k-point on   16 cores,    1 groups
 distr:  one band on NCORES_PER_BAND=   1 cores,   16 groups


--------------------------------------------------------------------------------------------------------


 INCAR:
 POTCAR:    PAW_PBE Ni 02Aug2007                  
 POTCAR:    PAW_PBE O 08Apr2002                   

 ----------------------------------------------------------------------------- 
|                                                                             |
|           W    W    AA    RRRRR   N    N  II  N    N   GGGG   !!!           |
|           W    W   A  A   R    R  NN   N  II  NN   N  G    G  !!!           |
|           W    W  A    A  R    R  N N  N  II  N N  N  G       !!!           |
|           W WW W  AAAAAA  RRRRR   N  N N  II  N  N N  G  GGG   !            |
|           WW  WW  A    A  R   R   N   NN  II  N   NN  G    G                |
|           W    W  A    A  R    R  N    N  II  N    N   GGGG   !!!           |
|                                                                             |
|      For optimal performance we recommend to set                            |
|        NCORE= 4 - approx SQRT( number of cores)                             |
|      NCORE specifies how many cores store one orbital (NPAR=cpu/NCORE).     |
|      This setting can  greatly improve the performance of VASP for DFT.     |
|      The default,   NCORE=1            might be grossly inefficient         |
|      on modern multi-core architectures or massively parallel machines.     |
|      Do your own testing !!!!                                               |
|      Unfortunately you need to use the default for GW and RPA calculations. |
|      (for HF NCORE is supported but not extensively tested yet)             |
|                                                                             |
 ----------------------------------------------------------------------------- 

 POTCAR:    PAW_PBE Ni 02Aug2007                  
  local pseudopotential read in
  partial core-charges read in
  partial kinetic energy density read in
  atomic valenz-charges read in
  non local Contribution for L=           2  read in
    real space projection operators read in
  non local Contribution for L=           2  read in
    real space projection operators read in
  non local Contribution for L=           0  read in
    real space projection operators read in
  non local Contribution for L=           0  read in
    real space projection operators read in
  non local Contribution for L=           1  read in
    real space projection operators read in
  non local Contribution for L=           1  read in
    real space projection operators read in
    PAW grid and wavefunctions read in
 
   number of l-projection  operators is LMAX  =           6
   number of lm-projection operators is LMMAX =          18
 
 POTCAR:    PAW_PBE O 08Apr2002                   
  local pseudopotential read in
  partial core-charges read in
  partial kinetic energy density read in
  kinetic energy density of atom read in
  atomic valenz-charges read in
  non local Contribution for L=           0  read in
    real space projection operators read in
  non local Contribution for L=           0  read in
    real space projection operators read in
  non local Contribution for L=           1  read in
    real space projection operators read in
  non local Contribution for L=           1  read in
    real space projection operators read in
    PAW grid and wavefunctions read in
 
   number of l-projection  operators is LMAX  =           4
   number of lm-projection operators is LMMAX =           8
 
 Optimization of the real space projectors (new method)

 maximal supplied QI-value         = 16.25
 optimisation between [QCUT,QGAM] = [ 11.38, 22.75] = [ 36.24,144.96] Ry 
 Optimized for a Real-space Cutoff    1.47 Angstroem

   l    n(q)    QCUT    max X(q) W(low)/X(q) W(high)/X(q)  e(spline) 
   2      9    11.376    60.317    0.17E-03    0.16E-04    0.16E-06
   2      9    11.376    55.921    0.17E-03    0.16E-04    0.17E-06
   0     10    11.376    51.690    0.45E-04    0.60E-04    0.21E-06
   0     10    11.376    30.015    0.37E-04    0.55E-04    0.19E-06
   1     10    11.376    18.849    0.83E-04    0.11E-03    0.92E-07
   1     10    11.376    14.624    0.69E-04    0.92E-04    0.82E-07
 Optimization of the real space projectors (new method)

 maximal supplied QI-value         = 24.76
 optimisation between [QCUT,QGAM] = [ 11.39, 22.77] = [ 36.31,145.25] Ry 
 Optimized for a Real-space Cutoff    1.10 Angstroem

   l    n(q)    QCUT    max X(q) W(low)/X(q) W(high)/X(q)  e(spline) 
   0      7    11.387    20.381    0.22E-03    0.48E-03    0.18E-06
   0      7    11.387    15.268    0.22E-03    0.52E-03    0.19E-06
   1      7    11.387     5.964    0.22E-03    0.73E-03    0.24E-06
   1      7    11.387     5.382    0.19E-03    0.60E-03    0.21E-06

 ----------------------------------------------------------------------------- 
|                                                                             |
|  ADVICE TO THIS USER RUNNING 'VASP/VAMP'   (HEAR YOUR MASTER'S VOICE ...):  |
|                                                                             |
|      You enforced a specific xc-type in the INCAR file,                     |
|      a different type was found on the POTCAR file                          |
|          I HOPE YOU KNOW, WHAT YOU ARE  DOING                               |
|                                                                             |
 ----------------------------------------------------------------------------- 

  PAW_PBE Ni 02Aug2007                  :
 energy of atom  1       EATOM=-1077.6739
 kinetic energy error for atom=    0.0030 (will be added to EATOM!!)
  PAW_PBE O 08Apr2002                   :
 energy of atom  2       EATOM= -432.3788
 kinetic energy error for atom=    0.0224 (will be added to EATOM!!)
 
 
 POSCAR: NiO2_Fd-3m_scale_1_025_disp_0_15_round_2
  positions in direct lattice
  No initial velocities read in
 exchange correlation table for  LEXCH =       14
   RHO(1)=    0.500       N(1)  =     2000
   RHO(2)=  100.500       N(2)  =     4000
 


--------------------------------------------------------------------------------------------------------


 ion  position               nearest neighbor table
   1  0.099  0.638  0.104-  24 1.70  43 1.81  47 1.97  41 2.02  28 2.09  22 2.27  14 2.78   2 2.85
                             3 2.88  11 2.92   4 2.93   8 2.96
   2  0.375  0.852  0.128-  18 1.56  46 1.65  41 2.00  24 2.01  29 2.29  19 2.36   3 2.64  13 2.83
                             1 2.85  12 2.94   4 2.97
   3  0.334  0.639  0.368-  47 1.61  41 1.82  18 1.82  27 2.04  44 2.22  21 2.30   2 2.64   4 2.74
                             9 2.83   1 2.88   6 3.08  16 3.08
   4  0.102  0.883  0.368-  30 1.64  20 1.67  45 1.84  24 1.99  47 2.12  18 2.23  10 2.73   3 2.74
                             5 2.85   1 2.93  15 2.96   2 2.97
   5  0.108  0.108  0.635-  39 1.50  35 1.85  30 1.91  20 2.10  32 2.18  33 2.19   7 2.53   8 2.81
                             4 2.85  10 2.93   6 3.03  15 3.08
   6  0.380  0.361  0.620-  27 1.54  26 1.71  32 1.86  33 1.87  38 1.87  21 2.03   7 2.66   9 2.69
                            16 2.95   8 2.99   5 3.03   3 3.08
   7  0.327  0.139  0.854-  39 1.53  33 1.86  26 1.91  36 2.02  19 2.21  29 2.34   8 2.50   5 2.53
                             6 2.66
   8  0.113  0.358  0.873-  22 1.73  39 1.82  28 1.93  26 2.06  37 2.17  32 2.21   7 2.50  14 2.79
                             5 2.81  11 2.94   1 2.96   6 2.99
   9  0.556  0.640  0.636-  27 1.61  31 2.00  44 2.02  40 2.14  38 2.23  25 2.29  12 2.34   6 2.69
                             3 2.83  11 2.98  10 3.03  16 3.03
  10  0.841  0.872  0.578-  45 1.62  40 1.90  35 1.93  25 2.08  34 2.08  30 2.31   4 2.73  15 2.87
                             5 2.93  12 2.95   9 3.03
  11  0.833  0.586  0.869-  37 1.54  43 1.72  31 1.76  25 2.05  34 2.16  28 2.23  14 2.58  12 2.88
                             1 2.92   8 2.94   9 2.98
  12  0.591  0.841  0.838-  29 1.64  40 1.86  31 1.96  34 2.10  36 2.11  46 2.32   9 2.34  11 2.88
                             2 2.94  10 2.95  13 3.00
  13  0.630  0.087  0.109-  46 1.59  17 1.68  19 1.90  36 1.92  23 1.99  48 2.26  15 2.77   2 2.83
                            12 3.00
  14  0.869  0.385  0.112-  43 1.81  22 1.81  37 1.85  42 2.06  48 2.15  17 2.35  11 2.58   1 2.78
                             8 2.79  15 2.79  16 2.81
  15  0.853  0.148  0.359-  42 1.74  23 1.76  17 1.78  20 2.00  35 2.12  45 2.39  16 2.76  13 2.77
                            14 2.79  10 2.87   4 2.96   5 3.08
  16  0.629  0.401  0.359-  44 1.68  42 1.70  48 1.80  38 2.03  21 2.29  23 2.37  15 2.76  14 2.81
                             6 2.95   9 3.03   3 3.08
  17  0.833  0.100  0.146-  13 1.68  15 1.78  14 2.35
  18  0.370  0.854  0.319-   2 1.56   3 1.82   4 2.23
  19  0.403  0.140  0.114-  13 1.90   7 2.21   2 2.36
  20  0.090  0.087  0.379-   4 1.67  15 2.00   5 2.10
  21  0.351  0.357  0.372-   6 2.03  16 2.29   3 2.30
  22  0.089  0.360  0.084-   8 1.73  14 1.81   1 2.27
  23  0.640  0.110  0.353-  15 1.76  13 1.99  16 2.37
  24  0.128  0.844  0.127-   1 1.70   4 1.99   2 2.01
  25  0.837  0.620  0.619-  11 2.05  10 2.08   9 2.29
  26  0.362  0.370  0.829-   6 1.71   7 1.91   8 2.06
  27  0.386  0.548  0.596-   6 1.54   9 1.61   3 2.04
  28  0.107  0.594  0.851-   8 1.93   1 2.09  11 2.23
  29  0.390  0.858  0.846-  12 1.64   2 2.29   7 2.34
  30  0.125  0.884  0.568-   4 1.64   5 1.91  10 2.31
  31  0.618  0.604  0.871-  11 1.76  12 1.96   9 2.00
  32  0.152  0.370  0.604-   6 1.86   5 2.18   8 2.21
  33  0.375  0.131  0.630-   7 1.86   6 1.87   5 2.19
  34  0.848  0.848  0.833-  10 2.08  12 2.10  11 2.16
  35  0.882  0.103  0.613-   5 1.85  10 1.93  15 2.12
  36  0.570  0.096  0.880-  13 1.92   7 2.02  12 2.11
  37  0.850  0.397  0.886-  11 1.54  14 1.85   8 2.17
  38  0.610  0.372  0.607-   6 1.87  16 2.03   9 2.23
  39  0.143  0.145  0.813-   5 1.50   7 1.53   8 1.82
  40  0.613  0.895  0.618-  12 1.86  10 1.90   9 2.14
  41  0.341  0.609  0.147-   3 1.82   2 2.00   1 2.02
  42  0.833  0.360  0.361-  16 1.70  15 1.74  14 2.06
  43  0.881  0.603  0.073-  11 1.72  14 1.81   1 1.81
  44  0.603  0.603  0.395-  16 1.68   9 2.02   3 2.22
  45  0.878  0.856  0.384-  10 1.62   4 1.84  15 2.39
  46  0.571  0.900  0.116-  13 1.59   2 1.65  12 2.32
  47  0.139  0.626  0.342-   3 1.61   1 1.97   4 2.12
  48  0.608  0.361  0.143-  16 1.80  14 2.15  13 2.26
 
  LATTYP: Found a simple cubic cell.
 ALAT       =     8.1404372500
  
  Lattice vectors:
  
 A1 = (   8.1404372500,   0.0000000000,   0.0000000000)
 A2 = (   0.0000000000,   8.1404372500,   0.0000000000)
 A3 = (   0.0000000000,   0.0000000000,   8.1404372500)


Analysis of symmetry for initial positions (statically):
=====================================================================
 Subroutine PRICEL returns:
 Original cell was already a primitive cell.
 

 Routine SETGRP: Setting up the symmetry group for a 
 simple cubic supercell.


 Subroutine GETGRP returns: Found  1 space group operations
 (whereof  1 operations were pure point group operations)
 out of a pool of 48 trial point group operations.


The static configuration has the point symmetry C_1 .


Analysis of symmetry for dynamics (positions and initial velocities):
=====================================================================
 Subroutine PRICEL returns:
 Original cell was already a primitive cell.
 

 Routine SETGRP: Setting up the symmetry group for a 
 simple cubic supercell.


 Subroutine GETGRP returns: Found  1 space group operations
 (whereof  1 operations were pure point group operations)
 out of a pool of 48 trial point group operations.


The dynamic configuration has the point symmetry C_1 .


Analysis of structural, dynamic, and magnetic symmetry:
=====================================================================
 Subroutine PRICEL returns:
 Original cell was already a primitive cell.
 

 Routine SETGRP: Setting up the symmetry group for a 
 simple cubic supercell.


 Subroutine GETGRP returns: Found  1 space group operations
 (whereof  1 operations were pure point group operations)
 out of a pool of 48 trial point group operations.


The magnetic configuration has the point symmetry C_1 .


 Subroutine INISYM returns: Found  1 space group operations
 (whereof  1 operations are pure point group operations),
 and found     1 'primitive' translations

 
 
 KPOINTS: Automatic mesh                          

Automatic generation of k-mesh.
Space group operators:
 irot       det(A)        alpha          n_x          n_y          n_z        tau_x        tau_y        tau_z
    1     1.000000     0.000001     1.000000     0.000000     0.000000     0.000000     0.000000     0.000000
 
 Subroutine IBZKPT returns following result:
 ===========================================
 
 Found     36 irreducible k-points:
 
 Following reciprocal coordinates:
            Coordinates               Weight
  0.000000  0.000000  0.000000      1.000000
  0.250000  0.000000  0.000000      2.000000
  0.500000  0.000000  0.000000      1.000000
  0.000000  0.250000  0.000000      2.000000
  0.250000  0.250000  0.000000      2.000000
  0.500000  0.250000  0.000000      2.000000
 -0.250000  0.250000  0.000000      2.000000
  0.000000  0.500000  0.000000      1.000000
  0.250000  0.500000  0.000000      2.000000
  0.500000  0.500000  0.000000      1.000000
  0.000000  0.000000  0.250000      2.000000
  0.250000  0.000000  0.250000      2.000000
  0.500000  0.000000  0.250000      2.000000
 -0.250000  0.000000  0.250000      2.000000
  0.000000  0.250000  0.250000      2.000000
  0.250000  0.250000  0.250000      2.000000
  0.500000  0.250000  0.250000      2.000000
 -0.250000  0.250000  0.250000      2.000000
  0.000000  0.500000  0.250000      2.000000
  0.250000  0.500000  0.250000      2.000000
  0.500000  0.500000  0.250000      2.000000
 -0.250000  0.500000  0.250000      2.000000
  0.000000 -0.250000  0.250000      2.000000
  0.250000 -0.250000  0.250000      2.000000
  0.500000 -0.250000  0.250000      2.000000
 -0.250000 -0.250000  0.250000      2.000000
  0.000000  0.000000  0.500000      1.000000
  0.250000  0.000000  0.500000      2.000000
  0.500000  0.000000  0.500000      1.000000
  0.000000  0.250000  0.500000      2.000000
  0.250000  0.250000  0.500000      2.000000
  0.500000  0.250000  0.500000      2.000000
 -0.250000  0.250000  0.500000      2.000000
  0.000000  0.500000  0.500000      1.000000
  0.250000  0.500000  0.500000      2.000000
  0.500000  0.500000  0.500000      1.000000
 
 Following cartesian coordinates:
            Coordinates               Weight
  0.000000  0.000000  0.000000      1.000000
  0.030711  0.000000  0.000000      2.000000
  0.061422  0.000000  0.000000      1.000000
  0.000000  0.030711  0.000000      2.000000
  0.030711  0.030711  0.000000      2.000000
  0.061422  0.030711  0.000000      2.000000
 -0.030711  0.030711  0.000000      2.000000
  0.000000  0.061422  0.000000      1.000000
  0.030711  0.061422  0.000000      2.000000
  0.061422  0.061422  0.000000      1.000000
  0.000000  0.000000  0.030711      2.000000
  0.030711  0.000000  0.030711      2.000000
  0.061422  0.000000  0.030711      2.000000
 -0.030711  0.000000  0.030711      2.000000
  0.000000  0.030711  0.030711      2.000000
  0.030711  0.030711  0.030711      2.000000
  0.061422  0.030711  0.030711      2.000000
 -0.030711  0.030711  0.030711      2.000000
  0.000000  0.061422  0.030711      2.000000
  0.030711  0.061422  0.030711      2.000000
  0.061422  0.061422  0.030711      2.000000
 -0.030711  0.061422  0.030711      2.000000
  0.000000 -0.030711  0.030711      2.000000
  0.030711 -0.030711  0.030711      2.000000
  0.061422 -0.030711  0.030711      2.000000
 -0.030711 -0.030711  0.030711      2.000000
  0.000000  0.000000  0.061422      1.000000
  0.030711  0.000000  0.061422      2.000000
  0.061422  0.000000  0.061422      1.000000
  0.000000  0.030711  0.061422      2.000000
  0.030711  0.030711  0.061422      2.000000
  0.061422  0.030711  0.061422      2.000000
 -0.030711  0.030711  0.061422      2.000000
  0.000000  0.061422  0.061422      1.000000
  0.030711  0.061422  0.061422      2.000000
  0.061422  0.061422  0.061422      1.000000
 


--------------------------------------------------------------------------------------------------------




 Dimension of arrays:
   k-points           NKPTS =     36   k-points in BZ     NKDIM =     36   number of bands    NBANDS=    240
   number of dos      NEDOS =    301   number of ions     NIONS =     48
   non local maximal  LDIM  =      6   non local SUM 2l+1 LMDIM =     18
   total plane-waves  NPLWV = 216000
   max r-space proj   IRMAX =   5425   max aug-charges    IRDMAX=  13177
   dimension x,y,z NGX =    60 NGY =   60 NGZ =   60
   dimension x,y,z NGXF=   120 NGYF=  120 NGZF=  120
   support grid    NGXF=   120 NGYF=  120 NGZF=  120
   ions per type =              16  32
   NGX,Y,Z   is equivalent  to a cutoff of  12.25, 12.25, 12.25 a.u.
   NGXF,Y,Z  is equivalent  to a cutoff of  24.51, 24.51, 24.51 a.u.

 SYSTEM =  unknown system                          
 POSCAR =  NiO2_Fd-3m_scale_1_025_disp_0_15_round_2

 Startparameter for this run:
   NWRITE =      1    write-flag & timer
   PREC   = accura    normal or accurate (medium, high low for compatibility)
   ISTART =      0    job   : 0-new  1-cont  2-samecut
   ICHARG =      2    charge: 1-file 2-atom 10-const
   ISPIN  =      2    spin polarized calculation?
   LNONCOLLINEAR =      F non collinear calculations
   LSORBIT =      F    spin-orbit coupling
   INIWAV =      1    electr: 0-lowe 1-rand  2-diag
   LASPH  =      F    aspherical Exc in radial PAW
   METAGGA=      F    non-selfconsistent MetaGGA calc.

 Electronic Relaxation 1
   ENCUT  =  500.0 eV  36.75 Ry    6.06 a.u.  14.84 14.84 14.84*2*pi/ulx,y,z
   ENINI  =  500.0     initial cutoff
   ENAUG  =  605.4 eV  augmentation charge cutoff
   NELM   =     80;   NELMIN=  2; NELMDL= -5     # of ELM steps 
   EDIFF  = 0.1E-04   stopping-criterion for ELM
   LREAL  =      T    real-space projection
   NLSPLINE    = F    spline interpolate recip. space projectors
   LCOMPAT=      F    compatible to vasp.4.4
   GGA_COMPAT  = T    GGA compatible to vasp.4.4-vasp.4.6
   LMAXPAW     = -100 max onsite density
   LMAXMIX     =    2 max onsite mixed and CHGCAR
   VOSKOWN=      1    Vosko Wilk Nusair interpolation
   ROPT   =   -0.00025  -0.00025
 Ionic relaxation
   EDIFFG = 0.1E-03   stopping-criterion for IOM
   NSW    =      0    number of steps for IOM
   NBLOCK =      1;   KBLOCK =      1    inner block; outer block 
   IBRION =     -1    ionic relax: 0-MD 1-quasi-New 2-CG
   NFREE  =      0    steps in history (QN), initial steepest desc. (CG)
   ISIF   =      2    stress and relaxation
   IWAVPR =     10    prediction:  0-non 1-charg 2-wave 3-comb
   ISYM   =      2    0-nonsym 1-usesym 2-fastsym
   LCORR  =      T    Harris-Foulkes like correction to forces

   POTIM  = 0.5000    time-step for ionic-motion
   TEIN   =    0.0    initial temperature
   TEBEG  =    0.0;   TEEND  =   0.0 temperature during run
   SMASS  =  -3.00    Nose mass-parameter (am)
   estimated Nose-frequenzy (Omega)   =  0.10E-29 period in steps =****** mass=  -0.151E-26a.u.
   SCALEE = 1.0000    scale energy and forces
   NPACO  =    256;   APACO  = 16.0  distance and # of slots for P.C.
   PSTRESS=    0.0 pullay stress

  Mass of Ions in am
   POMASS =  58.69 16.00
  Ionic Valenz
   ZVAL   =  10.00  6.00
  Atomic Wigner-Seitz radii
   RWIGS  =   1.15  0.73
  virtual crystal weights 
   VCA    =   1.00  1.00
   NELECT =     352.0000    total number of electrons
   NUPDOWN=      -1.0000    fix difference up-down

 DOS related values:
   EMIN   =  10.00;   EMAX   =-10.00  energy-range for DOS
   EFERMI =   0.00
   ISMEAR =     0;   SIGMA  =   0.05  broadening in eV -4-tet -1-fermi 0-gaus

 Electronic relaxation 2 (details)
   IALGO  =     38    algorithm
   LDIAG  =      T    sub-space diagonalisation (order eigenvalues)
   LSUBROT=      F    optimize rotation matrix (better conditioning)
   TURBO    =      0    0=normal 1=particle mesh
   IRESTART =      0    0=no restart 2=restart with 2 vectors
   NREBOOT  =      0    no. of reboots
   NMIN     =      0    reboot dimension
   EREF     =   0.00    reference energy to select bands
   IMIX   =      4    mixing-type and parameters
     AMIX     =   0.40;   BMIX     =  1.00
     AMIX_MAG =   1.60;   BMIX_MAG =  1.00
     AMIN     =   0.10
     WC   =   100.;   INIMIX=   1;  MIXPRE=   1;  MAXMIX= -45

 Intra band minimization:
   WEIMIN = 0.0000     energy-eigenvalue tresh-hold
   EBREAK =  0.10E-07  absolut break condition
   DEPER  =   0.30     relativ break condition  

   TIME   =   0.40     timestep for ELM

  volume/ion in A,a.u.               =      11.24        75.84
  Fermi-wavevector in a.u.,A,eV,Ry     =   1.419955  2.683326 27.433058  2.016273
  Thomas-Fermi vector in A             =   2.540921
 
 Write flags
   LWAVE        =      F    write WAVECAR
   LDOWNSAMPLE  =      F    k-point downsampling of WAVECAR
   LCHARG       =      T    write CHGCAR
   LVTOT        =      F    write LOCPOT, total local potential
   LVHAR        =      F    write LOCPOT, Hartree potential only
   LELF         =      F    write electronic localiz. function (ELF)
   LORBIT       =      0    0 simple, 1 ext, 2 COOP (PROOUT), +10 PAW based schemes


 Dipole corrections
   LMONO  =      F    monopole corrections only (constant potential shift)
   LDIPOL =      F    correct potential (dipole corrections)
   IDIPOL =      0    1-x, 2-y, 3-z, 4-all directions 
   EPSILON=  1.0000000 bulk dielectric constant

 Exchange correlation treatment:
   GGA     =    PS    GGA type
   LEXCH   =    14    internal setting for exchange type
   VOSKOWN=      1    Vosko Wilk Nusair interpolation
   LHFCALC =     F    Hartree Fock is set to
   LHFONE  =     F    Hartree Fock one center treatment
   AEXX    =    0.0000 exact exchange contribution

 Linear response parameters
   LEPSILON=     F    determine dielectric tensor
   LRPA    =     F    only Hartree local field effects (RPA)
   LNABLA  =     F    use nabla operator in PAW spheres
   LVEL    =     F    velocity operator in full k-point grid
   LINTERFAST=   F  fast interpolation
   KINTER  =     0    interpolate to denser k-point grid
   CSHIFT  =0.1000    complex shift for real part using Kramers Kronig
   OMEGAMAX=  -1.0    maximum frequency
   DEG_THRESHOLD= 0.2000000E-02 threshold for treating states as degnerate
   RTIME   =   -0.100 relaxation time in fs
  (WPLASMAI=    0.000 imaginary part of plasma frequency in eV, 0.658/RTIME)
   DFIELD  = 0.0000000 0.0000000 0.0000000 field for delta impulse in time
 
 Orbital magnetization related:
   ORBITALMAG=     F  switch on orbital magnetization
   LCHIMAG   =     F  perturbation theory with respect to B field
   DQ        =  0.001000  dq finite difference perturbation B field
   LLRAUG    =     F  two centre corrections for induced B field



--------------------------------------------------------------------------------------------------------


 Static calculation
 charge density and potential will be updated during run
 spin polarized calculation
 Variant of blocked Davidson
 Davidson routine will perform the subspace rotation
 perform sub-space diagonalisation
    after iterative eigenvector-optimisation
 modified Broyden-mixing scheme, WC =      100.0
 initial mixing is a Kerker type mixing with AMIX =  0.4000 and BMIX =      1.0000
 Hartree-type preconditioning will be used
 using additional bands           64
 real space projection scheme for non local part
 use partial core corrections
 calculate Harris-corrections to forces 
   (improved forces if not selfconsistent)
 use gradient corrections 
 use of overlap-Matrix (Vanderbilt PP)
 Gauss-broadening in eV      SIGMA  =   0.05


--------------------------------------------------------------------------------------------------------


  energy-cutoff  :      500.00
  volume of cell :      539.44
      direct lattice vectors                 reciprocal lattice vectors
     8.140437250  0.000000000  0.000000000     0.122843524  0.000000000  0.000000000
     0.000000000  8.140437250  0.000000000     0.000000000  0.122843524  0.000000000
     0.000000000  0.000000000  8.140437250     0.000000000  0.000000000  0.122843524

  length of vectors
     8.140437250  8.140437250  8.140437250     0.122843524  0.122843524  0.122843524


 
 k-points in units of 2pi/SCALE and weight: Automatic mesh                          
   0.00000000  0.00000000  0.00000000       0.016
   0.03071088  0.00000000  0.00000000       0.031
   0.06142176  0.00000000  0.00000000       0.016
   0.00000000  0.03071088  0.00000000       0.031
   0.03071088  0.03071088  0.00000000       0.031
   0.06142176  0.03071088  0.00000000       0.031
  -0.03071088  0.03071088  0.00000000       0.031
   0.00000000  0.06142176  0.00000000       0.016
   0.03071088  0.06142176  0.00000000       0.031
   0.06142176  0.06142176  0.00000000       0.016
   0.00000000  0.00000000  0.03071088       0.031
   0.03071088  0.00000000  0.03071088       0.031
   0.06142176  0.00000000  0.03071088       0.031
  -0.03071088  0.00000000  0.03071088       0.031
   0.00000000  0.03071088  0.03071088       0.031
   0.03071088  0.03071088  0.03071088       0.031
   0.06142176  0.03071088  0.03071088       0.031
  -0.03071088  0.03071088  0.03071088       0.031
   0.00000000  0.06142176  0.03071088       0.031
   0.03071088  0.06142176  0.03071088       0.031
   0.06142176  0.06142176  0.03071088       0.031
  -0.03071088  0.06142176  0.03071088       0.031
   0.00000000 -0.03071088  0.03071088       0.031
   0.03071088 -0.03071088  0.03071088       0.031
   0.06142176 -0.03071088  0.03071088       0.031
  -0.03071088 -0.03071088  0.03071088       0.031
   0.00000000  0.00000000  0.06142176       0.016
   0.03071088  0.00000000  0.06142176       0.031
   0.06142176  0.00000000  0.06142176       0.016
   0.00000000  0.03071088  0.06142176       0.031
   0.03071088  0.03071088  0.06142176       0.031
   0.06142176  0.03071088  0.06142176       0.031
  -0.03071088  0.03071088  0.06142176       0.031
   0.00000000  0.06142176  0.06142176       0.016
   0.03071088  0.06142176  0.06142176       0.031
   0.06142176  0.06142176  0.06142176       0.016
 
 k-points in reciprocal lattice and weights: Automatic mesh                          
   0.00000000  0.00000000  0.00000000       0.016
   0.25000000  0.00000000  0.00000000       0.031
   0.50000000  0.00000000  0.00000000       0.016
   0.00000000  0.25000000  0.00000000       0.031
   0.25000000  0.25000000  0.00000000       0.031
   0.50000000  0.25000000  0.00000000       0.031
  -0.25000000  0.25000000  0.00000000       0.031
   0.00000000  0.50000000  0.00000000       0.016
   0.25000000  0.50000000  0.00000000       0.031
   0.50000000  0.50000000  0.00000000       0.016
   0.00000000  0.00000000  0.25000000       0.031
   0.25000000  0.00000000  0.25000000       0.031
   0.50000000  0.00000000  0.25000000       0.031
  -0.25000000  0.00000000  0.25000000       0.031
   0.00000000  0.25000000  0.25000000       0.031
   0.25000000  0.25000000  0.25000000       0.031
   0.50000000  0.25000000  0.25000000       0.031
  -0.25000000  0.25000000  0.25000000       0.031
   0.00000000  0.50000000  0.25000000       0.031
   0.25000000  0.50000000  0.25000000       0.031
   0.50000000  0.50000000  0.25000000       0.031
  -0.25000000  0.50000000  0.25000000       0.031
   0.00000000 -0.25000000  0.25000000       0.031
   0.25000000 -0.25000000  0.25000000       0.031
   0.50000000 -0.25000000  0.25000000       0.031
  -0.25000000 -0.25000000  0.25000000       0.031
   0.00000000  0.00000000  0.50000000       0.016
   0.25000000  0.00000000  0.50000000       0.031
   0.50000000  0.00000000  0.50000000       0.016
   0.00000000  0.25000000  0.50000000       0.031
   0.25000000  0.25000000  0.50000000       0.031
   0.50000000  0.25000000  0.50000000       0.031
  -0.25000000  0.25000000  0.50000000       0.031
   0.00000000  0.50000000  0.50000000       0.016
   0.25000000  0.50000000  0.50000000       0.031
   0.50000000  0.50000000  0.50000000       0.016
 
 position of ions in fractional coordinates (direct lattice) 
   0.09865912  0.63791009  0.10406439
   0.37452444  0.85180305  0.12754907
   0.33405016  0.63896390  0.36832828
   0.10155572  0.88273975  0.36783447
   0.10787247  0.10766719  0.63525560
   0.37986492  0.36059020  0.61967634
   0.32745468  0.13923128  0.85355207
   0.11333720  0.35805896  0.87327325
   0.55625711  0.63954977  0.63602330
   0.84140941  0.87180900  0.57842243
   0.83338671  0.58551334  0.86859325
   0.59050446  0.84095843  0.83794519
   0.63027352  0.08655073  0.10902681
   0.86930428  0.38521441  0.11205849
   0.85312062  0.14763883  0.35852234
   0.62853508  0.40084345  0.35931501
   0.83266375  0.10030109  0.14596317
   0.36957571  0.85421898  0.31894709
   0.40260016  0.13955565  0.11404240
   0.08981174  0.08665255  0.37932394
   0.35056639  0.35681079  0.37215908
   0.08864643  0.36023448  0.08442598
   0.64044526  0.11024330  0.35254355
   0.12752255  0.84358423  0.12733795
   0.83659972  0.61962732  0.61882982
   0.36242507  0.37024213  0.82883570
   0.38604590  0.54818046  0.59558860
   0.10686998  0.59352735  0.85101957
   0.39031413  0.85833731  0.84623378
   0.12468713  0.88371816  0.56834620
   0.61804560  0.60401741  0.87120726
   0.15198255  0.37046395  0.60438656
   0.37535559  0.13061794  0.62973123
   0.84784865  0.84817973  0.83279399
   0.88200387  0.10332394  0.61306893
   0.57026553  0.09595296  0.88048740
   0.84980040  0.39730920  0.88634099
   0.60950497  0.37216813  0.60653181
   0.14349076  0.14542318  0.81264075
   0.61261525  0.89545238  0.61761049
   0.34144970  0.60860231  0.14686400
   0.83292879  0.36005549  0.36146347
   0.88149283  0.60334599  0.07336881
   0.60260792  0.60298249  0.39469853
   0.87821162  0.85635747  0.38394204
   0.57068226  0.90022441  0.11555590
   0.13872768  0.62646896  0.34192790
   0.60795882  0.36071026  0.14281885
 
 position of ions in cartesian coordinates  (Angst):
   0.80312838  5.19286706  0.84712964
   3.04879270  6.93404928  1.03830520
   2.71931437  5.20144553  2.99835325
   0.82670797  7.18588754  2.99433342
   0.87812907  0.87645800  5.17125835
   3.09226654  2.93536190  5.04443636
   2.66562427  1.13340350  6.94828707
   0.92261436  2.91475650  7.10882609
   4.52817610  5.20621477  5.17750776
   6.84944050  7.09690646  4.70861150
   6.78413222  4.76633460  7.07072885
   4.80696450  6.84576933  6.82124024
   5.13070204  0.70456079  0.88752591
   7.07651694  3.13581373  0.91220511
   6.94477487  1.20184463  2.91852861
   5.11655038  3.26304095  2.92498129
   6.77824701  0.81649473  1.18820403
   3.00850788  6.95371600  2.59636877
   3.27734134  1.13604401  0.92835500
   0.73110683  0.70538965  3.08786273
   2.85376370  2.90459585  3.02953764
   0.72162070  2.93246618  0.68726439
   5.21350445  0.89742867  2.86985865
   1.03808932  6.86714449  1.03658659
   6.81028752  5.04403732  5.03754532
   2.95029854  3.01393283  6.74708501
   3.14258242  4.46242864  4.84835163
   0.86996837  4.83157215  6.92767141
   3.17732768  6.98724101  6.88871298
   1.01500776  7.19385223  4.62658658
   5.03116142  4.91696582  7.09200803
   1.23720441  3.01573854  4.91997087
   3.05555863  1.06328714  5.12628756
   6.90185873  6.90455387  6.77930722
   7.17989716  0.84110205  4.99064915
   4.64221076  0.78109905  7.16755243
   6.91774683  3.23427061  7.21520321
   4.96163696  3.02961131  4.93743414
   1.16807753  1.18380827  6.61525103
   4.98695600  7.28937391  5.02761944
   2.77954986  4.95428891  1.19553718
   6.78040455  2.93100912  2.94247070
   7.17573707  4.91150017  0.59725419
   4.90549196  4.90854112  3.21301862
   7.14902658  6.97112425  3.12545608
   4.64560313  7.32822032  0.94067555
   1.12930397  5.09973126  2.78344261
   4.94905062  2.93633924  1.16260789
 


--------------------------------------------------------------------------------------------------------


 k-point  1 :   0.0000 0.0000 0.0000  plane waves:   13613
 k-point  2 :   0.2500 0.0000 0.0000  plane waves:   13666
 k-point  3 :   0.5000 0.0000 0.0000  plane waves:   13758
 k-point  4 :   0.0000 0.2500 0.0000  plane waves:   13666
 k-point  5 :   0.2500 0.2500 0.0000  plane waves:   13707
 k-point  6 :   0.5000 0.2500 0.0000  plane waves:   13692
 k-point  7 :  -0.2500 0.2500 0.0000  plane waves:   13707
 k-point  8 :   0.0000 0.5000 0.0000  plane waves:   13758
 k-point  9 :   0.2500 0.5000 0.0000  plane waves:   13692
 k-point 10 :   0.5000 0.5000 0.0000  plane waves:   13672
 k-point 11 :   0.0000 0.0000 0.2500  plane waves:   13666
 k-point 12 :   0.2500 0.0000 0.2500  plane waves:   13707
 k-point 13 :   0.5000 0.0000 0.2500  plane waves:   13692
 k-point 14 :  -0.2500 0.0000 0.2500  plane waves:   13707
 k-point 15 :   0.0000 0.2500 0.2500  plane waves:   13707
 k-point 16 :   0.2500 0.2500 0.2500  plane waves:   13679
 k-point 17 :   0.5000 0.2500 0.2500  plane waves:   13684
 k-point 18 :  -0.2500 0.2500 0.2500  plane waves:   13679
 k-point 19 :   0.0000 0.5000 0.2500  plane waves:   13692
 k-point 20 :   0.2500 0.5000 0.2500  plane waves:   13684
 k-point 21 :   0.5000 0.5000 0.2500  plane waves:   13696
 k-point 22 :  -0.2500 0.5000 0.2500  plane waves:   13684
 k-point 23 :   0.0000-0.2500 0.2500  plane waves:   13707
 k-point 24 :   0.2500-0.2500 0.2500  plane waves:   13679
 k-point 25 :   0.5000-0.2500 0.2500  plane waves:   13684
 k-point 26 :  -0.2500-0.2500 0.2500  plane waves:   13679
 k-point 27 :   0.0000 0.0000 0.5000  plane waves:   13758
 k-point 28 :   0.2500 0.0000 0.5000  plane waves:   13692
 k-point 29 :   0.5000 0.0000 0.5000  plane waves:   13672
 k-point 30 :   0.0000 0.2500 0.5000  plane waves:   13692
 k-point 31 :   0.2500 0.2500 0.5000  plane waves:   13684
 k-point 32 :   0.5000 0.2500 0.5000  plane waves:   13696
 k-point 33 :  -0.2500 0.2500 0.5000  plane waves:   13684
 k-point 34 :   0.0000 0.5000 0.5000  plane waves:   13672
 k-point 35 :   0.2500 0.5000 0.5000  plane waves:   13696
 k-point 36 :   0.5000 0.5000 0.5000  plane waves:   13704

 maximum and minimum number of plane-waves per node :     13758    13613

 maximum number of plane-waves:     13758
 maximum index in each direction: 
   IXMAX=   15   IYMAX=   15   IZMAX=   14
   IXMIN=  -15   IYMIN=  -15   IZMIN=  -15

 The following grids will avoid any aliasing or wrap around errors in the Hartre
 e energy
  - symmetry arguments have not been applied
  - exchange correlation energies might require even more grid points
  - we recommend to set PREC=Normal or Accurate and rely on VASP defaults
 WARNING: aliasing errors must be expected set NGX to    64 to avoid them
 WARNING: aliasing errors must be expected set NGY to    64 to avoid them
 NGZ is ok and might be reduce to    60

 serial   3D FFT for wavefunctions
 parallel 3D FFT for charge:
    minimum data exchange during FFTs selected (reduces bandwidth)


 total amount of memory used by VASP MPI-rank0   332621. kBytes
=======================================================================

   base      :      30000. kBytes
   nonlr-proj:      22471. kBytes
   fftplans  :       4751. kBytes
   grid      :      26734. kBytes
   one-center:       1492. kBytes
   wavefun   :     247173. kBytes
 
     INWAV:  cpu time    0.0000: real time    0.0000
 Broyden mixing: mesh for mixing (old mesh)
   NGX = 29   NGY = 29   NGZ = 29
  (NGX  =120   NGY  =120   NGZ  =120)
  gives a total of  24389 points

 initial charge density was supplied:
 charge density of overlapping atoms calculated
 number of electron     352.0000000 magnetization      40.0000000
 keeping initial charge density in first step


--------------------------------------------------------------------------------------------------------


 Maximum index for non-local projection operator         5224
 Maximum index for augmentation-charges          909 (set IRDMAX)


--------------------------------------------------------------------------------------------------------


 First call to EWALD:  gamma=   0.218
 Maximum number of real-space cells 3x 3x 3
 Maximum number of reciprocal cells 3x 3x 3

    FEWALD:  cpu time    0.0024: real time    0.0024


--------------------------------------- Iteration      1(   1)  ---------------------------------------


    POTLOK:  cpu time    0.1705: real time    0.2374
    SETDIJ:  cpu time    0.0175: real time    0.0176
     EDDAV:  cpu time  106.0834: real time  106.3345
    --------------------------------------------
      LOOP:  cpu time  106.2751: real time  106.5932

 eigenvalue-minimisations  : 34560
 total energy-change (2. order) : 0.4445989E+04  (-0.1534269E+05)
 number of electron     352.0000000 magnetization      40.0000000
 augmentation part      352.0000000 magnetization      40.0000000

 Free energy of the ion-electron system (eV)
  ---------------------------------------------------
  alpha Z        PSCENC =      1016.03958320
  Ewald energy   TEWEN  =    -19582.81042477
  -Hartree energ DENC   =    -12009.15517711
  -exchange      EXHF   =         0.00000000
  -V(xc)+E(xc)   XCENC  =      1416.14963526
  PAW double counting   =     26463.90193480   -27579.55909067
  entropy T*S    EENTRO =        -0.00845088
  eigenvalues    EBANDS =      3707.75852529
  atomic energy  EATOM  =     31013.67235384
  Solvation  Ediel_sol  =         0.00000000
  ---------------------------------------------------
  free energy    TOTEN  =      4445.98888896 eV

  energy without entropy =     4445.99733984  energy(sigma->0) =     4445.99311440


--------------------------------------------------------------------------------------------------------




--------------------------------------- Iteration      1(   2)  ---------------------------------------


     EDDAV:  cpu time  102.9733: real time  103.2173
    --------------------------------------------
      LOOP:  cpu time  102.9734: real time  103.2173

 eigenvalue-minimisations  : 35888
 total energy-change (2. order) :-0.3911852E+04  (-0.3505915E+04)
 number of electron     352.0000000 magnetization      40.0000000
 augmentation part      352.0000000 magnetization      40.0000000

 Free energy of the ion-electron system (eV)
  ---------------------------------------------------
  alpha Z        PSCENC =      1016.03958320
  Ewald energy   TEWEN  =    -19582.81042477
  -Hartree energ DENC   =    -12009.15517711
  -exchange      EXHF   =         0.00000000
  -V(xc)+E(xc)   XCENC  =      1416.14963526
  PAW double counting   =     26463.90193480   -27579.55909067
  entropy T*S    EENTRO =        -0.03082974
  eigenvalues    EBANDS =      -204.07145668
  atomic energy  EATOM  =     31013.67235384
  Solvation  Ediel_sol  =         0.00000000
  ---------------------------------------------------
  free energy    TOTEN  =       534.13652812 eV

  energy without entropy =      534.16735786  energy(sigma->0) =      534.15194299


--------------------------------------------------------------------------------------------------------




--------------------------------------- Iteration      1(   3)  ---------------------------------------


     EDDAV:  cpu time  105.4314: real time  105.6812
    --------------------------------------------
      LOOP:  cpu time  105.4314: real time  105.6812

 eigenvalue-minimisations  : 36656
 total energy-change (2. order) :-0.8572286E+03  (-0.7728371E+03)
 number of electron     352.0000000 magnetization      40.0000000
 augmentation part      352.0000000 magnetization      40.0000000

 Free energy of the ion-electron system (eV)
  ---------------------------------------------------
  alpha Z        PSCENC =      1016.03958320
  Ewald energy   TEWEN  =    -19582.81042477
  -Hartree energ DENC   =    -12009.15517711
  -exchange      EXHF   =         0.00000000
  -V(xc)+E(xc)   XCENC  =      1416.14963526
  PAW double counting   =     26463.90193480   -27579.55909067
  entropy T*S    EENTRO =        -0.07843363
  eigenvalues    EBANDS =     -1061.25248165
  atomic energy  EATOM  =     31013.67235384
  Solvation  Ediel_sol  =         0.00000000
  ---------------------------------------------------
  free energy    TOTEN  =      -323.09210073 eV

  energy without entropy =     -323.01366710  energy(sigma->0) =     -323.05288391


--------------------------------------------------------------------------------------------------------




--------------------------------------- Iteration      1(   4)  ---------------------------------------


     EDDAV:  cpu time  110.1278: real time  110.3887
    --------------------------------------------
      LOOP:  cpu time  110.1276: real time  110.3886

 eigenvalue-minimisations  : 39040
 total energy-change (2. order) :-0.7545007E+02  (-0.7359693E+02)
 number of electron     352.0000000 magnetization      40.0000000
 augmentation part      352.0000000 magnetization      40.0000000

 Free energy of the ion-electron system (eV)
  ---------------------------------------------------
  alpha Z        PSCENC =      1016.03958320
  Ewald energy   TEWEN  =    -19582.81042477
  -Hartree energ DENC   =    -12009.15517711
  -exchange      EXHF   =         0.00000000
  -V(xc)+E(xc)   XCENC  =      1416.14963526
  PAW double counting   =     26463.90193480   -27579.55909067
  entropy T*S    EENTRO =        -0.07916134
  eigenvalues    EBANDS =     -1136.70182132
  atomic energy  EATOM  =     31013.67235384
  Solvation  Ediel_sol  =         0.00000000
  ---------------------------------------------------
  free energy    TOTEN  =      -398.54216811 eV

  energy without entropy =     -398.46300677  energy(sigma->0) =     -398.50258744


--------------------------------------------------------------------------------------------------------




--------------------------------------- Iteration      1(   5)  ---------------------------------------


     EDDAV:  cpu time  106.1138: real time  106.3651
    CHARGE:  cpu time    3.3343: real time    3.3422
    MIXING:  cpu time    0.0031: real time    0.0032
    --------------------------------------------
      LOOP:  cpu time  109.4477: real time  109.7071

 eigenvalue-minimisations  : 38576
 total energy-change (2. order) :-0.1871808E+01  (-0.1862953E+01)
 number of electron     352.0000041 magnetization      43.1087800
 augmentation part       99.3003044 magnetization      31.3875842

 Broyden mixing:
  rms(total) = 0.13162E+02    rms(broyden)= 0.13160E+02
  rms(prec ) = 0.16818E+02
  weight for this iteration     100.00

 Free energy of the ion-electron system (eV)
  ---------------------------------------------------
  alpha Z        PSCENC =      1016.03958320
  Ewald energy   TEWEN  =    -19582.81042477
  -Hartree energ DENC   =    -12009.15517711
  -exchange      EXHF   =         0.00000000
  -V(xc)+E(xc)   XCENC  =      1416.14963526
  PAW double counting   =     26463.90193480   -27579.55909067
  entropy T*S    EENTRO =        -0.07935349
  eigenvalues    EBANDS =     -1138.57343743
  atomic energy  EATOM  =     31013.67235384
  Solvation  Ediel_sol  =         0.00000000
  ---------------------------------------------------
  free energy    TOTEN  =      -400.41397637 eV

  energy without entropy =     -400.33462288  energy(sigma->0) =     -400.37429962


--------------------------------------------------------------------------------------------------------




--------------------------------------- Iteration      1(   6)  ---------------------------------------


    POTLOK:  cpu time    0.1375: real time    0.1378
    SETDIJ:  cpu time    0.0165: real time    0.0166
     EDDAV:  cpu time  136.5040: real time  136.8274
    CHARGE:  cpu time    3.6734: real time    3.6821
    MIXING:  cpu time    0.0037: real time    0.0038
    --------------------------------------------
      LOOP:  cpu time  140.3351: real time  140.6677

 eigenvalue-minimisations  : 54192
 total energy-change (2. order) :-0.1415755E+03  (-0.1043490E+03)
 number of electron     352.0000026 magnetization      36.7099262
 augmentation part      139.6504031 magnetization      34.4402637

 Broyden mixing:
  rms(total) = 0.25272E+02    rms(broyden)= 0.25271E+02
  rms(prec ) = 0.28993E+02
  weight for this iteration     100.00

 eigenvalues of (default mixing * dielectric matrix)
  average eigenvalue GAMMA=   0.1753
  0.1753

 Free energy of the ion-electron system (eV)
  ---------------------------------------------------
  alpha Z        PSCENC =      1016.03958320
  Ewald energy   TEWEN  =    -19582.81042477
  -Hartree energ DENC   =    -11346.94864893
  -exchange      EXHF   =         0.00000000
  -V(xc)+E(xc)   XCENC  =      1425.67511745
  PAW double counting   =     29298.72409617   -30214.01717998
  entropy T*S    EENTRO =        -0.03870817
  eigenvalues    EBANDS =     -2152.28561705
  atomic energy  EATOM  =     31013.67235384
  Solvation  Ediel_sol  =         0.00000000
  ---------------------------------------------------
  free energy    TOTEN  =      -541.98942824 eV

  energy without entropy =     -541.95072007  energy(sigma->0) =     -541.97007416


--------------------------------------------------------------------------------------------------------




--------------------------------------- Iteration      1(   7)  ---------------------------------------


    POTLOK:  cpu time    0.1412: real time    0.1416
    SETDIJ:  cpu time    0.0167: real time    0.0167
     EDDAV:  cpu time  117.7306: real time  118.0094
    CHARGE:  cpu time    2.2572: real time    2.2625
    MIXING:  cpu time    0.0030: real time    0.0030
    --------------------------------------------
      LOOP:  cpu time  120.1486: real time  120.4332

 eigenvalue-minimisations  : 46384
 total energy-change (2. order) : 0.2143627E+03  (-0.3171916E+02)
 number of electron     352.0000031 magnetization      30.6266701
 augmentation part      128.1331910 magnetization      25.0027847

 Broyden mixing:
  rms(total) = 0.10896E+02    rms(broyden)= 0.10895E+02
  rms(prec ) = 0.13785E+02
  weight for this iteration     100.00

 eigenvalues of (default mixing * dielectric matrix)
  average eigenvalue GAMMA=   0.5132
  0.5132  0.5132

 Free energy of the ion-electron system (eV)
  ---------------------------------------------------
  alpha Z        PSCENC =      1016.03958320
  Ewald energy   TEWEN  =    -19582.81042477
  -Hartree energ DENC   =    -11604.32646857
  -exchange      EXHF   =         0.00000000
  -V(xc)+E(xc)   XCENC  =      1415.14371768
  PAW double counting   =     30682.83882478   -31733.86183865
  entropy T*S    EENTRO =        -0.05292635
  eigenvalues    EBANDS =     -1534.26952041
  atomic energy  EATOM  =     31013.67235384
  Solvation  Ediel_sol  =         0.00000000
  ---------------------------------------------------
  free energy    TOTEN  =      -327.62669925 eV

  energy without entropy =     -327.57377290  energy(sigma->0) =     -327.60023607


--------------------------------------------------------------------------------------------------------




--------------------------------------- Iteration      1(   8)  ---------------------------------------


    POTLOK:  cpu time    0.1209: real time    0.1212
    SETDIJ:  cpu time    0.0161: real time    0.0162
     EDDAV:  cpu time  121.3785: real time  121.6659
    CHARGE:  cpu time    2.0230: real time    2.0782
    MIXING:  cpu time    0.0036: real time    0.0246
    --------------------------------------------
      LOOP:  cpu time  123.5421: real time  123.9060

 eigenvalue-minimisations  : 57648
 total energy-change (2. order) :-0.1376873E+02  (-0.2751901E+02)
 number of electron     352.0000031 magnetization      25.0975106
 augmentation part      124.1394889 magnetization      22.0032191

 Broyden mixing:
  rms(total) = 0.11196E+02    rms(broyden)= 0.11194E+02
  rms(prec ) = 0.16946E+02
  weight for this iteration     100.00

 eigenvalues of (default mixing * dielectric matrix)
  average eigenvalue GAMMA=   0.4839
  0.6195  0.6195  0.2127

 Free energy of the ion-electron system (eV)
  ---------------------------------------------------
  alpha Z        PSCENC =      1016.03958320
  Ewald energy   TEWEN  =    -19582.81042477
  -Hartree energ DENC   =    -11660.79254716
  -exchange      EXHF   =         0.00000000
  -V(xc)+E(xc)   XCENC  =      1406.38565158
  PAW double counting   =     31581.98642227   -32712.94547589
  entropy T*S    EENTRO =        -0.03458412
  eigenvalues    EBANDS =     -1402.89640511
  atomic energy  EATOM  =     31013.67235384
  Solvation  Ediel_sol  =         0.00000000
  ---------------------------------------------------
  free energy    TOTEN  =      -341.39542616 eV

  energy without entropy =     -341.36084204  energy(sigma->0) =     -341.37813410


--------------------------------------------------------------------------------------------------------




--------------------------------------- Iteration      1(   9)  ---------------------------------------


    POTLOK:  cpu time    0.1086: real time    0.1089
    SETDIJ:  cpu time    0.0146: real time    0.0146
     EDDAV:  cpu time  119.2191: real time  119.5257
    CHARGE:  cpu time    3.2012: real time    3.2088
    MIXING:  cpu time    0.0037: real time    0.0037
    --------------------------------------------
      LOOP:  cpu time  122.5471: real time  122.8616

 eigenvalue-minimisations  : 47696
 total energy-change (2. order) : 0.1630038E+02  (-0.2405008E+02)
 number of electron     352.0000031 magnetization      21.9204284
 augmentation part      107.1331319 magnetization      17.9209278

 Broyden mixing:
  rms(total) = 0.12231E+02    rms(broyden)= 0.12228E+02
  rms(prec ) = 0.18529E+02
  weight for this iteration     100.00

 eigenvalues of (default mixing * dielectric matrix)
  average eigenvalue GAMMA=   0.4213
  0.6576  0.6576  0.2259  0.1442

 Free energy of the ion-electron system (eV)
  ---------------------------------------------------
  alpha Z        PSCENC =      1016.03958320
  Ewald energy   TEWEN  =    -19582.81042477
  -Hartree energ DENC   =    -11724.15034163
  -exchange      EXHF   =         0.00000000
  -V(xc)+E(xc)   XCENC  =      1403.67012386
  PAW double counting   =     32544.19265444   -33712.09305766
  entropy T*S    EENTRO =        -0.05637151
  eigenvalues    EBANDS =     -1283.55956821
  atomic energy  EATOM  =     31013.67235384
  Solvation  Ediel_sol  =         0.00000000
  ---------------------------------------------------
  free energy    TOTEN  =      -325.09504844 eV

  energy without entropy =     -325.03867694  energy(sigma->0) =     -325.06686269


--------------------------------------------------------------------------------------------------------




--------------------------------------- Iteration      1(  10)  ---------------------------------------


    POTLOK:  cpu time    0.1400: real time    0.1403
    SETDIJ:  cpu time    0.0172: real time    0.0172
     EDDAV:  cpu time  128.0145: real time  128.3177
    CHARGE:  cpu time    3.3713: real time    3.3793
    MIXING:  cpu time    0.0037: real time    0.0037
    --------------------------------------------
      LOOP:  cpu time  131.5466: real time  131.8582

 eigenvalue-minimisations  : 50048
 total energy-change (2. order) : 0.2989113E+02  (-0.2046991E+02)
 number of electron     352.0000034 magnetization      19.8344679
 augmentation part      109.1394331 magnetization      15.3656399

 Broyden mixing:
  rms(total) = 0.70150E+01    rms(broyden)= 0.70126E+01
  rms(prec ) = 0.11050E+02
  weight for this iteration     100.00

 eigenvalues of (default mixing * dielectric matrix)
  average eigenvalue GAMMA=   0.3868
  0.6681  0.6681  0.2491  0.2491  0.0994

 Free energy of the ion-electron system (eV)
  ---------------------------------------------------
  alpha Z        PSCENC =      1016.03958320
  Ewald energy   TEWEN  =    -19582.81042477
  -Hartree energ DENC   =    -11707.93766963
  -exchange      EXHF   =         0.00000000
  -V(xc)+E(xc)   XCENC  =      1401.96524715
  PAW double counting   =     33107.38573037   -34282.74066348
  entropy T*S    EENTRO =        -0.05835788
  eigenvalues    EBANDS =     -1260.71971260
  atomic energy  EATOM  =     31013.67235384
  Solvation  Ediel_sol  =         0.00000000
  ---------------------------------------------------
  free energy    TOTEN  =      -295.20391380 eV

  energy without entropy =     -295.14555592  energy(sigma->0) =     -295.17473486


--------------------------------------------------------------------------------------------------------




--------------------------------------- Iteration      1(  11)  ---------------------------------------


    POTLOK:  cpu time    0.1401: real time    0.1404
    SETDIJ:  cpu time    0.0170: real time    0.0171
     EDDAV:  cpu time  128.0372: real time  128.3406
    CHARGE:  cpu time    3.3292: real time    3.3371
    MIXING:  cpu time    0.0040: real time    0.0040
    --------------------------------------------
      LOOP:  cpu time  131.5276: real time  131.8392

 eigenvalue-minimisations  : 50128
 total energy-change (2. order) : 0.1232736E+02  (-0.8288040E+01)
 number of electron     352.0000036 magnetization      16.9812291
 augmentation part      111.3132426 magnetization      13.3990893

 Broyden mixing:
  rms(total) = 0.50406E+01    rms(broyden)= 0.50380E+01
  rms(prec ) = 0.78395E+01
  weight for this iteration     100.00

 eigenvalues of (default mixing * dielectric matrix)
  average eigenvalue GAMMA=   0.3923
  0.9590  0.4467  0.3736  0.3736  0.1004  0.1004

 Free energy of the ion-electron system (eV)
  ---------------------------------------------------
  alpha Z        PSCENC =      1016.03958320
  Ewald energy   TEWEN  =    -19582.81042477
  -Hartree energ DENC   =    -11686.44464912
  -exchange      EXHF   =         0.00000000
  -V(xc)+E(xc)   XCENC  =      1401.03922630
  PAW double counting   =     33478.90948888   -34654.70442288
  entropy T*S    EENTRO =        -0.05658438
  eigenvalues    EBANDS =     -1268.52112239
  atomic energy  EATOM  =     31013.67235384
  Solvation  Ediel_sol  =         0.00000000
  ---------------------------------------------------
  free energy    TOTEN  =      -282.87655132 eV

  energy without entropy =     -282.81996694  energy(sigma->0) =     -282.84825913


--------------------------------------------------------------------------------------------------------




--------------------------------------- Iteration      1(  12)  ---------------------------------------


    POTLOK:  cpu time    0.1377: real time    0.1380
    SETDIJ:  cpu time    0.0166: real time    0.0166
     EDDAV:  cpu time  131.7184: real time  132.0303
    CHARGE:  cpu time    3.2127: real time    3.2203
    MIXING:  cpu time    0.0041: real time    0.0041
    --------------------------------------------
      LOOP:  cpu time  135.0895: real time  135.4093

 eigenvalue-minimisations  : 52176
 total energy-change (2. order) : 0.7929484E+01  (-0.4137918E+01)
 number of electron     352.0000032 magnetization      14.8716078
 augmentation part      113.6104624 magnetization      12.2467388

 Broyden mixing:
  rms(total) = 0.38349E+01    rms(broyden)= 0.38327E+01
  rms(prec ) = 0.58458E+01
  weight for this iteration     100.00

 eigenvalues of (default mixing * dielectric matrix)
  average eigenvalue GAMMA=   0.3817
  0.9271  0.6112  0.3848  0.3848  0.1669  0.0985  0.0985

 Free energy of the ion-electron system (eV)
  ---------------------------------------------------
  alpha Z        PSCENC =      1016.03958320
  Ewald energy   TEWEN  =    -19582.81042477
  -Hartree energ DENC   =    -11658.83608006
  -exchange      EXHF   =         0.00000000
  -V(xc)+E(xc)   XCENC  =      1400.27521508
  PAW double counting   =     33930.77342770   -35105.49082915
  entropy T*S    EENTRO =        -0.05084067
  eigenvalues    EBANDS =     -1288.51947290
  atomic energy  EATOM  =     31013.67235384
  Solvation  Ediel_sol  =         0.00000000
  ---------------------------------------------------
  free energy    TOTEN  =      -274.94706774 eV

  energy without entropy =     -274.89622707  energy(sigma->0) =     -274.92164741


--------------------------------------------------------------------------------------------------------




--------------------------------------- Iteration      1(  13)  ---------------------------------------


    POTLOK:  cpu time    0.1326: real time    0.1329
    SETDIJ:  cpu time    0.0166: real time    0.0167
     EDDAV:  cpu time  121.4156: real time  121.7031
    CHARGE:  cpu time    3.3372: real time    3.3451
    MIXING:  cpu time    0.0042: real time    0.0043
    --------------------------------------------
      LOOP:  cpu time  124.9063: real time  125.2021

 eigenvalue-minimisations  : 47472
 total energy-change (2. order) : 0.4010188E+01  (-0.2926256E+01)
 number of electron     352.0000028 magnetization      12.4701614
 augmentation part      114.8555401 magnetization       9.6355836

 Broyden mixing:
  rms(total) = 0.24184E+01    rms(broyden)= 0.24172E+01
  rms(prec ) = 0.36556E+01
  weight for this iteration     100.00

 eigenvalues of (default mixing * dielectric matrix)
  average eigenvalue GAMMA=   0.4291
  0.9693  0.9693  0.4596  0.4596  0.2430  0.1347  0.0987  0.0987

 Free energy of the ion-electron system (eV)
  ---------------------------------------------------
  alpha Z        PSCENC =      1016.03958320
  Ewald energy   TEWEN  =    -19582.81042477
  -Hartree energ DENC   =    -11645.02473218
  -exchange      EXHF   =         0.00000000
  -V(xc)+E(xc)   XCENC  =      1400.03429435
  PAW double counting   =     34170.64121662   -35343.15176025
  entropy T*S    EENTRO =        -0.05026585
  eigenvalues    EBANDS =     -1300.28714465
  atomic energy  EATOM  =     31013.67235384
  Solvation  Ediel_sol  =         0.00000000
  ---------------------------------------------------
  free energy    TOTEN  =      -270.93687968 eV

  energy without entropy =     -270.88661384  energy(sigma->0) =     -270.91174676


--------------------------------------------------------------------------------------------------------




--------------------------------------- Iteration      1(  14)  ---------------------------------------


    POTLOK:  cpu time    0.1361: real time    0.1364
    SETDIJ:  cpu time    0.0162: real time    0.0163
     EDDAV:  cpu time  131.9833: real time  132.2957
    CHARGE:  cpu time    3.3231: real time    3.3310
    MIXING:  cpu time    0.0044: real time    0.0044
    --------------------------------------------
      LOOP:  cpu time  135.4632: real time  135.7838

 eigenvalue-minimisations  : 51440
 total energy-change (2. order) : 0.1848613E+01  (-0.1308459E+01)
 number of electron     352.0000032 magnetization      11.4405973
 augmentation part      114.5482361 magnetization       8.6118689

 Broyden mixing:
  rms(total) = 0.20747E+01    rms(broyden)= 0.20736E+01
  rms(prec ) = 0.30082E+01
  weight for this iteration     100.00

 eigenvalues of (default mixing * dielectric matrix)
  average eigenvalue GAMMA=   0.4310
  1.0443  1.0443  0.4896  0.4896  0.2781  0.2046  0.1356  0.0963  0.0963

 Free energy of the ion-electron system (eV)
  ---------------------------------------------------
  alpha Z        PSCENC =      1016.03958320
  Ewald energy   TEWEN  =    -19582.81042477
  -Hartree energ DENC   =    -11650.45717571
  -exchange      EXHF   =         0.00000000
  -V(xc)+E(xc)   XCENC  =      1400.27927128
  PAW double counting   =     34361.44154541   -35532.27365658
  entropy T*S    EENTRO =        -0.03446971
  eigenvalues    EBANDS =     -1294.94529336
  atomic energy  EATOM  =     31013.67235384
  Solvation  Ediel_sol  =         0.00000000
  ---------------------------------------------------
  free energy    TOTEN  =      -269.08826641 eV

  energy without entropy =     -269.05379669  energy(sigma->0) =     -269.07103155


--------------------------------------------------------------------------------------------------------




--------------------------------------- Iteration      1(  15)  ---------------------------------------


    POTLOK:  cpu time    0.1373: real time    0.1376
    SETDIJ:  cpu time    0.0166: real time    0.0166
     EDDAV:  cpu time  135.0508: real time  135.3705
    CHARGE:  cpu time    3.2226: real time    3.2302
    MIXING:  cpu time    0.0047: real time    0.0047
    --------------------------------------------
      LOOP:  cpu time  138.4320: real time  138.7597

 eigenvalue-minimisations  : 52784
 total energy-change (2. order) : 0.1227973E+01  (-0.6947889E+00)
 number of electron     352.0000032 magnetization       9.3494655
 augmentation part      114.6812357 magnetization       6.4169106

 Broyden mixing:
  rms(total) = 0.14128E+01    rms(broyden)= 0.14118E+01
  rms(prec ) = 0.20158E+01
  weight for this iteration     100.00

 eigenvalues of (default mixing * dielectric matrix)
  average eigenvalue GAMMA=   0.4488
  1.1256  1.1256  0.5502  0.4836  0.4836  0.2459  0.1479  0.1318  0.0968  0.0968

 Free energy of the ion-electron system (eV)
  ---------------------------------------------------
  alpha Z        PSCENC =      1016.03958320
  Ewald energy   TEWEN  =    -19582.81042477
  -Hartree energ DENC   =    -11652.94825405
  -exchange      EXHF   =         0.00000000
  -V(xc)+E(xc)   XCENC  =      1400.40143667
  PAW double counting   =     34454.20980801   -35624.94919782
  entropy T*S    EENTRO =        -0.04444104
  eigenvalues    EBANDS =     -1291.43115779
  atomic energy  EATOM  =     31013.67235384
  Solvation  Ediel_sol  =         0.00000000
  ---------------------------------------------------
  free energy    TOTEN  =      -267.86029375 eV

  energy without entropy =     -267.81585271  energy(sigma->0) =     -267.83807323


--------------------------------------------------------------------------------------------------------




--------------------------------------- Iteration      1(  16)  ---------------------------------------


    POTLOK:  cpu time    0.1353: real time    0.1357
    SETDIJ:  cpu time    0.0169: real time    0.0169
     EDDAV:  cpu time  129.5013: real time  129.8079
    CHARGE:  cpu time    3.2157: real time    3.2233
    MIXING:  cpu time    0.0069: real time    0.0410
    --------------------------------------------
      LOOP:  cpu time  132.8761: real time  133.2248

 eigenvalue-minimisations  : 50944
 total energy-change (2. order) : 0.8452277E-02  (-0.6161982E+00)
 number of electron     352.0000031 magnetization       7.7792315
 augmentation part      114.8579918 magnetization       5.1920209

 Broyden mixing:
  rms(total) = 0.13373E+01    rms(broyden)= 0.13365E+01
  rms(prec ) = 0.19259E+01
  weight for this iteration     100.00

 eigenvalues of (default mixing * dielectric matrix)
  average eigenvalue GAMMA=   0.4494
  1.3292  0.8577  0.8577  0.4702  0.4702  0.2689  0.2283  0.1524  0.0969  0.0969
  0.1154

 Free energy of the ion-electron system (eV)
  ---------------------------------------------------
  alpha Z        PSCENC =      1016.03958320
  Ewald energy   TEWEN  =    -19582.81042477
  -Hartree energ DENC   =    -11654.99080481
  -exchange      EXHF   =         0.00000000
  -V(xc)+E(xc)   XCENC  =      1400.58058384
  PAW double counting   =     34701.22597177   -35872.87743381
  entropy T*S    EENTRO =        -0.02853165
  eigenvalues    EBANDS =     -1288.66313909
  atomic energy  EATOM  =     31013.67235384
  Solvation  Ediel_sol  =         0.00000000
  ---------------------------------------------------
  free energy    TOTEN  =      -267.85184147 eV

  energy without entropy =     -267.82330982  energy(sigma->0) =     -267.83757565


--------------------------------------------------------------------------------------------------------




--------------------------------------- Iteration      1(  17)  ---------------------------------------


    POTLOK:  cpu time    0.1394: real time    0.1398
    SETDIJ:  cpu time    0.0163: real time    0.0163
     EDDAV:  cpu time  116.1696: real time  116.4446
    CHARGE:  cpu time    3.4111: real time    3.4191
    MIXING:  cpu time    0.0048: real time    0.0048
    --------------------------------------------
      LOOP:  cpu time  119.7410: real time  120.0245

 eigenvalue-minimisations  : 44224
 total energy-change (2. order) : 0.1034461E+00  (-0.4685911E+00)
 number of electron     352.0000032 magnetization       6.2953825
 augmentation part      115.1658901 magnetization       3.5879743

 Broyden mixing:
  rms(total) = 0.12558E+01    rms(broyden)= 0.12549E+01
  rms(prec ) = 0.18151E+01
  weight for this iteration     100.00

 eigenvalues of (default mixing * dielectric matrix)
  average eigenvalue GAMMA=   0.4707
  1.7224  0.8690  0.8690  0.4713  0.4713  0.3985  0.2439  0.1628  0.0967  0.0967
  0.1232  0.1232

 Free energy of the ion-electron system (eV)
  ---------------------------------------------------
  alpha Z        PSCENC =      1016.03958320
  Ewald energy   TEWEN  =    -19582.81042477
  -Hartree energ DENC   =    -11651.86435471
  -exchange      EXHF   =         0.00000000
  -V(xc)+E(xc)   XCENC  =      1400.60277045
  PAW double counting   =     34923.13741092   -36095.68375918
  entropy T*S    EENTRO =        -0.03617439
  eigenvalues    EBANDS =     -1290.80580071
  atomic energy  EATOM  =     31013.67235384
  Solvation  Ediel_sol  =         0.00000000
  ---------------------------------------------------
  free energy    TOTEN  =      -267.74839536 eV

  energy without entropy =     -267.71222096  energy(sigma->0) =     -267.73030816


--------------------------------------------------------------------------------------------------------




--------------------------------------- Iteration      1(  18)  ---------------------------------------


    POTLOK:  cpu time    0.1451: real time    0.1454
    SETDIJ:  cpu time    0.0167: real time    0.0167
     EDDAV:  cpu time  126.4251: real time  126.7244
    CHARGE:  cpu time    3.3481: real time    3.3560
    MIXING:  cpu time    0.0051: real time    0.0051
    --------------------------------------------
      LOOP:  cpu time  129.9400: real time  130.2477

 eigenvalue-minimisations  : 47200
 total energy-change (2. order) : 0.1501800E+00  (-0.3938230E+00)
 number of electron     352.0000032 magnetization       5.3791791
 augmentation part      115.5852080 magnetization       3.0830769

 Broyden mixing:
  rms(total) = 0.85860E+00    rms(broyden)= 0.85773E+00
  rms(prec ) = 0.12761E+01
  weight for this iteration     100.00

 eigenvalues of (default mixing * dielectric matrix)
  average eigenvalue GAMMA=   0.4841
  1.9252  0.8985  0.8985  0.5371  0.4756  0.4756  0.2689  0.2358  0.1516  0.1281
  0.0967  0.0967  0.1055

 Free energy of the ion-electron system (eV)
  ---------------------------------------------------
  alpha Z        PSCENC =      1016.03958320
  Ewald energy   TEWEN  =    -19582.81042477
  -Hartree energ DENC   =    -11647.65792681
  -exchange      EXHF   =         0.00000000
  -V(xc)+E(xc)   XCENC  =      1400.56955868
  PAW double counting   =     35168.04388804   -36341.84710126
  entropy T*S    EENTRO =        -0.03463389
  eigenvalues    EBANDS =     -1293.57351235
  atomic energy  EATOM  =     31013.67235384
  Solvation  Ediel_sol  =         0.00000000
  ---------------------------------------------------
  free energy    TOTEN  =      -267.59821532 eV

  energy without entropy =     -267.56358143  energy(sigma->0) =     -267.58089837


--------------------------------------------------------------------------------------------------------




--------------------------------------- Iteration      1(  19)  ---------------------------------------


    POTLOK:  cpu time    0.1427: real time    0.1431
    SETDIJ:  cpu time    0.0172: real time    0.0172
     EDDAV:  cpu time  124.7754: real time  125.0708
    CHARGE:  cpu time    3.3639: real time    3.3718
    MIXING:  cpu time    0.0053: real time    0.0053
    --------------------------------------------
      LOOP:  cpu time  128.3045: real time  128.6082

 eigenvalue-minimisations  : 46192
 total energy-change (2. order) : 0.3076256E-01  (-0.1719300E+00)
 number of electron     352.0000031 magnetization       4.8322922
 augmentation part      115.8146692 magnetization       2.6133777

 Broyden mixing:
  rms(total) = 0.69205E+00    rms(broyden)= 0.69141E+00
  rms(prec ) = 0.99816E+00
  weight for this iteration     100.00

 eigenvalues of (default mixing * dielectric matrix)
  average eigenvalue GAMMA=   0.4924
  2.0120  0.9628  0.9628  0.6790  0.4722  0.4722  0.3395  0.2476  0.1766  0.1513
  0.1217  0.0967  0.0967  0.1025

 Free energy of the ion-electron system (eV)
  ---------------------------------------------------
  alpha Z        PSCENC =      1016.03958320
  Ewald energy   TEWEN  =    -19582.81042477
  -Hartree energ DENC   =    -11645.44939223
  -exchange      EXHF   =         0.00000000
  -V(xc)+E(xc)   XCENC  =      1400.54472944
  PAW double counting   =     35333.59531687   -36508.75678602
  entropy T*S    EENTRO =        -0.03232661
  eigenvalues    EBANDS =     -1294.37050648
  atomic energy  EATOM  =     31013.67235384
  Solvation  Ediel_sol  =         0.00000000
  ---------------------------------------------------
  free energy    TOTEN  =      -267.56745276 eV

  energy without entropy =     -267.53512615  energy(sigma->0) =     -267.55128945


--------------------------------------------------------------------------------------------------------




--------------------------------------- Iteration      1(  20)  ---------------------------------------


    POTLOK:  cpu time    0.1436: real time    0.1440
    SETDIJ:  cpu time    0.0168: real time    0.0169
     EDDAV:  cpu time  130.9874: real time  131.2976
    CHARGE:  cpu time    3.3741: real time    3.3821
    MIXING:  cpu time    0.0059: real time    0.0059
    --------------------------------------------
      LOOP:  cpu time  134.5279: real time  134.8464

 eigenvalue-minimisations  : 48960
 total energy-change (2. order) : 0.1190547E+00  (-0.5297243E-01)
 number of electron     352.0000031 magnetization       4.7688440
 augmentation part      115.8114470 magnetization       2.6365857

 Broyden mixing:
  rms(total) = 0.40059E+00    rms(broyden)= 0.40028E+00
  rms(prec ) = 0.55274E+00
  weight for this iteration     100.00

 eigenvalues of (default mixing * dielectric matrix)
  average eigenvalue GAMMA=   0.5011
  2.0469  1.0027  1.0027  0.7423  0.4696  0.4696  0.5192  0.2905  0.2322  0.1737
  0.1462  0.1230  0.0967  0.0967  0.1049

 Free energy of the ion-electron system (eV)
  ---------------------------------------------------
  alpha Z        PSCENC =      1016.03958320
  Ewald energy   TEWEN  =    -19582.81042477
  -Hartree energ DENC   =    -11645.27081596
  -exchange      EXHF   =         0.00000000
  -V(xc)+E(xc)   XCENC  =      1400.54745823
  PAW double counting   =     35443.63691803   -36620.28366163
  entropy T*S    EENTRO =        -0.03011055
  eigenvalues    EBANDS =     -1292.94969844
  atomic energy  EATOM  =     31013.67235384
  Solvation  Ediel_sol  =         0.00000000
  ---------------------------------------------------
  free energy    TOTEN  =      -267.44839806 eV

  energy without entropy =     -267.41828751  energy(sigma->0) =     -267.43334279


--------------------------------------------------------------------------------------------------------




--------------------------------------- Iteration      1(  21)  ---------------------------------------


    POTLOK:  cpu time    0.1402: real time    0.1406
    SETDIJ:  cpu time    0.0168: real time    0.0169
     EDDAV:  cpu time  124.5873: real time  124.8823
    CHARGE:  cpu time    3.1312: real time    3.1386
    MIXING:  cpu time    0.0056: real time    0.0056
    --------------------------------------------
      LOOP:  cpu time  127.8811: real time  128.1840

 eigenvalue-minimisations  : 45776
 total energy-change (2. order) :-0.4764506E-02  (-0.3446243E-01)
 number of electron     352.0000031 magnetization       4.6509537
 augmentation part      115.5610066 magnetization       2.4864128

 Broyden mixing:
  rms(total) = 0.46136E+00    rms(broyden)= 0.46106E+00
  rms(prec ) = 0.65336E+00
  weight for this iteration     100.00

 eigenvalues of (default mixing * dielectric matrix)
  average eigenvalue GAMMA=   0.5072
  2.0937  1.0583  1.0583  0.8875  0.6106  0.4679  0.4679  0.3107  0.2404  0.2009
  0.1499  0.1499  0.1214  0.0967  0.0967  0.1038

 Free energy of the ion-electron system (eV)
  ---------------------------------------------------
  alpha Z        PSCENC =      1016.03958320
  Ewald energy   TEWEN  =    -19582.81042477
  -Hartree energ DENC   =    -11647.84303253
  -exchange      EXHF   =         0.00000000
  -V(xc)+E(xc)   XCENC  =      1400.56998644
  PAW double counting   =     35460.34766670   -36637.80312209
  entropy T*S    EENTRO =        -0.03352437
  eigenvalues    EBANDS =     -1289.59264899
  atomic energy  EATOM  =     31013.67235384
  Solvation  Ediel_sol  =         0.00000000
  ---------------------------------------------------
  free energy    TOTEN  =      -267.45316257 eV

  energy without entropy =     -267.41963820  energy(sigma->0) =     -267.43640038


--------------------------------------------------------------------------------------------------------




--------------------------------------- Iteration      1(  22)  ---------------------------------------


    POTLOK:  cpu time    0.1424: real time    0.1427
    SETDIJ:  cpu time    0.0172: real time    0.0173
     EDDAV:  cpu time  122.2503: real time  122.5397
    CHARGE:  cpu time    3.0815: real time    3.0888
    MIXING:  cpu time    0.0059: real time    0.0059
    --------------------------------------------
      LOOP:  cpu time  125.4973: real time  125.7944

 eigenvalue-minimisations  : 44896
 total energy-change (2. order) : 0.9324300E-02  (-0.3057780E-01)
 number of electron     352.0000031 magnetization       4.3772040
 augmentation part      115.5308889 magnetization       2.4052745

 Broyden mixing:
  rms(total) = 0.34281E+00    rms(broyden)= 0.34246E+00
  rms(prec ) = 0.48421E+00
  weight for this iteration     100.00

 eigenvalues of (default mixing * dielectric matrix)
  average eigenvalue GAMMA=   0.5235
  2.3453  1.0350  1.0350  0.9975  0.7360  0.4685  0.4685  0.4150  0.2908  0.2351
  0.1685  0.1483  0.0967  0.0967  0.1366  0.1221  0.1044

 Free energy of the ion-electron system (eV)
  ---------------------------------------------------
  alpha Z        PSCENC =      1016.03958320
  Ewald energy   TEWEN  =    -19582.81042477
  -Hartree energ DENC   =    -11648.14734908
  -exchange      EXHF   =         0.00000000
  -V(xc)+E(xc)   XCENC  =      1400.56890681
  PAW double counting   =     35486.33863392   -36664.07515290
  entropy T*S    EENTRO =        -0.02986126
  eigenvalues    EBANDS =     -1289.00052801
  atomic energy  EATOM  =     31013.67235384
  Solvation  Ediel_sol  =         0.00000000
  ---------------------------------------------------
  free energy    TOTEN  =      -267.44383827 eV

  energy without entropy =     -267.41397701  energy(sigma->0) =     -267.42890764


--------------------------------------------------------------------------------------------------------




--------------------------------------- Iteration      1(  23)  ---------------------------------------


    POTLOK:  cpu time    0.1429: real time    0.1433
    SETDIJ:  cpu time    0.0173: real time    0.0173
     EDDAV:  cpu time  122.7781: real time  123.0687
    CHARGE:  cpu time    3.1365: real time    3.1439
    MIXING:  cpu time    0.0059: real time    0.0059
    --------------------------------------------
      LOOP:  cpu time  126.0806: real time  126.3791

 eigenvalue-minimisations  : 44992
 total energy-change (2. order) : 0.8758509E-02  (-0.2177874E-01)
 number of electron     352.0000031 magnetization       4.2360325
 augmentation part      115.5620752 magnetization       2.1471878

 Broyden mixing:
  rms(total) = 0.31190E+00    rms(broyden)= 0.31159E+00
  rms(prec ) = 0.46008E+00
  weight for this iteration     100.00

 eigenvalues of (default mixing * dielectric matrix)
  average eigenvalue GAMMA=   0.5295
  2.4770  1.0355  1.0355  1.0642  0.8570  0.4697  0.4697  0.5082  0.3101  0.2308
  0.2222  0.1700  0.1474  0.0967  0.0967  0.1236  0.1043  0.1126

 Free energy of the ion-electron system (eV)
  ---------------------------------------------------
  alpha Z        PSCENC =      1016.03958320
  Ewald energy   TEWEN  =    -19582.81042477
  -Hartree energ DENC   =    -11647.62517252
  -exchange      EXHF   =         0.00000000
  -V(xc)+E(xc)   XCENC  =      1400.56966710
  PAW double counting   =     35525.42008969   -36703.14615502
  entropy T*S    EENTRO =        -0.03280990
  eigenvalues    EBANDS =     -1289.52221138
  atomic energy  EATOM  =     31013.67235384
  Solvation  Ediel_sol  =         0.00000000
  ---------------------------------------------------
  free energy    TOTEN  =      -267.43507976 eV

  energy without entropy =     -267.40226986  energy(sigma->0) =     -267.41867481


--------------------------------------------------------------------------------------------------------




--------------------------------------- Iteration      1(  24)  ---------------------------------------


    POTLOK:  cpu time    0.1406: real time    0.1409
    SETDIJ:  cpu time    0.0174: real time    0.0174
     EDDAV:  cpu time  137.0264: real time  137.3508
    CHARGE:  cpu time    3.0307: real time    3.0379
    MIXING:  cpu time    0.0065: real time    0.0065
    --------------------------------------------
      LOOP:  cpu time  140.2216: real time  140.5535

 eigenvalue-minimisations  : 51440
 total energy-change (2. order) : 0.1331173E-01  (-0.1056967E-01)
 number of electron     352.0000032 magnetization       4.2115126
 augmentation part      115.6464386 magnetization       2.2034759

 Broyden mixing:
  rms(total) = 0.18392E+00    rms(broyden)= 0.18379E+00
  rms(prec ) = 0.26535E+00
  weight for this iteration     100.00

 eigenvalues of (default mixing * dielectric matrix)
  average eigenvalue GAMMA=   0.5538
  2.6593  1.4679  1.0265  1.0265  0.7512  0.7512  0.4684  0.4684  0.3505  0.2894
  0.2380  0.1792  0.1602  0.1466  0.0967  0.0967  0.1044  0.1241  0.1169

 Free energy of the ion-electron system (eV)
  ---------------------------------------------------
  alpha Z        PSCENC =      1016.03958320
  Ewald energy   TEWEN  =    -19582.81042477
  -Hartree energ DENC   =    -11647.09129445
  -exchange      EXHF   =         0.00000000
  -V(xc)+E(xc)   XCENC  =      1400.58112855
  PAW double counting   =     35550.60135983   -36728.20388581
  entropy T*S    EENTRO =        -0.03045435
  eigenvalues    EBANDS =     -1290.18013408
  atomic energy  EATOM  =     31013.67235384
  Solvation  Ediel_sol  =         0.00000000
  ---------------------------------------------------
  free energy    TOTEN  =      -267.42176803 eV

  energy without entropy =     -267.39131368  energy(sigma->0) =     -267.40654085


--------------------------------------------------------------------------------------------------------




[...]
 -0.000  -0.000  -0.000   0.000   0.000   0.000   0.000   0.000   0.000  -0.000  -0.000   0.000   0.000  -0.000   0.000  -0.000


------------------------ aborting loop because EDIFF is reached ----------------------------------------


    CHARGE:  cpu time    3.0565: real time    3.0637
    FORLOC:  cpu time    0.0245: real time    0.0246
    FORNL :  cpu time   22.7007: real time   22.7544
    STRESS:  cpu time   58.3551: real time   58.4932
    FORCOR:  cpu time    0.1179: real time    0.1182
    FORHAR:  cpu time    0.0282: real time    0.0283
    MIXING:  cpu time    0.0078: real time    0.0078
    OFIELD:  cpu time    0.0000: real time    0.0000

  FORCE on cell =-STRESS in cart. coord.  units (eV):
  Direction    XX          YY          ZZ          XY          YZ          ZX
  --------------------------------------------------------------------------------------
  Alpha Z  1016.03958  1016.03958  1016.03958
  Ewald   -6360.06512 -6802.21337 -6420.64535   204.62938   181.54375   306.64376
  Hartree  3966.10624  3759.64267  3924.31489    99.57006    83.87275   158.78238
  E(xc)   -1791.30719 -1791.24560 -1791.18747    -0.01762    -0.01914    -0.01551
  Local   -4416.74918 -3783.45059 -4316.17398  -280.91742  -244.06727  -444.95304
  n-local  -756.51989  -763.08211  -760.01617     3.68862     4.13852     1.94984
  augment  2989.24387  3001.25091  2990.43289   -11.01513    -9.96627   -10.50552
  Kinetic  5370.66844  5378.95321  5375.96634    -9.82414   -12.63206    -8.63183
  Fock        0.00000     0.00000     0.00000     0.00000     0.00000     0.00000
  -------------------------------------------------------------------------------------
  Total       17.4167499     15.8947027     18.7307268      6.1137578      2.8702925      3.2700841
  in kB       51.7290497     47.2084555     55.6316592     18.1583177      8.5249833      9.7123942
  external PRESSURE =      51.5230548 kB  Pullay stress =       0.0000000 kB


 VOLUME and BASIS-vectors are now :
 -----------------------------------------------------------------------------
  energy-cutoff  :      500.00
  volume of cell :      539.44
      direct lattice vectors                 reciprocal lattice vectors
     8.140437250  0.000000000  0.000000000     0.122843524  0.000000000  0.000000000
     0.000000000  8.140437250  0.000000000     0.000000000  0.122843524  0.000000000
     0.000000000  0.000000000  8.140437250     0.000000000  0.000000000  0.122843524

  length of vectors
     8.140437250  8.140437250  8.140437250     0.122843524  0.122843524  0.122843524


 FORCES acting on ions
    electron-ion (+dipol)            ewald-force                    non-local-force                 convergence-correction
 -----------------------------------------------------------------------------------------------
   0.218E+02 0.674E+01 0.896E+02   -.201E+02 -.764E+01 -.909E+02   0.378E+00 -.308E+01 0.581E+00   -.148E-01 -.338E-01 -.186E-01
   0.790E+02 -.531E+02 0.243E+03   -.824E+02 0.534E+02 -.250E+03   -.694E+00 0.694E+00 -.173E+00   -.229E-01 -.598E-01 0.453E-02
   -.887E+02 0.663E+02 -.156E+03   0.940E+02 -.706E+02 0.155E+03   0.847E+00 0.515E+00 0.736E+00   -.161E-01 -.279E-01 0.393E-01
   -.435E+02 0.475E+02 0.147E+03   0.434E+02 -.500E+02 -.153E+03   0.616E+00 -.117E+01 0.128E+01   0.228E-01 -.273E-03 0.211E-01
   0.856E+02 0.496E+02 0.919E+02   -.899E+02 -.522E+02 -.108E+03   0.338E+01 0.260E+01 0.251E+01   -.145E-01 0.279E-01 0.811E-03
   -.321E+02 0.165E+03 0.943E+02   0.318E+02 -.178E+03 -.982E+02   -.512E+00 0.359E+01 0.204E+00   -.314E-01 0.518E-01 -.630E-02
   -.112E+03 0.190E+03 -.298E+03   0.130E+03 -.193E+03 0.302E+03   -.482E+01 0.309E-01 -.107E+01   -.838E-01 0.412E-01 -.569E-01
   0.826E+02 -.942E+01 -.132E+00   -.821E+02 0.164E+02 -.941E+00   -.571E+00 -.329E+01 -.290E+01   -.183E-01 0.298E-01 -.248E-01
   -.435E+02 -.150E+03 -.258E+02   0.505E+02 0.149E+03 0.245E+02   -.297E+00 0.144E+01 0.824E+00   -.391E-01 -.145E-01 -.718E-02
   0.614E+01 0.688E+02 -.122E+03   -.863E+01 -.697E+02 0.130E+03   0.223E+01 -.424E+00 0.314E+00   0.195E-01 0.118E-01 0.278E-01
   -.392E+02 -.166E+03 0.150E+03   0.392E+02 0.178E+03 -.157E+03   0.188E+01 -.110E+01 0.145E+01   0.468E-01 -.174E-01 0.110E-01
   -.106E+03 -.578E+02 -.128E+03   0.111E+03 0.620E+02 0.129E+03   0.124E+00 -.180E+01 0.591E+00   0.682E-02 -.398E-01 -.218E-01
   -.894E+02 -.861E+02 0.102E+03   0.872E+02 0.930E+02 -.103E+03   -.167E+01 0.446E+00 0.105E+01   0.644E-01 -.648E-02 0.492E-02
   0.412E+02 0.138E+03 -.122E+03   -.426E+02 -.139E+03 0.124E+03   -.960E+00 -.112E+01 -.171E+00   0.515E-01 0.264E-01 -.320E-01
   -.161E+03 0.368E+01 -.909E+02   0.163E+03 -.638E+01 0.933E+02   -.526E+00 -.107E+01 -.340E+00   0.386E-01 0.193E-01 0.225E-01
   0.583E+02 0.134E+02 0.285E+02   -.624E+02 -.147E+02 -.286E+02   -.336E+00 -.216E+01 0.111E+01   -.167E-01 0.295E-01 0.419E-01
   -.268E+03 0.146E+03 0.248E+03   0.292E+03 -.156E+03 -.263E+03   -.206E+02 0.111E+02 0.137E+02   0.136E-01 -.127E-02 -.409E-03
   -.139E+03 -.226E+03 -.267E+03   0.149E+03 0.244E+03 0.296E+03   -.115E+02 -.179E+02 -.211E+02   -.249E-01 -.406E-01 0.493E-01
   0.227E+03 -.149E+03 -.126E+03   -.238E+03 0.158E+03 0.136E+03   0.103E+02 -.111E+02 -.113E+02   -.963E-02 0.197E-01 0.174E-01
   -.166E+03 -.268E+03 0.183E+03   0.179E+03 0.291E+03 -.191E+03   -.134E+02 -.192E+02 0.804E+01   0.734E-03 -.415E-02 0.315E-01
   0.143E+03 0.172E+03 0.217E+03   -.151E+03 -.179E+03 -.229E+03   0.965E+01 0.924E+01 0.132E+02   -.106E-01 0.304E-01 0.199E-01
   -.199E+03 0.182E+03 -.238E+03   0.215E+03 -.191E+03 0.258E+03   -.165E+02 0.101E+02 -.191E+02   0.808E-02 0.161E-01 -.530E-01
   0.239E+03 0.120E+03 -.175E+03   -.259E+03 -.127E+03 0.187E+03   0.195E+02 0.829E+01 -.123E+02   0.126E-01 0.154E-01 0.117E-01
   0.164E+03 -.275E+03 0.223E+03   -.172E+03 0.296E+03 -.234E+03   0.851E+01 -.198E+02 0.120E+02   -.246E-01 -.206E-01 0.948E-02
   -.183E+03 0.136E+03 0.144E+03   0.190E+03 -.147E+03 -.155E+03   -.816E+01 0.122E+02 0.122E+02   0.899E-03 -.307E-01 0.173E-01
   -.152E+03 -.187E+03 -.295E+03   0.164E+03 0.203E+03 0.317E+03   -.131E+02 -.174E+02 -.184E+02   -.498E-01 0.425E-01 -.148E-01
   0.247E+03 -.226E+03 -.679E+02   -.268E+03 0.244E+03 0.680E+02   0.168E+02 -.951E+01 -.183E+01   -.237E-03 0.155E-01 -.822E-02
   -.125E+03 -.228E+03 0.181E+03   0.132E+03 0.241E+03 -.194E+03   -.837E+01 -.136E+02 0.151E+02   0.266E-05 -.447E-01 0.268E-02
   0.315E+03 0.880E+02 0.707E+02   -.341E+03 -.914E+02 -.774E+02   0.221E+02 0.397E+01 0.843E+01   0.525E-02 -.422E-01 -.291E-01
   -.145E+03 0.206E+03 -.286E+03   0.155E+03 -.222E+03 0.309E+03   -.109E+02 0.149E+02 -.182E+02   0.174E-01 0.211E-01 -.852E-02
   0.177E+03 0.139E+03 -.202E+03   -.196E+03 -.154E+03 0.217E+03   0.167E+02 0.157E+02 -.158E+02   0.226E-02 0.922E-02 -.208E-01
   0.274E+03 -.152E+03 0.179E+03   -.289E+03 0.162E+03 -.190E+03   0.139E+02 -.120E+02 0.129E+02   -.635E-02 -.740E-02 0.275E-01
   -.165E+03 0.224E+03 0.228E+03   0.178E+03 -.240E+03 -.244E+03   -.140E+02 0.166E+02 0.160E+02   -.337E-01 0.820E-02 -.239E-01
   -.201E+03 -.165E+03 -.169E+03   0.212E+03 0.174E+03 0.179E+03   -.138E+02 -.109E+02 -.104E+02   0.535E-02 -.109E-01 0.212E-01
   0.177E+03 -.179E+03 -.198E+03   -.193E+03 0.191E+03 0.209E+03   0.160E+02 -.129E+02 -.129E+02   0.508E-01 0.366E-01 0.107E-01
   -.186E+03 -.145E+03 0.139E+03   0.194E+03 0.154E+03 -.153E+03   -.760E+01 -.948E+01 0.138E+02   0.327E-01 -.109E-01 -.173E-01
   0.121E+03 0.344E+03 0.203E+03   -.130E+03 -.378E+03 -.218E+03   0.105E+02 0.246E+02 0.152E+02   0.508E-01 0.141E-01 -.208E-01
   -.255E+03 0.180E+03 -.142E+03   0.272E+03 -.186E+03 0.153E+03   -.176E+02 0.711E+01 -.117E+02   -.441E-02 0.223E-01 -.104E-01
   0.288E+03 0.198E+03 -.274E+03   -.311E+03 -.208E+03 0.300E+03   0.165E+02 0.105E+02 -.160E+02   -.628E-01 0.395E-01 -.490E-01
   0.129E+03 -.179E+03 0.176E+03   -.141E+03 0.195E+03 -.189E+03   0.131E+02 -.175E+02 0.133E+02   -.333E-01 -.218E-01 0.193E-01
   -.163E+03 0.223E+03 0.228E+03   0.174E+03 -.241E+03 -.243E+03   -.111E+02 0.189E+02 0.144E+02   -.186E-01 -.221E-01 0.236E-01
   -.259E+03 -.198E+03 -.162E+03   0.279E+03 0.215E+03 0.176E+03   -.180E+02 -.155E+02 -.156E+02   -.232E-02 0.174E-02 0.177E-01
   0.155E+03 -.256E+03 -.217E+03   -.169E+03 0.275E+03 0.235E+03   0.144E+02 -.178E+02 -.149E+02   0.226E-01 0.466E-02 -.216E-01
   -.152E+03 -.234E+03 0.164E+03   0.161E+03 0.257E+03 -.171E+03   -.102E+02 -.202E+02 0.751E+01   -.250E-01 -.218E-01 0.161E-01
   0.170E+03 0.176E+03 0.266E+03   -.183E+03 -.186E+03 -.293E+03   0.134E+02 0.110E+02 0.225E+02   0.345E-01 -.273E-02 -.362E-01
   -.217E+03 0.232E+03 -.832E+02   0.235E+03 -.256E+03 0.891E+02   -.158E+02 0.183E+02 -.681E+01   0.400E-01 -.191E-01 -.871E-02
   0.292E+03 0.196E+03 -.164E+03   -.318E+03 -.209E+03 0.173E+03   0.205E+02 0.146E+02 -.101E+02   0.303E-01 -.125E-02 0.981E-02
   0.169E+03 -.968E+02 0.209E+03   -.183E+03 0.991E+02 -.225E+03   0.161E+02 -.231E+01 0.166E+02   0.704E-02 0.236E-01 0.205E-01
 -----------------------------------------------------------------------------------------------
   -.265E+02 0.260E+02 -.419E+01   -.227E-12 0.156E-12 0.966E-12   0.265E+02 -.260E+02 0.418E+01   0.217E-01 0.562E-01 0.915E-02
 
 
 POSITION                                       TOTAL-FORCE (eV/Angst)
 -----------------------------------------------------------------------------------
      0.80313      5.19287      0.84713         2.015982     -4.020622     -0.736855
      3.04879      6.93405      1.03831        -4.200245      1.001219     -7.933297
      2.71931      5.20145      2.99835         6.088199     -3.748135     -0.256484
      0.82671      7.18589      2.99433         0.506835     -3.715843     -4.354103
      0.87813      0.87646      5.17126        -0.919754     -0.056882    -13.781800
      3.09227      2.93536      5.04444        -0.891890     -8.721142     -3.695505
      2.66562      1.13340      6.94829        13.074167     -2.521759      3.080817
      0.92261      2.91476      7.10883        -0.155000      3.707367     -3.993254
      4.52818      5.20621      5.17751         6.703820      0.569703     -0.397759
      6.84944      7.09691      4.70861        -0.233889     -1.313030      7.861557
      6.78413      4.76633      7.07073         1.958624     10.901024     -5.996091
      4.80696      6.84577      6.82124         4.694952      2.326493      1.213227
      5.13070      0.70456      0.88753        -3.866470      7.273594      0.390355
      7.07652      3.13581      0.91221        -2.332584     -2.257529      1.008168
      6.94477      1.20184      2.91853         1.363261     -3.740731      2.072800
      5.11655      3.26304      2.92498        -4.460012     -3.413638      0.992704
      6.77825      0.81649      1.18820         3.212289      1.244245     -1.225684
      3.00851      6.95372      2.59637        -1.365962      0.496745      7.857117
      3.27734      1.13604      0.92836        -0.592427     -1.541321     -1.059175
      0.73111      0.70539      3.08786        -0.586295      3.804092      0.479788
      2.85376      2.90460      3.02954         1.917136      1.649986      1.485401
      0.72162      2.93247      0.68726         0.090554      1.155397      1.340095
      5.21350      0.89743      2.86986        -0.655618      1.041927     -0.436788
      1.03809      6.86714      1.03659         0.730661      2.119267      0.584512
      6.81029      5.04404      5.03755        -1.382255      1.291341      0.909002
      2.95030      3.01393      6.74709        -0.818360     -0.677426      3.117688
      3.14258      4.46243      4.84835        -4.370060      8.463641     -1.722234
      0.86997      4.83157      6.92767        -1.515579     -1.163644      2.271906
      3.17733      6.98724      6.88871        -4.006404      0.531202      1.685282
      1.01501      7.19385      4.62659        -0.817284     -0.424612      4.154182
      5.03116      4.91697      7.09201        -1.633797      1.321148     -0.862722
      1.23720      3.01574      4.91997        -0.620927     -1.967755      1.951369
      3.05556      1.06329      5.12629        -1.659572      0.320305      0.311774
      6.90186      6.90455      6.77931        -2.124211     -1.396526     -1.038578
      7.17990      0.84110      4.99065         0.067864     -0.528308     -1.300255
      4.64221      0.78110      7.16755         0.320542     -0.664538      0.297008
      6.91775      3.23427      7.21520         1.580885     -8.897079      0.586251
      4.96164      3.02961      4.93743        -0.207888      0.383723     -1.135582
      1.16808      1.18381      6.61525        -7.075191      0.744253      9.917450
      4.98696      7.28937      5.02762         0.792435     -1.614824     -0.014900
      2.77955      4.95429      1.19554        -0.542349      1.163038     -0.596919
      6.78040      2.93101      2.94247         2.837877      1.113423     -1.355813
      7.17574      4.91150      0.59725        -0.136529      1.126248      3.315605
      4.90549      4.90854      3.21302        -1.446471      2.332143      0.608713
      7.14903      6.97112      3.12546         0.621612      0.878682     -4.202052
      4.64560      7.32822      0.94068         3.158990     -5.794209     -0.923808
      1.12930      5.09973      2.78344        -5.387467      1.250785     -0.388731
      4.94905      2.93634      1.16261         2.267805     -0.031438     -0.084381
 -----------------------------------------------------------------------------------
    total drift:                                0.003284      0.004882     -0.001970


--------------------------------------------------------------------------------------------------------



  FREE ENERGIE OF THE ION-ELECTRON SYSTEM (eV)
  ---------------------------------------------------
  free  energy   TOTEN  =      -267.4146844925 eV

  energy  without entropy=     -267.3868994748  energy(sigma->0) =     -267.40079198
 


--------------------------------------------------------------------------------------------------------


    POTLOK:  cpu time    0.1193: real time    0.1196


--------------------------------------------------------------------------------------------------------


     LOOP+:  cpu time 4996.4725: real time 5008.6588
    4ORBIT:  cpu time    0.0000: real time    0.0000

volume of typ            1:    18.9 %

volume of typ            2:     9.7 %
 
total charge     
 
# of ion       s       p       d       tot
------------------------------------------
    1        0.282   0.336   7.834   8.452
    2        0.334   0.427   7.910   8.671
    3        0.304   0.379   7.886   8.569
    4        0.326   0.428   7.876   8.630
    5        0.325   0.425   7.897   8.646
    6        0.364   0.559   7.862   8.785
    7        0.309   0.412   7.908   8.629
    8        0.272   0.331   7.857   8.460
    9        0.278   0.328   7.872   8.478
   10        0.295   0.364   7.816   8.475
   11        0.349   0.481   7.871   8.701
   12        0.292   0.366   7.840   8.498
   13        0.340   0.463   7.841   8.644
   14        0.268   0.316   7.862   8.446
   15        0.299   0.374   7.848   8.522
   16        0.320   0.397   7.821   8.538
   17        1.286   2.737   0.011   4.034
   18        1.292   2.764   0.015   4.071
   19        1.309   2.602   0.004   3.915
   20        1.286   2.730   0.009   4.025
   21        1.312   2.582   0.003   3.896
   22        1.286   2.719   0.009   4.014
   23        1.301   2.664   0.007   3.972
   24        1.281   2.734   0.009   4.023
   25        1.302   2.610   0.003   3.915
   26        1.295   2.706   0.009   4.009
   27        1.281   2.855   0.022   4.158
   28        1.302   2.622   0.004   3.928
   29        1.293   2.694   0.009   3.996
   30        1.292   2.720   0.010   4.023
   31        1.291   2.693   0.008   3.993
   32        1.305   2.629   0.005   3.938
   33        1.298   2.670   0.006   3.974
   34        1.293   2.636   0.003   3.932
   35        1.289   2.678   0.006   3.973
   36        1.296   2.651   0.005   3.952
   37        1.294   2.760   0.016   4.070
   38        1.301   2.643   0.005   3.950
   39        1.276   2.922   0.031   4.230
   40        1.302   2.644   0.007   3.953
   41        1.300   2.661   0.007   3.967
   42        1.286   2.742   0.012   4.040
   43        1.278   2.772   0.012   4.063
   44        1.293   2.695   0.008   3.996
   45        1.293   2.730   0.012   4.035
   46        1.285   2.802   0.017   4.104
   47        1.292   2.733   0.012   4.036
   48        1.298   2.650   0.005   3.953
--------------------------------------------------
tot          46.35   92.83  126.10  265.28
 
magnetization (x)
 
# of ion       s       p       d       tot
------------------------------------------
    1        0.000   0.000   0.001   0.001
    2        0.001  -0.000   0.200   0.200
    3       -0.001  -0.002   0.004   0.002
    4        0.000   0.000  -0.007  -0.007
    5       -0.000   0.001  -0.008  -0.008
    6       -0.001  -0.001   0.089   0.088
    7       -0.002  -0.007  -0.147  -0.155
    8        0.002   0.001   0.079   0.082
    9        0.000  -0.001   1.006   1.006
   10       -0.003  -0.004  -0.072  -0.079
   11       -0.002  -0.004   0.042   0.036
   12       -0.003   0.001   0.602   0.600
   13       -0.001  -0.001  -0.000  -0.002
   14        0.000   0.001  -0.024  -0.023
   15        0.001   0.001  -0.018  -0.017
   16       -0.001  -0.002  -0.033  -0.036
   17       -0.001  -0.028   0.000  -0.028
   18       -0.000  -0.005   0.000  -0.005
   19        0.004   0.212  -0.000   0.216
   20        0.000   0.006   0.000   0.006
   21        0.002   0.093  -0.000   0.095
   22        0.000   0.017   0.000   0.018
   23       -0.001  -0.064   0.000  -0.065
   24        0.000   0.004   0.000   0.004
   25        0.006   0.315  -0.000   0.321
   26       -0.002  -0.084   0.000  -0.085
   27        0.007   0.208   0.000   0.215
   28       -0.000  -0.015   0.000  -0.015
   29        0.003   0.186  -0.000   0.189
   30       -0.001  -0.029  -0.000  -0.030
   31        0.005   0.196  -0.000   0.201
   32       -0.000  -0.033   0.000  -0.033
   33       -0.000  -0.031   0.000  -0.031
   34        0.001   0.056  -0.000   0.057
   35       -0.001  -0.037  -0.000  -0.038
   36        0.004   0.152  -0.000   0.156
   37        0.001   0.030  -0.000   0.030
   38        0.007   0.333  -0.000   0.340
   39       -0.000  -0.018  -0.000  -0.018
   40        0.006   0.280  -0.000   0.287
   41        0.001   0.012   0.000   0.012
   42       -0.000  -0.016  -0.000  -0.016
   43       -0.001  -0.019   0.000  -0.019
   44        0.003   0.073  -0.000   0.076
   45       -0.001  -0.034  -0.000  -0.035
   46        0.004   0.096   0.000   0.099
   47        0.000  -0.001   0.000  -0.001
   48       -0.001  -0.058   0.000  -0.059
--------------------------------------------------
tot           0.04    1.78    1.71    3.53
 

 total amount of memory used by VASP MPI-rank0   332621. kBytes
=======================================================================

   base      :      30000. kBytes
   nonlr-proj:      22471. kBytes
   fftplans  :       4751. kBytes
   grid      :      26734. kBytes
   one-center:       1492. kBytes
   wavefun   :     247173. kBytes
 
  
  
 General timing and accounting informations for this job:
 ========================================================
  
                  Total CPU time used (sec):     5044.687
                            User time (sec):     5036.274
                          System time (sec):        8.412
                         Elapsed time (sec):     5060.693
  
                   Maximum memory used (kb):      410768.
                   Average memory used (kb):           0.
  
                          Minor page faults:       105911
                          Major page faults:           17
                 Voluntary context switches:         1180
