 vasp.5.4.4.18Apr17-6-g9f103f2a35 (build May 12 2020 04:58:55) complex          
  
 MD_VERSION_INFO: Compiled 2020-05-12T11:58:55-UTC in devlin.sd.materialsdesign.
 com:/home/medea2/data/build/wwolf/vasp-gpu5.4.4/13047/x86_64/src/src/build/std 
 from svn 13047
 
 This VASP executable licensed from Materials Design, Inc.
 
 executed on                        Lin64 date 2023.03.24  20:22:03
 running on   16 total cores
 distrk:  each k-point on   16 cores,    1 groups
 distr:  one band on NCORES_PER_BAND=   1 cores,   16 groups


--------------------------------------------------------------------------------------------------------


 INCAR:
 POTCAR:    PAW_PBE Ni 02Aug2007                  
 POTCAR:    PAW_PBE O 08Apr2002                   

 ----------------------------------------------------------------------------- 
|                                                                             |
|           W    W    AA    RRRRR   N    N  II  N    N   GGGG   !!!           |
|           W    W   A  A   R    R  NN   N  II  NN   N  G    G  !!!           |
|           W    W  A    A  R    R  N N  N  II  N N  N  G       !!!           |
|           W WW W  AAAAAA  RRRRR   N  N N  II  N  N N  G  GGG   !            |
|           WW  WW  A    A  R   R   N   NN  II  N   NN  G    G                |
|           W    W  A    A  R    R  N    N  II  N    N   GGGG   !!!           |
|                                                                             |
|      For optimal performance we recommend to set                            |
|        NCORE= 4 - approx SQRT( number of cores)                             |
|      NCORE specifies how many cores store one orbital (NPAR=cpu/NCORE).     |
|      This setting can  greatly improve the performance of VASP for DFT.     |
|      The default,   NCORE=1            might be grossly inefficient         |
|      on modern multi-core architectures or massively parallel machines.     |
|      Do your own testing !!!!                                               |
|      Unfortunately you need to use the default for GW and RPA calculations. |
|      (for HF NCORE is supported but not extensively tested yet)             |
|                                                                             |
 ----------------------------------------------------------------------------- 

 POTCAR:    PAW_PBE Ni 02Aug2007                  
  local pseudopotential read in
  partial core-charges read in
  partial kinetic energy density read in
  atomic valenz-charges read in
  non local Contribution for L=           2  read in
    real space projection operators read in
  non local Contribution for L=           2  read in
    real space projection operators read in
  non local Contribution for L=           0  read in
    real space projection operators read in
  non local Contribution for L=           0  read in
    real space projection operators read in
  non local Contribution for L=           1  read in
    real space projection operators read in
  non local Contribution for L=           1  read in
    real space projection operators read in
    PAW grid and wavefunctions read in
 
   number of l-projection  operators is LMAX  =           6
   number of lm-projection operators is LMMAX =          18
 
 POTCAR:    PAW_PBE O 08Apr2002                   
  local pseudopotential read in
  partial core-charges read in
  partial kinetic energy density read in
  kinetic energy density of atom read in
  atomic valenz-charges read in
  non local Contribution for L=           0  read in
    real space projection operators read in
  non local Contribution for L=           0  read in
    real space projection operators read in
  non local Contribution for L=           1  read in
    real space projection operators read in
  non local Contribution for L=           1  read in
    real space projection operators read in
    PAW grid and wavefunctions read in
 
   number of l-projection  operators is LMAX  =           4
   number of lm-projection operators is LMMAX =           8
 
 Optimization of the real space projectors (new method)

 maximal supplied QI-value         = 16.25
 optimisation between [QCUT,QGAM] = [ 11.38, 22.75] = [ 36.24,144.96] Ry 
 Optimized for a Real-space Cutoff    1.47 Angstroem

   l    n(q)    QCUT    max X(q) W(low)/X(q) W(high)/X(q)  e(spline) 
   2      9    11.376    60.317    0.17E-03    0.16E-04    0.16E-06
   2      9    11.376    55.921    0.17E-03    0.16E-04    0.17E-06
   0     10    11.376    51.690    0.45E-04    0.60E-04    0.21E-06
   0     10    11.376    30.015    0.37E-04    0.55E-04    0.19E-06
   1     10    11.376    18.849    0.83E-04    0.11E-03    0.92E-07
   1     10    11.376    14.624    0.69E-04    0.92E-04    0.82E-07
 Optimization of the real space projectors (new method)

 maximal supplied QI-value         = 24.76
 optimisation between [QCUT,QGAM] = [ 11.39, 22.77] = [ 36.31,145.25] Ry 
 Optimized for a Real-space Cutoff    1.10 Angstroem

   l    n(q)    QCUT    max X(q) W(low)/X(q) W(high)/X(q)  e(spline) 
   0      7    11.387    20.381    0.22E-03    0.48E-03    0.18E-06
   0      7    11.387    15.268    0.22E-03    0.52E-03    0.19E-06
   1      7    11.387     5.964    0.22E-03    0.73E-03    0.24E-06
   1      7    11.387     5.382    0.19E-03    0.60E-03    0.21E-06

 ----------------------------------------------------------------------------- 
|                                                                             |
|  ADVICE TO THIS USER RUNNING 'VASP/VAMP'   (HEAR YOUR MASTER'S VOICE ...):  |
|                                                                             |
|      You enforced a specific xc-type in the INCAR file,                     |
|      a different type was found on the POTCAR file                          |
|          I HOPE YOU KNOW, WHAT YOU ARE  DOING                               |
|                                                                             |
 ----------------------------------------------------------------------------- 

  PAW_PBE Ni 02Aug2007                  :
 energy of atom  1       EATOM=-1077.6739
 kinetic energy error for atom=    0.0030 (will be added to EATOM!!)
  PAW_PBE O 08Apr2002                   :
 energy of atom  2       EATOM= -432.3788
 kinetic energy error for atom=    0.0224 (will be added to EATOM!!)
 
 
 POSCAR: NiO2_Fd-3m_scale_1_000_disp_0_20_round_1
  positions in direct lattice
  No initial velocities read in
 exchange correlation table for  LEXCH =       14
   RHO(1)=    0.500       N(1)  =     2000
   RHO(2)=  100.500       N(2)  =     4000
 


--------------------------------------------------------------------------------------------------------


 ion  position               nearest neighbor table
   1  0.131  0.616  0.110-  41 1.48  22 1.56  24 1.79  28 2.00  47 2.01  43 2.05   8 2.29  14 2.61
                            11 2.68   2 2.68   4 2.79   3 3.05
   2  0.365  0.860  0.119-  41 1.60  29 1.64  46 1.85  24 1.93  18 1.98  19 2.23   1 2.68   3 2.74
                            12 2.75   7 2.78   4 3.04
   3  0.401  0.640  0.381-  18 1.74  44 1.82  27 2.00  21 2.04  47 2.16  41 2.17   6 2.54  16 2.64
                             2 2.74   9 2.91   4 2.93   1 3.05
   4  0.088  0.836  0.382-  47 1.50  30 1.64  45 1.69  20 2.15  18 2.16  24 2.19  10 2.67  15 2.79
                             1 2.79   5 2.88   3 2.93   2 3.04
   5  0.125  0.099  0.628-  20 1.63  33 1.75  30 1.85  35 2.10  32 2.16  39 2.27  15 2.71  10 2.80
                             4 2.88   7 2.95   6 3.06
   6  0.345  0.414  0.601-  27 1.29  32 1.63  21 1.76  26 2.12  38 2.22  33 2.25   3 2.54  16 2.71
                             8 2.84   9 2.86   5 3.06
   7  0.388  0.121  0.888-  36 1.76  19 1.76  26 1.79  29 1.81  33 1.82  39 1.96  13 2.59  12 2.74
                             2 2.78   5 2.95   8 2.96
   8  0.159  0.414  0.907-  26 1.76  22 1.83  28 1.87  32 2.08   1 2.29  37 2.46  39 2.52  14 2.74
                            11 2.81   6 2.84   7 2.96
   9  0.648  0.604  0.650-  25 1.63  44 1.84  31 1.85  40 1.91  38 2.05  27 2.24  12 2.72  10 2.73
                            11 2.76  16 2.77   6 2.86   3 2.91
  10  0.849  0.880  0.615-  40 1.46  35 1.60  45 1.66  25 1.66  30 1.81  34 2.13  11 2.55   4 2.67
                            15 2.68   9 2.73   5 2.80  12 2.81
  11  0.925  0.673  0.849-  34 1.43  28 1.59  25 1.75  31 2.34  43 2.45  10 2.55   1 2.68   9 2.76
                             8 2.81  12 2.89  14 3.06
  12  0.613  0.859  0.877-  29 1.70  31 1.71  34 1.72  40 1.91  46 2.04  36 2.14   9 2.72   7 2.74
                             2 2.75  10 2.81  13 2.87  11 2.89
  13  0.639  0.146  0.095-  17 1.79  48 1.93  36 2.02  23 2.12  46 2.25  19 2.34   7 2.59  14 2.80
                            12 2.87  16 2.98  15 3.04
  14  0.884  0.399  0.116-  43 1.75  42 1.76  22 1.92  17 1.93  37 1.98  48 2.09   1 2.61   8 2.74
                            13 2.80  15 3.06  11 3.06  16 3.08
  15  0.887  0.124  0.385-  20 1.58  35 1.79  23 1.82  45 1.97  42 1.98  17 2.08  10 2.68   5 2.71
                             4 2.79  16 3.01  13 3.04  14 3.06
  16  0.607  0.380  0.387-  21 1.77  42 1.83  44 1.87  38 1.97  48 1.98  23 2.00   3 2.64   6 2.71
                             9 2.77  13 2.98  15 3.01  14 3.08
  17  0.862  0.157  0.127-  13 1.79  14 1.93  15 2.08
  18  0.359  0.854  0.369-   3 1.74   2 1.98   4 2.16
  19  0.345  0.140  0.105-   7 1.76   2 2.23  13 2.34
  20  0.080  0.102  0.428-  15 1.58   5 1.63   4 2.15
  21  0.384  0.383  0.386-   6 1.76  16 1.77   3 2.04
  22  0.125  0.422  0.135-   1 1.56   8 1.83  14 1.92
  23  0.659  0.134  0.361-  15 1.82  16 2.00  13 2.12
  24  0.122  0.842  0.108-   1 1.79   2 1.93   4 2.19
  25  0.842  0.673  0.645-   9 1.63  10 1.66  11 1.75  40 1.91
  26  0.362  0.344  0.858-   8 1.76   7 1.79   6 2.12
  27  0.368  0.573  0.622-   6 1.29   3 2.00   9 2.24
  28  0.122  0.642  0.860-  11 1.59   8 1.87   1 2.00
  29  0.407  0.897  0.921-   2 1.64  12 1.70   7 1.81
  30  0.074  0.876  0.583-   4 1.64  10 1.81   5 1.85
  31  0.634  0.644  0.880-  12 1.71   9 1.85  11 2.34
  32  0.150  0.369  0.649-   6 1.63   8 2.08   5 2.16
  33  0.338  0.138  0.666-   5 1.75   7 1.82   6 2.25
  34  0.826  0.821  0.875-  11 1.43  12 1.72  10 2.13
  35  0.863  0.080  0.605-  10 1.60  15 1.79   5 2.10
  36  0.605  0.126  0.843-   7 1.76  13 2.02  12 2.14
  37  0.857  0.356  0.873-  14 1.98   8 2.46
  38  0.615  0.348  0.632-  16 1.97   9 2.05   6 2.22
  39  0.144  0.097  0.914-   7 1.96   5 2.27   8 2.52
  40  0.671  0.843  0.644-  10 1.46   9 1.91  12 1.91  25 1.91
  41  0.309  0.667  0.126-   1 1.48   2 1.60   3 2.17
  42  0.829  0.359  0.327-  14 1.76  16 1.83  15 1.98
  43  0.876  0.616  0.149-  14 1.75   1 2.05  11 2.45
  44  0.625  0.612  0.420-   3 1.82   9 1.84  16 1.87
  45  0.881  0.877  0.409-  10 1.66   4 1.69  15 1.97
  46  0.598  0.869  0.133-   2 1.85  12 2.04  13 2.25
  47  0.130  0.653  0.362-   4 1.50   1 2.01   3 2.16
  48  0.623  0.385  0.138-  13 1.93  16 1.98  14 2.09
 
  LATTYP: Found a simple cubic cell.
 ALAT       =     7.9418900000
  
  Lattice vectors:
  
 A1 = (   7.9418900000,   0.0000000000,   0.0000000000)
 A2 = (   0.0000000000,   7.9418900000,   0.0000000000)
 A3 = (   0.0000000000,   0.0000000000,   7.9418900000)


Analysis of symmetry for initial positions (statically):
=====================================================================
 Subroutine PRICEL returns:
 Original cell was already a primitive cell.
 

 Routine SETGRP: Setting up the symmetry group for a 
 simple cubic supercell.


 Subroutine GETGRP returns: Found  1 space group operations
 (whereof  1 operations were pure point group operations)
 out of a pool of 48 trial point group operations.


The static configuration has the point symmetry C_1 .


Analysis of symmetry for dynamics (positions and initial velocities):
=====================================================================
 Subroutine PRICEL returns:
 Original cell was already a primitive cell.
 

 Routine SETGRP: Setting up the symmetry group for a 
 simple cubic supercell.


 Subroutine GETGRP returns: Found  1 space group operations
 (whereof  1 operations were pure point group operations)
 out of a pool of 48 trial point group operations.


The dynamic configuration has the point symmetry C_1 .


Analysis of structural, dynamic, and magnetic symmetry:
=====================================================================
 Subroutine PRICEL returns:
 Original cell was already a primitive cell.
 

 Routine SETGRP: Setting up the symmetry group for a 
 simple cubic supercell.


 Subroutine GETGRP returns: Found  1 space group operations
 (whereof  1 operations were pure point group operations)
 out of a pool of 48 trial point group operations.


The magnetic configuration has the point symmetry C_1 .


 Subroutine INISYM returns: Found  1 space group operations
 (whereof  1 operations are pure point group operations),
 and found     1 'primitive' translations

 
 
 KPOINTS: Automatic mesh                          

Automatic generation of k-mesh.
Space group operators:
 irot       det(A)        alpha          n_x          n_y          n_z        tau_x        tau_y        tau_z
    1     1.000000     0.000001     1.000000     0.000000     0.000000     0.000000     0.000000     0.000000
 
 Subroutine IBZKPT returns following result:
 ===========================================
 
 Found     36 irreducible k-points:
 
 Following reciprocal coordinates:
            Coordinates               Weight
  0.000000  0.000000  0.000000      1.000000
  0.250000  0.000000  0.000000      2.000000
  0.500000  0.000000  0.000000      1.000000
  0.000000  0.250000  0.000000      2.000000
  0.250000  0.250000  0.000000      2.000000
  0.500000  0.250000  0.000000      2.000000
 -0.250000  0.250000  0.000000      2.000000
  0.000000  0.500000  0.000000      1.000000
  0.250000  0.500000  0.000000      2.000000
  0.500000  0.500000  0.000000      1.000000
  0.000000  0.000000  0.250000      2.000000
  0.250000  0.000000  0.250000      2.000000
  0.500000  0.000000  0.250000      2.000000
 -0.250000  0.000000  0.250000      2.000000
  0.000000  0.250000  0.250000      2.000000
  0.250000  0.250000  0.250000      2.000000
  0.500000  0.250000  0.250000      2.000000
 -0.250000  0.250000  0.250000      2.000000
  0.000000  0.500000  0.250000      2.000000
  0.250000  0.500000  0.250000      2.000000
  0.500000  0.500000  0.250000      2.000000
 -0.250000  0.500000  0.250000      2.000000
  0.000000 -0.250000  0.250000      2.000000
  0.250000 -0.250000  0.250000      2.000000
  0.500000 -0.250000  0.250000      2.000000
 -0.250000 -0.250000  0.250000      2.000000
  0.000000  0.000000  0.500000      1.000000
  0.250000  0.000000  0.500000      2.000000
  0.500000  0.000000  0.500000      1.000000
  0.000000  0.250000  0.500000      2.000000
  0.250000  0.250000  0.500000      2.000000
  0.500000  0.250000  0.500000      2.000000
 -0.250000  0.250000  0.500000      2.000000
  0.000000  0.500000  0.500000      1.000000
  0.250000  0.500000  0.500000      2.000000
  0.500000  0.500000  0.500000      1.000000
 
 Following cartesian coordinates:
            Coordinates               Weight
  0.000000  0.000000  0.000000      1.000000
  0.031479  0.000000  0.000000      2.000000
  0.062957  0.000000  0.000000      1.000000
  0.000000  0.031479  0.000000      2.000000
  0.031479  0.031479  0.000000      2.000000
  0.062957  0.031479  0.000000      2.000000
 -0.031479  0.031479  0.000000      2.000000
  0.000000  0.062957  0.000000      1.000000
  0.031479  0.062957  0.000000      2.000000
  0.062957  0.062957  0.000000      1.000000
  0.000000  0.000000  0.031479      2.000000
  0.031479  0.000000  0.031479      2.000000
  0.062957  0.000000  0.031479      2.000000
 -0.031479  0.000000  0.031479      2.000000
  0.000000  0.031479  0.031479      2.000000
  0.031479  0.031479  0.031479      2.000000
  0.062957  0.031479  0.031479      2.000000
 -0.031479  0.031479  0.031479      2.000000
  0.000000  0.062957  0.031479      2.000000
  0.031479  0.062957  0.031479      2.000000
  0.062957  0.062957  0.031479      2.000000
 -0.031479  0.062957  0.031479      2.000000
  0.000000 -0.031479  0.031479      2.000000
  0.031479 -0.031479  0.031479      2.000000
  0.062957 -0.031479  0.031479      2.000000
 -0.031479 -0.031479  0.031479      2.000000
  0.000000  0.000000  0.062957      1.000000
  0.031479  0.000000  0.062957      2.000000
  0.062957  0.000000  0.062957      1.000000
  0.000000  0.031479  0.062957      2.000000
  0.031479  0.031479  0.062957      2.000000
  0.062957  0.031479  0.062957      2.000000
 -0.031479  0.031479  0.062957      2.000000
  0.000000  0.062957  0.062957      1.000000
  0.031479  0.062957  0.062957      2.000000
  0.062957  0.062957  0.062957      1.000000
 


--------------------------------------------------------------------------------------------------------




 Dimension of arrays:
   k-points           NKPTS =     36   k-points in BZ     NKDIM =     36   number of bands    NBANDS=    240
   number of dos      NEDOS =    301   number of ions     NIONS =     48
   non local maximal  LDIM  =      6   non local SUM 2l+1 LMDIM =     18
   total plane-waves  NPLWV = 216000
   max r-space proj   IRMAX =   5839   max aug-charges    IRDMAX=  14175
   dimension x,y,z NGX =    60 NGY =   60 NGZ =   60
   dimension x,y,z NGXF=   120 NGYF=  120 NGZF=  120
   support grid    NGXF=   120 NGYF=  120 NGZF=  120
   ions per type =              16  32
   NGX,Y,Z   is equivalent  to a cutoff of  12.56, 12.56, 12.56 a.u.
   NGXF,Y,Z  is equivalent  to a cutoff of  25.12, 25.12, 25.12 a.u.

 SYSTEM =  unknown system                          
 POSCAR =  NiO2_Fd-3m_scale_1_000_disp_0_20_round_1

 Startparameter for this run:
   NWRITE =      1    write-flag & timer
   PREC   = accura    normal or accurate (medium, high low for compatibility)
   ISTART =      0    job   : 0-new  1-cont  2-samecut
   ICHARG =      2    charge: 1-file 2-atom 10-const
   ISPIN  =      2    spin polarized calculation?
   LNONCOLLINEAR =      F non collinear calculations
   LSORBIT =      F    spin-orbit coupling
   INIWAV =      1    electr: 0-lowe 1-rand  2-diag
   LASPH  =      F    aspherical Exc in radial PAW
   METAGGA=      F    non-selfconsistent MetaGGA calc.

 Electronic Relaxation 1
   ENCUT  =  500.0 eV  36.75 Ry    6.06 a.u.  14.48 14.48 14.48*2*pi/ulx,y,z
   ENINI  =  500.0     initial cutoff
   ENAUG  =  605.4 eV  augmentation charge cutoff
   NELM   =     80;   NELMIN=  2; NELMDL= -5     # of ELM steps 
   EDIFF  = 0.1E-04   stopping-criterion for ELM
   LREAL  =      T    real-space projection
   NLSPLINE    = F    spline interpolate recip. space projectors
   LCOMPAT=      F    compatible to vasp.4.4
   GGA_COMPAT  = T    GGA compatible to vasp.4.4-vasp.4.6
   LMAXPAW     = -100 max onsite density
   LMAXMIX     =    2 max onsite mixed and CHGCAR
   VOSKOWN=      1    Vosko Wilk Nusair interpolation
   ROPT   =   -0.00025  -0.00025
 Ionic relaxation
   EDIFFG = 0.1E-03   stopping-criterion for IOM
   NSW    =      0    number of steps for IOM
   NBLOCK =      1;   KBLOCK =      1    inner block; outer block 
   IBRION =     -1    ionic relax: 0-MD 1-quasi-New 2-CG
   NFREE  =      0    steps in history (QN), initial steepest desc. (CG)
   ISIF   =      2    stress and relaxation
   IWAVPR =     10    prediction:  0-non 1-charg 2-wave 3-comb
   ISYM   =      2    0-nonsym 1-usesym 2-fastsym
   LCORR  =      T    Harris-Foulkes like correction to forces

   POTIM  = 0.5000    time-step for ionic-motion
   TEIN   =    0.0    initial temperature
   TEBEG  =    0.0;   TEEND  =   0.0 temperature during run
   SMASS  =  -3.00    Nose mass-parameter (am)
   estimated Nose-frequenzy (Omega)   =  0.10E-29 period in steps =****** mass=  -0.144E-26a.u.
   SCALEE = 1.0000    scale energy and forces
   NPACO  =    256;   APACO  = 16.0  distance and # of slots for P.C.
   PSTRESS=    0.0 pullay stress

  Mass of Ions in am
   POMASS =  58.69 16.00
  Ionic Valenz
   ZVAL   =  10.00  6.00
  Atomic Wigner-Seitz radii
   RWIGS  =   1.15  0.73
  virtual crystal weights 
   VCA    =   1.00  1.00
   NELECT =     352.0000    total number of electrons
   NUPDOWN=      -1.0000    fix difference up-down

 DOS related values:
   EMIN   =  10.00;   EMAX   =-10.00  energy-range for DOS
   EFERMI =   0.00
   ISMEAR =     0;   SIGMA  =   0.05  broadening in eV -4-tet -1-fermi 0-gaus

 Electronic relaxation 2 (details)
   IALGO  =     38    algorithm
   LDIAG  =      T    sub-space diagonalisation (order eigenvalues)
   LSUBROT=      F    optimize rotation matrix (better conditioning)
   TURBO    =      0    0=normal 1=particle mesh
   IRESTART =      0    0=no restart 2=restart with 2 vectors
   NREBOOT  =      0    no. of reboots
   NMIN     =      0    reboot dimension
   EREF     =   0.00    reference energy to select bands
   IMIX   =      4    mixing-type and parameters
     AMIX     =   0.40;   BMIX     =  1.00
     AMIX_MAG =   1.60;   BMIX_MAG =  1.00
     AMIN     =   0.10
     WC   =   100.;   INIMIX=   1;  MIXPRE=   1;  MAXMIX= -45

 Intra band minimization:
   WEIMIN = 0.0000     energy-eigenvalue tresh-hold
   EBREAK =  0.10E-07  absolut break condition
   DEPER  =   0.30     relativ break condition  

   TIME   =   0.40     timestep for ELM

  volume/ion in A,a.u.               =      10.44        70.43
  Fermi-wavevector in a.u.,A,eV,Ry     =   1.455454  2.750409 28.821856  2.118347
  Thomas-Fermi vector in A             =   2.572487
 
 Write flags
   LWAVE        =      F    write WAVECAR
   LDOWNSAMPLE  =      F    k-point downsampling of WAVECAR
   LCHARG       =      T    write CHGCAR
   LVTOT        =      F    write LOCPOT, total local potential
   LVHAR        =      F    write LOCPOT, Hartree potential only
   LELF         =      F    write electronic localiz. function (ELF)
   LORBIT       =      0    0 simple, 1 ext, 2 COOP (PROOUT), +10 PAW based schemes


 Dipole corrections
   LMONO  =      F    monopole corrections only (constant potential shift)
   LDIPOL =      F    correct potential (dipole corrections)
   IDIPOL =      0    1-x, 2-y, 3-z, 4-all directions 
   EPSILON=  1.0000000 bulk dielectric constant

 Exchange correlation treatment:
   GGA     =    PS    GGA type
   LEXCH   =    14    internal setting for exchange type
   VOSKOWN=      1    Vosko Wilk Nusair interpolation
   LHFCALC =     F    Hartree Fock is set to
   LHFONE  =     F    Hartree Fock one center treatment
   AEXX    =    0.0000 exact exchange contribution

 Linear response parameters
   LEPSILON=     F    determine dielectric tensor
   LRPA    =     F    only Hartree local field effects (RPA)
   LNABLA  =     F    use nabla operator in PAW spheres
   LVEL    =     F    velocity operator in full k-point grid
   LINTERFAST=   F  fast interpolation
   KINTER  =     0    interpolate to denser k-point grid
   CSHIFT  =0.1000    complex shift for real part using Kramers Kronig
   OMEGAMAX=  -1.0    maximum frequency
   DEG_THRESHOLD= 0.2000000E-02 threshold for treating states as degnerate
   RTIME   =   -0.100 relaxation time in fs
  (WPLASMAI=    0.000 imaginary part of plasma frequency in eV, 0.658/RTIME)
   DFIELD  = 0.0000000 0.0000000 0.0000000 field for delta impulse in time
 
 Orbital magnetization related:
   ORBITALMAG=     F  switch on orbital magnetization
   LCHIMAG   =     F  perturbation theory with respect to B field
   DQ        =  0.001000  dq finite difference perturbation B field
   LLRAUG    =     F  two centre corrections for induced B field



--------------------------------------------------------------------------------------------------------


 Static calculation
 charge density and potential will be updated during run
 spin polarized calculation
 Variant of blocked Davidson
 Davidson routine will perform the subspace rotation
 perform sub-space diagonalisation
    after iterative eigenvector-optimisation
 modified Broyden-mixing scheme, WC =      100.0
 initial mixing is a Kerker type mixing with AMIX =  0.4000 and BMIX =      1.0000
 Hartree-type preconditioning will be used
 using additional bands           64
 real space projection scheme for non local part
 use partial core corrections
 calculate Harris-corrections to forces 
   (improved forces if not selfconsistent)
 use gradient corrections 
 use of overlap-Matrix (Vanderbilt PP)
 Gauss-broadening in eV      SIGMA  =   0.05


--------------------------------------------------------------------------------------------------------


  energy-cutoff  :      500.00
  volume of cell :      500.92
      direct lattice vectors                 reciprocal lattice vectors
     7.941890000  0.000000000  0.000000000     0.125914612  0.000000000  0.000000000
     0.000000000  7.941890000  0.000000000     0.000000000  0.125914612  0.000000000
     0.000000000  0.000000000  7.941890000     0.000000000  0.000000000  0.125914612

  length of vectors
     7.941890000  7.941890000  7.941890000     0.125914612  0.125914612  0.125914612


 
 k-points in units of 2pi/SCALE and weight: Automatic mesh                          
   0.00000000  0.00000000  0.00000000       0.016
   0.03147865  0.00000000  0.00000000       0.031
   0.06295731  0.00000000  0.00000000       0.016
   0.00000000  0.03147865  0.00000000       0.031
   0.03147865  0.03147865  0.00000000       0.031
   0.06295731  0.03147865  0.00000000       0.031
  -0.03147865  0.03147865  0.00000000       0.031
   0.00000000  0.06295731  0.00000000       0.016
   0.03147865  0.06295731  0.00000000       0.031
   0.06295731  0.06295731  0.00000000       0.016
   0.00000000  0.00000000  0.03147865       0.031
   0.03147865  0.00000000  0.03147865       0.031
   0.06295731  0.00000000  0.03147865       0.031
  -0.03147865  0.00000000  0.03147865       0.031
   0.00000000  0.03147865  0.03147865       0.031
   0.03147865  0.03147865  0.03147865       0.031
   0.06295731  0.03147865  0.03147865       0.031
  -0.03147865  0.03147865  0.03147865       0.031
   0.00000000  0.06295731  0.03147865       0.031
   0.03147865  0.06295731  0.03147865       0.031
   0.06295731  0.06295731  0.03147865       0.031
  -0.03147865  0.06295731  0.03147865       0.031
   0.00000000 -0.03147865  0.03147865       0.031
   0.03147865 -0.03147865  0.03147865       0.031
   0.06295731 -0.03147865  0.03147865       0.031
  -0.03147865 -0.03147865  0.03147865       0.031
   0.00000000  0.00000000  0.06295731       0.016
   0.03147865  0.00000000  0.06295731       0.031
   0.06295731  0.00000000  0.06295731       0.016
   0.00000000  0.03147865  0.06295731       0.031
   0.03147865  0.03147865  0.06295731       0.031
   0.06295731  0.03147865  0.06295731       0.031
  -0.03147865  0.03147865  0.06295731       0.031
   0.00000000  0.06295731  0.06295731       0.016
   0.03147865  0.06295731  0.06295731       0.031
   0.06295731  0.06295731  0.06295731       0.016
 
 k-points in reciprocal lattice and weights: Automatic mesh                          
   0.00000000  0.00000000  0.00000000       0.016
   0.25000000  0.00000000  0.00000000       0.031
   0.50000000  0.00000000  0.00000000       0.016
   0.00000000  0.25000000  0.00000000       0.031
   0.25000000  0.25000000  0.00000000       0.031
   0.50000000  0.25000000  0.00000000       0.031
  -0.25000000  0.25000000  0.00000000       0.031
   0.00000000  0.50000000  0.00000000       0.016
   0.25000000  0.50000000  0.00000000       0.031
   0.50000000  0.50000000  0.00000000       0.016
   0.00000000  0.00000000  0.25000000       0.031
   0.25000000  0.00000000  0.25000000       0.031
   0.50000000  0.00000000  0.25000000       0.031
  -0.25000000  0.00000000  0.25000000       0.031
   0.00000000  0.25000000  0.25000000       0.031
   0.25000000  0.25000000  0.25000000       0.031
   0.50000000  0.25000000  0.25000000       0.031
  -0.25000000  0.25000000  0.25000000       0.031
   0.00000000  0.50000000  0.25000000       0.031
   0.25000000  0.50000000  0.25000000       0.031
   0.50000000  0.50000000  0.25000000       0.031
  -0.25000000  0.50000000  0.25000000       0.031
   0.00000000 -0.25000000  0.25000000       0.031
   0.25000000 -0.25000000  0.25000000       0.031
   0.50000000 -0.25000000  0.25000000       0.031
  -0.25000000 -0.25000000  0.25000000       0.031
   0.00000000  0.00000000  0.50000000       0.016
   0.25000000  0.00000000  0.50000000       0.031
   0.50000000  0.00000000  0.50000000       0.016
   0.00000000  0.25000000  0.50000000       0.031
   0.25000000  0.25000000  0.50000000       0.031
   0.50000000  0.25000000  0.50000000       0.031
  -0.25000000  0.25000000  0.50000000       0.031
   0.00000000  0.50000000  0.50000000       0.016
   0.25000000  0.50000000  0.50000000       0.031
   0.50000000  0.50000000  0.50000000       0.016
 
 position of ions in fractional coordinates (direct lattice) 
   0.13056551  0.61642610  0.11045060
   0.36482530  0.85980741  0.11885909
   0.40107298  0.63962507  0.38135652
   0.08816882  0.83600824  0.38168034
   0.12497743  0.09941434  0.62782023
   0.34498316  0.41417314  0.60149678
   0.38825967  0.12122345  0.88816527
   0.15879938  0.41424812  0.90662960
   0.64788129  0.60382365  0.65032357
   0.84921762  0.87957760  0.61450676
   0.92482211  0.67328686  0.84903623
   0.61282879  0.85875500  0.87651974
   0.63879849  0.14628331  0.09459965
   0.88443958  0.39873107  0.11615415
   0.88657747  0.12377821  0.38546305
   0.60732471  0.37967054  0.38679442
   0.86178531  0.15724451  0.12707968
   0.35946812  0.85393323  0.36854597
   0.34487160  0.13975600  0.10530690
   0.08005204  0.10213676  0.42821236
   0.38397257  0.38312394  0.38607231
   0.12491546  0.42216972  0.13466988
   0.65915483  0.13441286  0.36060715
   0.12220199  0.84170347  0.10767462
   0.84152239  0.67263842  0.64540627
   0.36249827  0.34363780  0.85773323
   0.36838554  0.57345990  0.62217871
   0.12232896  0.64186565  0.85967855
   0.40741991  0.89708523  0.92060079
   0.07444576  0.87585426  0.58336758
   0.63369740  0.64433901  0.87950492
   0.15033509  0.36909931  0.64936768
   0.33804099  0.13792968  0.66573725
   0.82579364  0.82107235  0.87511240
   0.86263206  0.07977775  0.60464724
   0.60484605  0.12555557  0.84288668
   0.85654475  0.35624725  0.87251772
   0.61520632  0.34778510  0.63227760
   0.14350643  0.09739511  0.91366073
   0.67122689  0.84293655  0.64364723
   0.30876215  0.66686424  0.12626895
   0.82926166  0.35932417  0.32678363
   0.87587755  0.61597212  0.14859008
   0.62526128  0.61185029  0.41960707
   0.88079271  0.87735312  0.40850829
   0.59762237  0.86895283  0.13255935
   0.13002991  0.65253729  0.36154281
   0.62290514  0.38468763  0.13786741
 
 position of ions in cartesian coordinates  (Angst):
   1.03693692  4.89558828  0.87718652
   2.89740240  6.82849587  0.94396582
   3.18527749  5.07983195  3.02869153
   0.70022707  6.63948548  3.03126328
   0.99255700  0.78953775  4.98607921
   2.73981831  3.28931752  4.77702126
   3.08351559  0.96274331  7.05371088
   1.26116721  3.28991300  7.20035255
   5.14540194  4.79550101  5.16479826
   6.74439292  6.98550855  4.88034509
   7.34483547  5.34717018  6.74295234
   4.86701884  6.82013775  6.96122336
   5.07326734  1.16176596  0.75130001
   7.02412186  3.16667830  0.92248348
   7.04110074  0.98303293  3.06130514
   4.82330604  3.01530166  3.07187874
   6.84420414  1.24881860  1.00925284
   2.85485627  6.78184378  2.92695155
   2.73893231  1.10992678  0.83633582
   0.63576450  0.81115891  3.40081546
   3.04946791  3.04272819  3.06614382
   0.99206484  3.35282548  1.06953337
   5.23493515  1.06749215  2.86390232
   0.97051476  6.68471637  0.85513999
   6.68327825  5.34202034  5.12574560
   2.87892139  2.72913361  6.81202296
   2.92567744  4.55435545  4.94127488
   0.97152314  5.09762639  6.82747248
   3.23568411  7.12455222  7.31131021
   0.59124004  6.95593819  4.63304115
   5.03275504  5.11726954  6.98493133
   1.19394475  2.93134612  5.15720668
   2.68468436  1.09542235  5.28721201
   6.55836225  6.52086629  6.95004642
   6.85092893  0.63358611  4.80204187
   4.80362080  0.99714853  6.69411330
   6.80258418  2.82927647  6.92943976
   4.88590092  2.76207101  5.02147915
   1.13971228  0.77350125  7.25619301
   5.33081013  6.69450936  5.11177550
   2.45215503  5.29616244  1.00281411
   6.58590488  2.85371303  2.59527964
   6.95612316  4.89198282  1.18008607
   4.96575631  4.85924770  3.33247319
   6.99515882  6.96784197  3.24432790
   4.74625112  6.90112779  1.05277178
   1.03268324  5.18237938  2.87133323
   4.94704410  3.05514684  1.09492780
 


--------------------------------------------------------------------------------------------------------


 k-point  1 :   0.0000 0.0000 0.0000  plane waves:   12797
 k-point  2 :   0.2500 0.0000 0.0000  plane waves:   12757
 k-point  3 :   0.5000 0.0000 0.0000  plane waves:   12732
 k-point  4 :   0.0000 0.2500 0.0000  plane waves:   12757
 k-point  5 :   0.2500 0.2500 0.0000  plane waves:   12754
 k-point  6 :   0.5000 0.2500 0.0000  plane waves:   12690
 k-point  7 :  -0.2500 0.2500 0.0000  plane waves:   12754
 k-point  8 :   0.0000 0.5000 0.0000  plane waves:   12732
 k-point  9 :   0.2500 0.5000 0.0000  plane waves:   12690
 k-point 10 :   0.5000 0.5000 0.0000  plane waves:   12656
 k-point 11 :   0.0000 0.0000 0.2500  plane waves:   12757
 k-point 12 :   0.2500 0.0000 0.2500  plane waves:   12754
 k-point 13 :   0.5000 0.0000 0.2500  plane waves:   12690
 k-point 14 :  -0.2500 0.0000 0.2500  plane waves:   12754
 k-point 15 :   0.0000 0.2500 0.2500  plane waves:   12754
 k-point 16 :   0.2500 0.2500 0.2500  plane waves:   12704
 k-point 17 :   0.5000 0.2500 0.2500  plane waves:   12702
 k-point 18 :  -0.2500 0.2500 0.2500  plane waves:   12704
 k-point 19 :   0.0000 0.5000 0.2500  plane waves:   12690
 k-point 20 :   0.2500 0.5000 0.2500  plane waves:   12702
 k-point 21 :   0.5000 0.5000 0.2500  plane waves:   12728
 k-point 22 :  -0.2500 0.5000 0.2500  plane waves:   12702
 k-point 23 :   0.0000-0.2500 0.2500  plane waves:   12754
 k-point 24 :   0.2500-0.2500 0.2500  plane waves:   12704
 k-point 25 :   0.5000-0.2500 0.2500  plane waves:   12702
 k-point 26 :  -0.2500-0.2500 0.2500  plane waves:   12704
 k-point 27 :   0.0000 0.0000 0.5000  plane waves:   12732
 k-point 28 :   0.2500 0.0000 0.5000  plane waves:   12690
 k-point 29 :   0.5000 0.0000 0.5000  plane waves:   12656
 k-point 30 :   0.0000 0.2500 0.5000  plane waves:   12690
 k-point 31 :   0.2500 0.2500 0.5000  plane waves:   12702
 k-point 32 :   0.5000 0.2500 0.5000  plane waves:   12728
 k-point 33 :  -0.2500 0.2500 0.5000  plane waves:   12702
 k-point 34 :   0.0000 0.5000 0.5000  plane waves:   12656
 k-point 35 :   0.2500 0.5000 0.5000  plane waves:   12728
 k-point 36 :   0.5000 0.5000 0.5000  plane waves:   12712

 maximum and minimum number of plane-waves per node :     12797    12656

 maximum number of plane-waves:     12797
 maximum index in each direction: 
   IXMAX=   14   IYMAX=   14   IZMAX=   14
   IXMIN=  -14   IYMIN=  -14   IZMIN=  -14

 The following grids will avoid any aliasing or wrap around errors in the Hartre
 e energy
  - symmetry arguments have not been applied
  - exchange correlation energies might require even more grid points
  - we recommend to set PREC=Normal or Accurate and rely on VASP defaults
 NGX is ok and might be reduce to    60
 NGY is ok and might be reduce to    60
 NGZ is ok and might be reduce to    60

 serial   3D FFT for wavefunctions
 parallel 3D FFT for charge:
    minimum data exchange during FFTs selected (reduces bandwidth)


 total amount of memory used by VASP MPI-rank0   317772. kBytes
=======================================================================

   base      :      30000. kBytes
   nonlr-proj:      24211. kBytes
   fftplans  :       4751. kBytes
   grid      :      26734. kBytes
   one-center:       1492. kBytes
   wavefun   :     230584. kBytes
 
     INWAV:  cpu time    0.0000: real time    0.0000
 Broyden mixing: mesh for mixing (old mesh)
   NGX = 29   NGY = 29   NGZ = 29
  (NGX  =120   NGY  =120   NGZ  =120)
  gives a total of  24389 points

 initial charge density was supplied:
 charge density of overlapping atoms calculated
 number of electron     352.0000000 magnetization      40.0000000
 keeping initial charge density in first step


--------------------------------------------------------------------------------------------------------


 Maximum index for non-local projection operator         5631
 Maximum index for augmentation-charges         1110 (set IRDMAX)


--------------------------------------------------------------------------------------------------------


 First call to EWALD:  gamma=   0.223
 Maximum number of real-space cells 3x 3x 3
 Maximum number of reciprocal cells 3x 3x 3

    FEWALD:  cpu time    0.0024: real time    0.0024


--------------------------------------- Iteration      1(   1)  ---------------------------------------


    POTLOK:  cpu time    0.1576: real time    0.1677
    SETDIJ:  cpu time    0.0199: real time    0.0227
     EDDAV:  cpu time   84.2297: real time   84.4293
    --------------------------------------------
      LOOP:  cpu time   84.4110: real time   84.6265

 eigenvalue-minimisations  : 34560
 total energy-change (2. order) : 0.4584225E+04  (-0.1537084E+05)
 number of electron     352.0000000 magnetization      40.0000000
 augmentation part      352.0000000 magnetization      40.0000000

 Free energy of the ion-electron system (eV)
  ---------------------------------------------------
  alpha Z        PSCENC =      1094.16350177
  Ewald energy   TEWEN  =    -19730.95045858
  -Hartree energ DENC   =    -12070.59022028
  -exchange      EXHF   =         0.00000000
  -V(xc)+E(xc)   XCENC  =      1425.93743546
  PAW double counting   =     26463.90193480   -27579.55909067
  entropy T*S    EENTRO =        -0.00768683
  eigenvalues    EBANDS =      3967.65713159
  atomic energy  EATOM  =     31013.67235384
  Solvation  Ediel_sol  =         0.00000000
  ---------------------------------------------------
  free energy    TOTEN  =      4584.22490110 eV

  energy without entropy =     4584.23258792  energy(sigma->0) =     4584.22874451


--------------------------------------------------------------------------------------------------------




--------------------------------------- Iteration      1(   2)  ---------------------------------------


     EDDAV:  cpu time   85.3889: real time   85.5942
    --------------------------------------------
      LOOP:  cpu time   85.3885: real time   85.5909

 eigenvalue-minimisations  : 35568
 total energy-change (2. order) :-0.3998473E+04  (-0.3578934E+04)
 number of electron     352.0000000 magnetization      40.0000000
 augmentation part      352.0000000 magnetization      40.0000000

 Free energy of the ion-electron system (eV)
  ---------------------------------------------------
  alpha Z        PSCENC =      1094.16350177
  Ewald energy   TEWEN  =    -19730.95045858
  -Hartree energ DENC   =    -12070.59022028
  -exchange      EXHF   =         0.00000000
  -V(xc)+E(xc)   XCENC  =      1425.93743546
  PAW double counting   =     26463.90193480   -27579.55909067
  entropy T*S    EENTRO =        -0.02433535
  eigenvalues    EBANDS =       -30.79927821
  atomic energy  EATOM  =     31013.67235384
  Solvation  Ediel_sol  =         0.00000000
  ---------------------------------------------------
  free energy    TOTEN  =       585.75184278 eV

  energy without entropy =      585.77617813  energy(sigma->0) =      585.76401046


--------------------------------------------------------------------------------------------------------




--------------------------------------- Iteration      1(   3)  ---------------------------------------


     EDDAV:  cpu time   89.3062: real time   89.5179
    --------------------------------------------
      LOOP:  cpu time   89.3064: real time   89.5181

 eigenvalue-minimisations  : 36640
 total energy-change (2. order) :-0.8872938E+03  (-0.7964925E+03)
 number of electron     352.0000000 magnetization      40.0000000
 augmentation part      352.0000000 magnetization      40.0000000

 Free energy of the ion-electron system (eV)
  ---------------------------------------------------
  alpha Z        PSCENC =      1094.16350177
  Ewald energy   TEWEN  =    -19730.95045858
  -Hartree energ DENC   =    -12070.59022028
  -exchange      EXHF   =         0.00000000
  -V(xc)+E(xc)   XCENC  =      1425.93743546
  PAW double counting   =     26463.90193480   -27579.55909067
  entropy T*S    EENTRO =        -0.06120588
  eigenvalues    EBANDS =      -918.05616317
  atomic energy  EATOM  =     31013.67235384
  Solvation  Ediel_sol  =         0.00000000
  ---------------------------------------------------
  free energy    TOTEN  =      -301.54191271 eV

  energy without entropy =     -301.48070683  energy(sigma->0) =     -301.51130977


--------------------------------------------------------------------------------------------------------




--------------------------------------- Iteration      1(   4)  ---------------------------------------


     EDDAV:  cpu time   92.9967: real time   93.2171
    --------------------------------------------
      LOOP:  cpu time   92.9967: real time   93.2172

 eigenvalue-minimisations  : 38832
 total energy-change (2. order) :-0.7965032E+02  (-0.7751269E+02)
 number of electron     352.0000000 magnetization      40.0000000
 augmentation part      352.0000000 magnetization      40.0000000

 Free energy of the ion-electron system (eV)
  ---------------------------------------------------
  alpha Z        PSCENC =      1094.16350177
  Ewald energy   TEWEN  =    -19730.95045858
  -Hartree energ DENC   =    -12070.59022028
  -exchange      EXHF   =         0.00000000
  -V(xc)+E(xc)   XCENC  =      1425.93743546
  PAW double counting   =     26463.90193480   -27579.55909067
  entropy T*S    EENTRO =        -0.06331453
  eigenvalues    EBANDS =      -997.70437934
  atomic energy  EATOM  =     31013.67235384
  Solvation  Ediel_sol  =         0.00000000
  ---------------------------------------------------
  free energy    TOTEN  =      -381.19223753 eV

  energy without entropy =     -381.12892300  energy(sigma->0) =     -381.16058026


--------------------------------------------------------------------------------------------------------




--------------------------------------- Iteration      1(   5)  ---------------------------------------


     EDDAV:  cpu time   90.8511: real time   91.0663
    CHARGE:  cpu time    3.0959: real time    3.1072
    MIXING:  cpu time    0.0036: real time    0.0083
    --------------------------------------------
      LOOP:  cpu time   93.9470: real time   94.1781

 eigenvalue-minimisations  : 38272
 total energy-change (2. order) :-0.1861708E+01  (-0.1854411E+01)
 number of electron     351.9999981 magnetization      38.8760726
 augmentation part      100.1607231 magnetization      29.1965940

 Broyden mixing:
  rms(total) = 0.15202E+02    rms(broyden)= 0.15200E+02
  rms(prec ) = 0.18440E+02
  weight for this iteration     100.00

 Free energy of the ion-electron system (eV)
  ---------------------------------------------------
  alpha Z        PSCENC =      1094.16350177
  Ewald energy   TEWEN  =    -19730.95045858
  -Hartree energ DENC   =    -12070.59022028
  -exchange      EXHF   =         0.00000000
  -V(xc)+E(xc)   XCENC  =      1425.93743546
  PAW double counting   =     26463.90193480   -27579.55909067
  entropy T*S    EENTRO =        -0.06329357
  eigenvalues    EBANDS =      -999.56610781
  atomic energy  EATOM  =     31013.67235384
  Solvation  Ediel_sol  =         0.00000000
  ---------------------------------------------------
  free energy    TOTEN  =      -383.05394504 eV

  energy without entropy =     -382.99065147  energy(sigma->0) =     -383.02229826


--------------------------------------------------------------------------------------------------------




--------------------------------------- Iteration      1(   6)  ---------------------------------------


    POTLOK:  cpu time    0.1165: real time    0.1168
    SETDIJ:  cpu time    0.0164: real time    0.0164
     EDDAV:  cpu time  118.5419: real time  118.8228
    CHARGE:  cpu time    3.6018: real time    3.6104
    MIXING:  cpu time    0.0051: real time    0.0288
    --------------------------------------------
      LOOP:  cpu time  122.2817: real time  122.5951

 eigenvalue-minimisations  : 54624
 total energy-change (2. order) :-0.1198146E+03  (-0.1003729E+03)
 number of electron     351.9999999 magnetization      32.4650071
 augmentation part      137.6717350 magnetization      29.2620410

 Broyden mixing:
  rms(total) = 0.24301E+02    rms(broyden)= 0.24299E+02
  rms(prec ) = 0.27713E+02
  weight for this iteration     100.00

 eigenvalues of (default mixing * dielectric matrix)
  average eigenvalue GAMMA=   0.2076
  0.2076

 Free energy of the ion-electron system (eV)
  ---------------------------------------------------
  alpha Z        PSCENC =      1094.16350177
  Ewald energy   TEWEN  =    -19730.95045858
  -Hartree energ DENC   =    -11463.15554807
  -exchange      EXHF   =         0.00000000
  -V(xc)+E(xc)   XCENC  =      1429.94314164
  PAW double counting   =     30301.95654764   -31232.45977599
  entropy T*S    EENTRO =        -0.04211770
  eigenvalues    EBANDS =     -1915.99620774
  atomic energy  EATOM  =     31013.67235384
  Solvation  Ediel_sol  =         0.00000000
  ---------------------------------------------------
  free energy    TOTEN  =      -502.86856320 eV

  energy without entropy =     -502.82644550  energy(sigma->0) =     -502.84750435


--------------------------------------------------------------------------------------------------------




--------------------------------------- Iteration      1(   7)  ---------------------------------------


    POTLOK:  cpu time    0.1365: real time    0.1368
    SETDIJ:  cpu time    0.0180: real time    0.0181
     EDDAV:  cpu time  106.5175: real time  106.7699
    CHARGE:  cpu time    3.4787: real time    3.4870
    MIXING:  cpu time    0.0045: real time    0.0179
    --------------------------------------------
      LOOP:  cpu time  110.1552: real time  110.4297

 eigenvalue-minimisations  : 46288
 total energy-change (2. order) : 0.2022310E+03  (-0.3218108E+02)
 number of electron     351.9999995 magnetization      25.3252443
 augmentation part      125.0998462 magnetization      20.6825845

 Broyden mixing:
  rms(total) = 0.93621E+01    rms(broyden)= 0.93607E+01
  rms(prec ) = 0.12334E+02
  weight for this iteration     100.00

 eigenvalues of (default mixing * dielectric matrix)
  average eigenvalue GAMMA=   0.5646
  0.5646  0.5646

 Free energy of the ion-electron system (eV)
  ---------------------------------------------------
  alpha Z        PSCENC =      1094.16350177
  Ewald energy   TEWEN  =    -19730.95045858
  -Hartree energ DENC   =    -11732.72131987
  -exchange      EXHF   =         0.00000000
  -V(xc)+E(xc)   XCENC  =      1422.96189554
  PAW double counting   =     31955.17684945   -33029.99022649
  entropy T*S    EENTRO =        -0.04756327
  eigenvalues    EBANDS =     -1292.90262336
  atomic energy  EATOM  =     31013.67235384
  Solvation  Ediel_sol  =         0.00000000
  ---------------------------------------------------
  free energy    TOTEN  =      -300.63759097 eV

  energy without entropy =     -300.59002771  energy(sigma->0) =     -300.61380934


--------------------------------------------------------------------------------------------------------




--------------------------------------- Iteration      1(   8)  ---------------------------------------


    POTLOK:  cpu time    0.1352: real time    0.1355
    SETDIJ:  cpu time    0.0180: real time    0.0180
     EDDAV:  cpu time  116.3059: real time  116.5815
    CHARGE:  cpu time    3.6058: real time    3.6143
    MIXING:  cpu time    0.0040: real time    0.0040
    --------------------------------------------
      LOOP:  cpu time  120.0688: real time  120.3534

 eigenvalue-minimisations  : 51136
 total energy-change (2. order) :-0.5677862E+02  (-0.2715945E+02)
 number of electron     351.9999982 magnetization      20.3309471
 augmentation part      118.0823849 magnetization      17.1618361

 Broyden mixing:
  rms(total) = 0.17001E+02    rms(broyden)= 0.17000E+02
  rms(prec ) = 0.23706E+02
  weight for this iteration     100.00

 eigenvalues of (default mixing * dielectric matrix)
  average eigenvalue GAMMA=   0.4548
  0.6221  0.6221  0.1204

 Free energy of the ion-electron system (eV)
  ---------------------------------------------------
  alpha Z        PSCENC =      1094.16350177
  Ewald energy   TEWEN  =    -19730.95045858
  -Hartree energ DENC   =    -11726.74830606
  -exchange      EXHF   =         0.00000000
  -V(xc)+E(xc)   XCENC  =      1416.08501132
  PAW double counting   =     33156.15172898   -34305.74596796
  entropy T*S    EENTRO =        -0.03834329
  eigenvalues    EBANDS =     -1274.00573571
  atomic energy  EATOM  =     31013.67235384
  Solvation  Ediel_sol  =         0.00000000
  ---------------------------------------------------
  free energy    TOTEN  =      -357.41621570 eV

  energy without entropy =     -357.37787240  energy(sigma->0) =     -357.39704405


--------------------------------------------------------------------------------------------------------




--------------------------------------- Iteration      1(   9)  ---------------------------------------


    POTLOK:  cpu time    0.1388: real time    0.1391
    SETDIJ:  cpu time    0.0179: real time    0.0179
     EDDAV:  cpu time  103.3454: real time  103.5902
    CHARGE:  cpu time    3.5183: real time    3.5267
    MIXING:  cpu time    0.0041: real time    0.0096
    --------------------------------------------
      LOOP:  cpu time  107.0245: real time  107.2836

 eigenvalue-minimisations  : 44736
 total energy-change (2. order) : 0.4239154E+02  (-0.3483770E+02)
 number of electron     351.9999998 magnetization      16.6103245
 augmentation part      112.4257827 magnetization      13.5610940

 Broyden mixing:
  rms(total) = 0.99192E+01    rms(broyden)= 0.99177E+01
  rms(prec ) = 0.14609E+02
  weight for this iteration     100.00

 eigenvalues of (default mixing * dielectric matrix)
  average eigenvalue GAMMA=   0.4411
  0.6762  0.6762  0.2061  0.2061

 Free energy of the ion-electron system (eV)
  ---------------------------------------------------
  alpha Z        PSCENC =      1094.16350177
  Ewald energy   TEWEN  =    -19730.95045858
  -Hartree energ DENC   =    -11773.91748557
  -exchange      EXHF   =         0.00000000
  -V(xc)+E(xc)   XCENC  =      1413.72656665
  PAW double counting   =     34307.87035586   -35497.90030476
  entropy T*S    EENTRO =        -0.03367177
  eigenvalues    EBANDS =     -1141.65552964
  atomic energy  EATOM  =     31013.67235384
  Solvation  Ediel_sol  =         0.00000000
  ---------------------------------------------------
  free energy    TOTEN  =      -315.02467219 eV

  energy without entropy =     -314.99100042  energy(sigma->0) =     -315.00783631


--------------------------------------------------------------------------------------------------------




--------------------------------------- Iteration      1(  10)  ---------------------------------------


    POTLOK:  cpu time    0.1355: real time    0.1359
    SETDIJ:  cpu time    0.0177: real time    0.0178
     EDDAV:  cpu time  106.9467: real time  107.2001
    CHARGE:  cpu time    3.4097: real time    3.4178
    MIXING:  cpu time    0.0042: real time    0.0042
    --------------------------------------------
      LOOP:  cpu time  110.5139: real time  110.7758

 eigenvalue-minimisations  : 47696
 total energy-change (2. order) : 0.2217658E+02  (-0.1907655E+02)
 number of electron     351.9999978 magnetization      12.3289122
 augmentation part      112.1278716 magnetization       9.5960998

 Broyden mixing:
  rms(total) = 0.70847E+01    rms(broyden)= 0.70833E+01
  rms(prec ) = 0.10057E+02
  weight for this iteration     100.00

 eigenvalues of (default mixing * dielectric matrix)
  average eigenvalue GAMMA=   0.4595
  1.0635  0.4874  0.3082  0.3082  0.1302

 Free energy of the ion-electron system (eV)
  ---------------------------------------------------
  alpha Z        PSCENC =      1094.16350177
  Ewald energy   TEWEN  =    -19730.95045858
  -Hartree energ DENC   =    -11764.07748177
  -exchange      EXHF   =         0.00000000
  -V(xc)+E(xc)   XCENC  =      1412.25695125
  PAW double counting   =     35130.23349917   -36330.34925699
  entropy T*S    EENTRO =        -0.03782190
  eigenvalues    EBANDS =     -1117.75937420
  atomic energy  EATOM  =     31013.67235384
  Solvation  Ediel_sol  =         0.00000000
  ---------------------------------------------------
  free energy    TOTEN  =      -292.84808741 eV

  energy without entropy =     -292.81026551  energy(sigma->0) =     -292.82917646


--------------------------------------------------------------------------------------------------------




--------------------------------------- Iteration      1(  11)  ---------------------------------------


    POTLOK:  cpu time    0.1316: real time    0.1319
    SETDIJ:  cpu time    0.0174: real time    0.0174
     EDDAV:  cpu time  103.6890: real time  103.9347
    CHARGE:  cpu time    3.6908: real time    3.6996
    MIXING:  cpu time    0.0041: real time    0.0041
    --------------------------------------------
      LOOP:  cpu time  107.5328: real time  107.7876

 eigenvalue-minimisations  : 45136
 total energy-change (2. order) : 0.8697601E+01  (-0.8977657E+01)
 number of electron     351.9999990 magnetization      10.2101554
 augmentation part      111.3979879 magnetization       8.0788025

 Broyden mixing:
  rms(total) = 0.89889E+01    rms(broyden)= 0.89877E+01
  rms(prec ) = 0.14377E+02
  weight for this iteration     100.00

 eigenvalues of (default mixing * dielectric matrix)
  average eigenvalue GAMMA=   0.4530
  1.2298  0.4670  0.3784  0.3784  0.1323  0.1323

 Free energy of the ion-electron system (eV)
  ---------------------------------------------------
  alpha Z        PSCENC =      1094.16350177
  Ewald energy   TEWEN  =    -19730.95045858
  -Hartree energ DENC   =    -11736.48166163
  -exchange      EXHF   =         0.00000000
  -V(xc)+E(xc)   XCENC  =      1411.27334609
  PAW double counting   =     36034.08425239   -37236.38774458
  entropy T*S    EENTRO =        -0.03234960
  eigenvalues    EBANDS =     -1133.49172603
  atomic energy  EATOM  =     31013.67235384
  Solvation  Ediel_sol  =         0.00000000
  ---------------------------------------------------
  free energy    TOTEN  =      -284.15048633 eV

  energy without entropy =     -284.11813673  energy(sigma->0) =     -284.13431153


--------------------------------------------------------------------------------------------------------




--------------------------------------- Iteration      1(  12)  ---------------------------------------


    POTLOK:  cpu time    0.1365: real time    0.1369
    SETDIJ:  cpu time    0.0180: real time    0.0181
     EDDAV:  cpu time  114.8403: real time  115.1125
    CHARGE:  cpu time    3.5444: real time    3.5528
    MIXING:  cpu time    0.0044: real time    0.0045
    --------------------------------------------
      LOOP:  cpu time  118.5438: real time  118.8248

 eigenvalue-minimisations  : 50512
 total energy-change (2. order) : 0.1677429E+02  (-0.7069504E+01)
 number of electron     351.9999983 magnetization       8.2937074
 augmentation part      113.9658509 magnetization       6.0350622

 Broyden mixing:
  rms(total) = 0.57537E+01    rms(broyden)= 0.57522E+01
  rms(prec ) = 0.85911E+01
  weight for this iteration     100.00

 eigenvalues of (default mixing * dielectric matrix)
  average eigenvalue GAMMA=   0.4505
  1.3494  0.4969  0.4464  0.4464  0.1580  0.1580  0.0987

 Free energy of the ion-electron system (eV)
  ---------------------------------------------------
  alpha Z        PSCENC =      1094.16350177
  Ewald energy   TEWEN  =    -19730.95045858
  -Hartree energ DENC   =    -11715.73950198
  -exchange      EXHF   =         0.00000000
  -V(xc)+E(xc)   XCENC  =      1410.98499539
  PAW double counting   =     36446.56829694   -37645.50046411
  entropy T*S    EENTRO =        -0.04402573
  eigenvalues    EBANDS =     -1140.53089220
  atomic energy  EATOM  =     31013.67235384
  Solvation  Ediel_sol  =         0.00000000
  ---------------------------------------------------
  free energy    TOTEN  =      -267.37619467 eV

  energy without entropy =     -267.33216893  energy(sigma->0) =     -267.35418180


--------------------------------------------------------------------------------------------------------




--------------------------------------- Iteration      1(  13)  ---------------------------------------


    POTLOK:  cpu time    0.1338: real time    0.1341
    SETDIJ:  cpu time    0.0179: real time    0.0179
     EDDAV:  cpu time  107.6379: real time  107.8930
    CHARGE:  cpu time    2.8254: real time    2.8322
    MIXING:  cpu time    0.0046: real time    0.0046
    --------------------------------------------
      LOOP:  cpu time  110.6196: real time  110.8818

 eigenvalue-minimisations  : 47696
 total energy-change (2. order) : 0.4088712E+01  (-0.5526428E+01)
 number of electron     351.9999971 magnetization       6.7485752
 augmentation part      115.0726776 magnetization       3.9532385

 Broyden mixing:
  rms(total) = 0.43460E+01    rms(broyden)= 0.43453E+01
  rms(prec ) = 0.67741E+01
  weight for this iteration     100.00

 eigenvalues of (default mixing * dielectric matrix)
  average eigenvalue GAMMA=   0.4484
  1.5137  0.5251  0.4786  0.4786  0.1717  0.1717  0.1239  0.1239

 Free energy of the ion-electron system (eV)
  ---------------------------------------------------
  alpha Z        PSCENC =      1094.16350177
  Ewald energy   TEWEN  =    -19730.95045858
  -Hartree energ DENC   =    -11709.14925788
  -exchange      EXHF   =         0.00000000
  -V(xc)+E(xc)   XCENC  =      1411.09354745
  PAW double counting   =     36800.31088148   -37998.73517897
  entropy T*S    EENTRO =        -0.05441636
  eigenvalues    EBANDS =     -1143.63845506
  atomic energy  EATOM  =     31013.67235384
  Solvation  Ediel_sol  =         0.00000000
  ---------------------------------------------------
  free energy    TOTEN  =      -263.28748230 eV

  energy without entropy =     -263.23306594  energy(sigma->0) =     -263.26027412


--------------------------------------------------------------------------------------------------------




--------------------------------------- Iteration      1(  14)  ---------------------------------------


    POTLOK:  cpu time    0.1386: real time    0.1389
    SETDIJ:  cpu time    0.0184: real time    0.0185
     EDDAV:  cpu time  106.7802: real time  107.0332
    CHARGE:  cpu time    3.4988: real time    3.5072
    MIXING:  cpu time    0.0047: real time    0.0047
    --------------------------------------------
      LOOP:  cpu time  110.4407: real time  110.7025

 eigenvalue-minimisations  : 47456
 total energy-change (2. order) : 0.5991983E+01  (-0.2175706E+01)
 number of electron     351.9999990 magnetization       5.8146497
 augmentation part      116.2871983 magnetization       3.5916367

 Broyden mixing:
  rms(total) = 0.22195E+01    rms(broyden)= 0.22182E+01
  rms(prec ) = 0.33057E+01
  weight for this iteration     100.00

 eigenvalues of (default mixing * dielectric matrix)
  average eigenvalue GAMMA=   0.4407
  1.5479  0.6215  0.4720  0.4720  0.2789  0.1861  0.1355  0.1355  0.1172

 Free energy of the ion-electron system (eV)
  ---------------------------------------------------
  alpha Z        PSCENC =      1094.16350177
  Ewald energy   TEWEN  =    -19730.95045858
  -Hartree energ DENC   =    -11709.21090607
  -exchange      EXHF   =         0.00000000
  -V(xc)+E(xc)   XCENC  =      1411.25842766
  PAW double counting   =     37126.14387331   -38324.30375764
  entropy T*S    EENTRO =        -0.04663629
  eigenvalues    EBANDS =     -1138.02189681
  atomic energy  EATOM  =     31013.67235384
  Solvation  Ediel_sol  =         0.00000000
  ---------------------------------------------------
  free energy    TOTEN  =      -257.29549881 eV

  energy without entropy =     -257.24886252  energy(sigma->0) =     -257.27218066


--------------------------------------------------------------------------------------------------------




--------------------------------------- Iteration      1(  15)  ---------------------------------------


    POTLOK:  cpu time    0.1346: real time    0.1349
    SETDIJ:  cpu time    0.0179: real time    0.0179
     EDDAV:  cpu time  112.0333: real time  112.2988
    CHARGE:  cpu time    3.4415: real time    3.4497
    MIXING:  cpu time    0.0046: real time    0.0046
    --------------------------------------------
      LOOP:  cpu time  115.6318: real time  115.9059

 eigenvalue-minimisations  : 51904
 total energy-change (2. order) : 0.1509539E+01  (-0.6223886E+00)
 number of electron     351.9999989 magnetization       5.0048980
 augmentation part      115.7115023 magnetization       3.0930475

 Broyden mixing:
  rms(total) = 0.18244E+01    rms(broyden)= 0.18239E+01
  rms(prec ) = 0.23501E+01
  weight for this iteration     100.00

 eigenvalues of (default mixing * dielectric matrix)
  average eigenvalue GAMMA=   0.4378
  1.5909  0.5670  0.5670  0.4105  0.4105  0.2940  0.1525  0.1525  0.1166  0.1166

 Free energy of the ion-electron system (eV)
  ---------------------------------------------------
  alpha Z        PSCENC =      1094.16350177
  Ewald energy   TEWEN  =    -19730.95045858
  -Hartree energ DENC   =    -11718.26485380
  -exchange      EXHF   =         0.00000000
  -V(xc)+E(xc)   XCENC  =      1411.47692884
  PAW double counting   =     37319.95965064   -38519.56797705
  entropy T*S    EENTRO =        -0.04128507
  eigenvalues    EBANDS =     -1126.23382040
  atomic energy  EATOM  =     31013.67235384
  Solvation  Ediel_sol  =         0.00000000
  ---------------------------------------------------
  free energy    TOTEN  =      -255.78595980 eV

  energy without entropy =     -255.74467474  energy(sigma->0) =     -255.76531727


--------------------------------------------------------------------------------------------------------




--------------------------------------- Iteration      1(  16)  ---------------------------------------


    POTLOK:  cpu time    0.1316: real time    0.1320
    SETDIJ:  cpu time    0.0175: real time    0.0176
     EDDAV:  cpu time  111.3399: real time  111.6038
    CHARGE:  cpu time    3.3128: real time    3.3207
    MIXING:  cpu time    0.0059: real time    0.0306
    --------------------------------------------
      LOOP:  cpu time  114.8078: real time  115.1045

 eigenvalue-minimisations  : 51680
 total energy-change (2. order) : 0.5683851E-01  (-0.2796177E+00)
 number of electron     351.9999988 magnetization       4.2598949
 augmentation part      115.6855107 magnetization       2.3634354

 Broyden mixing:
  rms(total) = 0.16583E+01    rms(broyden)= 0.16580E+01
  rms(prec ) = 0.21876E+01
  weight for this iteration     100.00

 eigenvalues of (default mixing * dielectric matrix)
  average eigenvalue GAMMA=   0.4517
  1.6762  0.6797  0.6797  0.4556  0.4556  0.3066  0.1728  0.1728  0.1224  0.1224
  0.1252

 Free energy of the ion-electron system (eV)
  ---------------------------------------------------
  alpha Z        PSCENC =      1094.16350177
  Ewald energy   TEWEN  =    -19730.95045858
  -Hartree energ DENC   =    -11720.69620536
  -exchange      EXHF   =         0.00000000
  -V(xc)+E(xc)   XCENC  =      1411.57093933
  PAW double counting   =     37479.80514866   -38680.10012337
  entropy T*S    EENTRO =        -0.04206610
  eigenvalues    EBANDS =     -1123.15221148
  atomic energy  EATOM  =     31013.67235384
  Solvation  Ediel_sol  =         0.00000000
  ---------------------------------------------------
  free energy    TOTEN  =      -255.72912129 eV

  energy without entropy =     -255.68705520  energy(sigma->0) =     -255.70808824


--------------------------------------------------------------------------------------------------------




--------------------------------------- Iteration      1(  17)  ---------------------------------------


    POTLOK:  cpu time    0.1328: real time    0.1331
    SETDIJ:  cpu time    0.0175: real time    0.0175
     EDDAV:  cpu time   97.0445: real time   97.2745
    CHARGE:  cpu time    3.3004: real time    3.3083
    MIXING:  cpu time    0.0051: real time    0.0051
    --------------------------------------------
      LOOP:  cpu time  100.5002: real time  100.7384

 eigenvalue-minimisations  : 43600
 total energy-change (2. order) : 0.8426887E-01  (-0.1652662E+00)
 number of electron     351.9999987 magnetization       3.7667554
 augmentation part      115.9065526 magnetization       1.8462540

 Broyden mixing:
  rms(total) = 0.16009E+01    rms(broyden)= 0.16008E+01
  rms(prec ) = 0.20382E+01
  weight for this iteration     100.00

 eigenvalues of (default mixing * dielectric matrix)
  average eigenvalue GAMMA=   0.4606
  1.7253  0.7686  0.7686  0.4962  0.4962  0.3505  0.2294  0.1764  0.1421  0.1421
  0.1156  0.1156

 Free energy of the ion-electron system (eV)
  ---------------------------------------------------
  alpha Z        PSCENC =      1094.16350177
  Ewald energy   TEWEN  =    -19730.95045858
  -Hartree energ DENC   =    -11719.92937062
  -exchange      EXHF   =         0.00000000
  -V(xc)+E(xc)   XCENC  =      1411.59604493
  PAW double counting   =     37641.87673343   -38842.27109520
  entropy T*S    EENTRO =        -0.04015702
  eigenvalues    EBANDS =     -1123.76240496
  atomic energy  EATOM  =     31013.67235384
  Solvation  Ediel_sol  =         0.00000000
  ---------------------------------------------------
  free energy    TOTEN  =      -255.64485242 eV

  energy without entropy =     -255.60469541  energy(sigma->0) =     -255.62477392


--------------------------------------------------------------------------------------------------------




--------------------------------------- Iteration      1(  18)  ---------------------------------------


    POTLOK:  cpu time    0.1322: real time    0.1325
    SETDIJ:  cpu time    0.0177: real time    0.0177
     EDDAV:  cpu time   99.8055: real time  100.0420
    CHARGE:  cpu time    3.2969: real time    3.3047
    MIXING:  cpu time    0.0050: real time    0.0050
    --------------------------------------------
      LOOP:  cpu time  103.2572: real time  103.5019

 eigenvalue-minimisations  : 44992
 total energy-change (2. order) :-0.7443414E-01  (-0.1286104E+00)
 number of electron     351.9999988 magnetization       2.9991320
 augmentation part      115.9767680 magnetization       1.2844023

 Broyden mixing:
  rms(total) = 0.13273E+01    rms(broyden)= 0.13271E+01
  rms(prec ) = 0.18453E+01
  weight for this iteration     100.00

 eigenvalues of (default mixing * dielectric matrix)
  average eigenvalue GAMMA=   0.5029
  1.8231  0.9932  0.9932  0.5639  0.4924  0.4924  0.2843  0.2207  0.1563  0.1563
  0.1185  0.1185  0.1246

 Free energy of the ion-electron system (eV)
  ---------------------------------------------------
  alpha Z        PSCENC =      1094.16350177
  Ewald energy   TEWEN  =    -19730.95045858
  -Hartree energ DENC   =    -11721.18948883
  -exchange      EXHF   =         0.00000000
  -V(xc)+E(xc)   XCENC  =      1411.59295660
  PAW double counting   =     37782.47071394   -38982.70183506
  entropy T*S    EENTRO =        -0.04148169
  eigenvalues    EBANDS =     -1122.73554855
  atomic energy  EATOM  =     31013.67235384
  Solvation  Ediel_sol  =         0.00000000
  ---------------------------------------------------
  free energy    TOTEN  =      -255.71928656 eV

  energy without entropy =     -255.67780487  energy(sigma->0) =     -255.69854572


--------------------------------------------------------------------------------------------------------




--------------------------------------- Iteration      1(  19)  ---------------------------------------


    POTLOK:  cpu time    0.1324: real time    0.1327
    SETDIJ:  cpu time    0.0173: real time    0.0173
     EDDAV:  cpu time  102.5520: real time  102.7950
    CHARGE:  cpu time    2.4390: real time    2.4448
    MIXING:  cpu time    0.0048: real time    0.0048
    --------------------------------------------
      LOOP:  cpu time  105.1455: real time  105.3946

 eigenvalue-minimisations  : 46512
 total energy-change (2. order) : 0.7448422E-01  (-0.1173454E+00)
 number of electron     351.9999986 magnetization       2.6927864
 augmentation part      115.8134806 magnetization       0.9195558

 Broyden mixing:
  rms(total) = 0.11483E+01    rms(broyden)= 0.11480E+01
  rms(prec ) = 0.16321E+01
  weight for this iteration     100.00

 eigenvalues of (default mixing * dielectric matrix)
  average eigenvalue GAMMA=   0.5218
  1.8089  1.1909  1.1909  0.6497  0.4755  0.4755  0.3947  0.2631  0.1841  0.1545
  0.1545  0.1183  0.1183  0.1269

 Free energy of the ion-electron system (eV)
  ---------------------------------------------------
  alpha Z        PSCENC =      1094.16350177
  Ewald energy   TEWEN  =    -19730.95045858
  -Hartree energ DENC   =    -11726.10936766
  -exchange      EXHF   =         0.00000000
  -V(xc)+E(xc)   XCENC  =      1411.68808841
  PAW double counting   =     38017.61339427   -39217.98811782
  entropy T*S    EENTRO =        -0.04233371
  eigenvalues    EBANDS =     -1117.69186286
  atomic energy  EATOM  =     31013.67235384
  Solvation  Ediel_sol  =         0.00000000
  ---------------------------------------------------
  free energy    TOTEN  =      -255.64480234 eV

  energy without entropy =     -255.60246863  energy(sigma->0) =     -255.62363549


--------------------------------------------------------------------------------------------------------




--------------------------------------- Iteration      1(  20)  ---------------------------------------


    POTLOK:  cpu time    0.1162: real time    0.1165
    SETDIJ:  cpu time    0.0171: real time    0.0172
     EDDAV:  cpu time  101.9057: real time  102.1471
    CHARGE:  cpu time    3.2960: real time    3.3039
    MIXING:  cpu time    0.0056: real time    0.0057
    --------------------------------------------
      LOOP:  cpu time  105.3407: real time  105.5903

 eigenvalue-minimisations  : 46144
 total energy-change (2. order) : 0.1591588E+00  (-0.1079661E+00)
 number of electron     351.9999985 magnetization       2.4455812
 augmentation part      115.6760053 magnetization       0.7140873

 Broyden mixing:
  rms(total) = 0.86766E+00    rms(broyden)= 0.86738E+00
  rms(prec ) = 0.12420E+01
  weight for this iteration     100.00

 eigenvalues of (default mixing * dielectric matrix)
  average eigenvalue GAMMA=   0.5308
  2.1475  1.1830  1.1830  0.5994  0.5994  0.4627  0.4627  0.2751  0.2113  0.1705
  0.1537  0.1537  0.1182  0.1182  0.1244

 Free energy of the ion-electron system (eV)
  ---------------------------------------------------
  alpha Z        PSCENC =      1094.16350177
  Ewald energy   TEWEN  =    -19730.95045858
  -Hartree energ DENC   =    -11729.46297386
  -exchange      EXHF   =         0.00000000
  -V(xc)+E(xc)   XCENC  =      1411.78842873
  PAW double counting   =     38149.99975177   -39349.82710630
  entropy T*S    EENTRO =        -0.03599013
  eigenvalues    EBANDS =     -1114.83315078
  atomic energy  EATOM  =     31013.67235384
  Solvation  Ediel_sol  =         0.00000000
  ---------------------------------------------------
  free energy    TOTEN  =      -255.48564356 eV

  energy without entropy =     -255.44965342  energy(sigma->0) =     -255.46764849


--------------------------------------------------------------------------------------------------------




--------------------------------------- Iteration      1(  21)  ---------------------------------------


    POTLOK:  cpu time    0.1315: real time    0.1318
    SETDIJ:  cpu time    0.0175: real time    0.0175
     EDDAV:  cpu time  106.7763: real time  107.0293
    CHARGE:  cpu time    2.9077: real time    2.9146
    MIXING:  cpu time    0.0052: real time    0.0052
    --------------------------------------------
      LOOP:  cpu time  109.8381: real time  110.0984

 eigenvalue-minimisations  : 48768
 total energy-change (2. order) : 0.1928732E+00  (-0.5637840E-01)
 number of electron     351.9999986 magnetization       2.5076356
 augmentation part      115.7642557 magnetization       0.7711829

 Broyden mixing:
  rms(total) = 0.61230E+00    rms(broyden)= 0.61210E+00
  rms(prec ) = 0.85638E+00
  weight for this iteration     100.00

 eigenvalues of (default mixing * dielectric matrix)
  average eigenvalue GAMMA=   0.5210
  1.9913  1.6112  0.9365  0.6317  0.6317  0.4596  0.4596  0.3314  0.2268  0.2268
  0.1563  0.1563  0.1542  0.1184  0.1184  0.1258

 Free energy of the ion-electron system (eV)
  ---------------------------------------------------
  alpha Z        PSCENC =      1094.16350177
  Ewald energy   TEWEN  =    -19730.95045858
  -Hartree energ DENC   =    -11731.74450608
  -exchange      EXHF   =         0.00000000
  -V(xc)+E(xc)   XCENC  =      1411.86117949
  PAW double counting   =     38253.86906132   -39453.49974295
  entropy T*S    EENTRO =        -0.03857396
  eigenvalues    EBANDS =     -1112.62558521
  atomic energy  EATOM  =     31013.67235384
  Solvation  Ediel_sol  =         0.00000000
  ---------------------------------------------------
  free energy    TOTEN  =      -255.29277036 eV

  energy without entropy =     -255.25419639  energy(sigma->0) =     -255.27348337


--------------------------------------------------------------------------------------------------------




--------------------------------------- Iteration      1(  22)  ---------------------------------------


    POTLOK:  cpu time    0.1232: real time    0.1235
    SETDIJ:  cpu time    0.0166: real time    0.0167
     EDDAV:  cpu time  111.4994: real time  111.7636
    CHARGE:  cpu time    3.2546: real time    3.2623
    MIXING:  cpu time    0.0061: real time    0.0061
    --------------------------------------------
      LOOP:  cpu time  114.8999: real time  115.1722

 eigenvalue-minimisations  : 51280
 total energy-change (2. order) : 0.6759394E-01  (-0.2304215E-01)
 number of electron     351.9999986 magnetization       2.5806079
 augmentation part      115.7580835 magnetization       0.8070434

 Broyden mixing:
  rms(total) = 0.43720E+00    rms(broyden)= 0.43709E+00
  rms(prec ) = 0.62673E+00
  weight for this iteration     100.00

 eigenvalues of (default mixing * dielectric matrix)
  average eigenvalue GAMMA=   0.5266
  2.0428  1.7429  0.8861  0.6772  0.6772  0.4796  0.4796  0.4585  0.2632  0.2452
  0.1860  0.1547  0.1547  0.1183  0.1183  0.1248  0.1429

 Free energy of the ion-electron system (eV)
  ---------------------------------------------------
  alpha Z        PSCENC =      1094.16350177
  Ewald energy   TEWEN  =    -19730.95045858
  -Hartree energ DENC   =    -11731.91757951
  -exchange      EXHF   =         0.00000000
  -V(xc)+E(xc)   XCENC  =      1411.88842367
  PAW double counting   =     38264.20594943   -39463.26562875
  entropy T*S    EENTRO =        -0.03735156
  eigenvalues    EBANDS =     -1112.98438673
  atomic energy  EATOM  =     31013.67235384
  Solvation  Ediel_sol  =         0.00000000
  ---------------------------------------------------
  free energy    TOTEN  =      -255.22517641 eV

  energy without entropy =     -255.18782486  energy(sigma->0) =     -255.20650064


--------------------------------------------------------------------------------------------------------




--------------------------------------- Iteration      1(  23)  ---------------------------------------


    POTLOK:  cpu time    0.1328: real time    0.1331
    SETDIJ:  cpu time    0.0178: real time    0.0178
     EDDAV:  cpu time  109.6479: real time  109.9076
    CHARGE:  cpu time    3.2540: real time    3.2618
    MIXING:  cpu time    0.0060: real time    0.0060
    --------------------------------------------
      LOOP:  cpu time  113.0585: real time  113.3264

 eigenvalue-minimisations  : 50176
 total energy-change (2. order) : 0.1884266E-01  (-0.1132080E-01)
 number of electron     351.9999987 magnetization       2.7518848
 augmentation part      115.7682867 magnetization       0.9499018

 Broyden mixing:
  rms(total) = 0.36826E+00    rms(broyden)= 0.36820E+00
  rms(prec ) = 0.50483E+00
  weight for this iteration     100.00

 eigenvalues of (default mixing * dielectric matrix)
  average eigenvalue GAMMA=   0.5370
  1.9833  1.9833  0.8712  0.7204  0.7204  0.6274  0.4869  0.4869  0.3329  0.2667
  0.1892  0.1892  0.1543  0.1543  0.1184  0.1184  0.1252  0.1371

 Free energy of the ion-electron system (eV)
  ---------------------------------------------------
  alpha Z        PSCENC =      1094.16350177
  Ewald energy   TEWEN  =    -19730.95045858
  -Hartree energ DENC   =    -11732.84483168
  -exchange      EXHF   =         0.00000000
  -V(xc)+E(xc)   XCENC  =      1411.93213590
  PAW double counting   =     38277.59682993   -39476.41090554
  entropy T*S    EENTRO =        -0.03549669
  eigenvalues    EBANDS =     -1112.32946270
  atomic energy  EATOM  =     31013.67235384
  Solvation  Ediel_sol  =         0.00000000
  ---------------------------------------------------
  free energy    TOTEN  =      -255.20633375 eV

  energy without entropy =     -255.17083706  energy(sigma->0) =     -255.18858540


--------------------------------------------------------------------------------------------------------




--------------------------------------- Iteration      1(  24)  ---------------------------------------


    POTLOK:  cpu time    0.1324: real time    0.1327
    SETDIJ:  cpu time    0.0179: real time    0.0180
     EDDAV:  cpu time  107.7317: real time  107.9869
    CHARGE:  cpu time    2.3700: real time    2.3757
    MIXING:  cpu time    0.0054: real time    0.0054
    --------------------------------------------
      LOOP:  cpu time  110.2574: real time  110.5186

 eigenvalue-minimisations  : 49312
 total energy-change (2. order) : 0.1901278E-01  (-0.4618638E-02)
 number of electron     351.9999987 magnetization       2.8861587
 augmentation part      115.7564789 magnetization       1.0600083

 Broyden mixing:
  rms(total) = 0.29697E+00    rms(broyden)= 0.29693E+00
  rms(prec ) = 0.39865E+00
  weight for this iteration     100.00

 eigenvalues of (default mixing * dielectric matrix)
  average eigenvalue GAMMA=   0.5475
  2.0830  2.0830  0.9103  0.8316  0.8316  0.6141  0.4785  0.4785  0.4284  0.2750
  0.2117  0.2117  0.1551  0.1551  0.1602  0.1183  0.1183  0.1247  0.1327

 Free energy of the ion-electron system (eV)
  ---------------------------------------------------
  alpha Z        PSCENC =      1094.16350177
  Ewald energy   TEWEN  =    -19730.95045858
  -Hartree energ DENC   =    -11733.09959873
  -exchange      EXHF   =         0.00000000
  -V(xc)+E(xc)   XCENC  =      1411.95422988
  PAW double counting   =     38262.77931005   -39461.21753508
  entropy T*S    EENTRO =        -0.03534268
  eigenvalues    EBANDS =     -1112.45378145
  atomic energy  EATOM  =     31013.67235384
  Solvation  Ediel_sol  =         0.00000000
  ---------------------------------------------------
  free energy    TOTEN  =      -255.18732097 eV

  energy without entropy =     -255.15197829  energy(sigma->0) =     -255.16964963


--------------------------------------------------------------------------------------------------------




[...]
 -0.013  -0.001  -0.002  -0.017   0.007   0.009   0.001   0.001   0.012  -0.006  -0.000   0.000  -0.000   0.000   0.000  -0.000


------------------------ aborting loop because EDIFF is reached ----------------------------------------


    CHARGE:  cpu time    2.7100: real time    2.7164
    FORLOC:  cpu time    0.0233: real time    0.0243
    FORNL :  cpu time   23.9105: real time   23.9671
    STRESS:  cpu time   73.0092: real time   73.1827
    FORCOR:  cpu time    0.1291: real time    0.1294
    FORHAR:  cpu time    0.0334: real time    0.0335
    MIXING:  cpu time    0.0083: real time    0.0083
    OFIELD:  cpu time    0.0001: real time    0.0001

  FORCE on cell =-STRESS in cart. coord.  units (eV):
  Direction    XX          YY          ZZ          XY          YZ          ZX
  --------------------------------------------------------------------------------------
  Alpha Z  1094.16350  1094.16350  1094.16350
  Ewald   -6192.84983 -6532.50925 -7005.70722   143.40621  -633.40821  -594.58210
  Hartree  4082.25142  3817.63644  3836.77993   120.23937  -503.71380  -391.45286
  E(xc)   -1804.68421 -1805.11317 -1803.23188     0.03405    -0.31222     0.14339
  Local   -4756.28964 -4137.30492 -3796.17685  -263.60662  1142.40648   963.06689
  n-local  -709.87069  -701.08966  -747.87175    -1.90240     3.13264    -5.15163
  augment  2971.08358  2967.26993  3015.03174     1.15581    -5.31873     6.80290
  Kinetic  5419.95154  5430.34429  5442.80362     1.46262     7.49924    18.10943
  Fock        0.00000     0.00000     0.00000     0.00000     0.00000     0.00000
  -------------------------------------------------------------------------------------
  Total      103.7556636    133.3971682     35.7910974      0.7890441     10.2853987     -3.0639638
  in kB      331.8568543    426.6635969    114.4758811      2.5237147     32.8972892     -9.7999218
  external PRESSURE =     290.9987775 kB  Pullay stress =       0.0000000 kB


 VOLUME and BASIS-vectors are now :
 -----------------------------------------------------------------------------
  energy-cutoff  :      500.00
  volume of cell :      500.92
      direct lattice vectors                 reciprocal lattice vectors
     7.941890000  0.000000000  0.000000000     0.125914612  0.000000000  0.000000000
     0.000000000  7.941890000  0.000000000     0.000000000  0.125914612  0.000000000
     0.000000000  0.000000000  7.941890000     0.000000000  0.000000000  0.125914612

  length of vectors
     7.941890000  7.941890000  7.941890000     0.125914612  0.125914612  0.125914612


 FORCES acting on ions
    electron-ion (+dipol)            ewald-force                    non-local-force                 convergence-correction
 -----------------------------------------------------------------------------------------------
   0.129E+03 0.239E+02 -.202E+02   -.144E+03 -.170E+02 0.221E+02   0.185E+01 -.451E+00 -.985E+00   -.897E-01 -.565E-01 0.454E-03
   -.593E+02 -.216E+03 -.152E+03   0.607E+02 0.225E+03 0.158E+03   -.153E+01 -.145E+01 -.134E+00   -.515E-01 0.541E-02 -.643E-02
   -.481E+02 -.554E+02 0.548E+02   0.492E+02 0.581E+02 -.554E+02   -.348E+01 -.412E+01 0.166E+00   -.107E-01 -.112E-01 0.122E-01
   -.113E+03 -.108E+03 0.172E+03   0.115E+03 0.116E+03 -.177E+03   0.223E+00 0.219E+01 0.602E+00   -.336E-01 -.573E-01 0.175E-01
   -.835E+02 -.114E+03 -.195E+03   0.864E+02 0.115E+03 0.202E+03   -.372E+01 0.846E-01 -.281E+00   -.383E-01 -.438E-01 0.408E-01
   0.695E+02 0.289E+03 0.379E+02   -.735E+02 -.333E+03 -.410E+02   0.177E+01 0.579E+01 0.455E+00   0.321E-01 -.851E-02 0.919E-02
   0.361E+02 -.302E+02 0.442E+02   -.395E+02 0.320E+02 -.457E+02   -.143E+00 -.725E+00 0.279E+00   -.859E-02 0.227E-01 0.223E-02
   0.444E+02 0.183E+03 0.658E+02   -.422E+02 -.189E+03 -.701E+02   -.394E+01 0.181E+01 0.155E+01   -.889E-01 -.769E-02 0.608E-01
   0.149E+03 0.266E+03 -.277E+02   -.153E+03 -.272E+03 0.285E+02   -.226E+01 0.396E+01 -.289E+00   0.756E-01 -.230E-01 -.552E-02
   -.168E+02 -.150E+03 -.619E+02   0.290E+02 0.154E+03 0.620E+02   0.405E+00 -.384E+01 0.241E+01   0.190E-01 -.633E-01 0.248E-01
   -.140E+03 0.218E+03 -.906E+02   0.146E+03 -.234E+03 0.900E+02   -.169E+01 0.268E+01 -.309E+00   -.168E-01 -.330E-01 -.892E-02
   0.870E+02 -.125E+03 -.478E+02   -.884E+02 0.127E+03 0.506E+02   0.315E+01 0.528E+00 -.193E+01   0.612E-01 0.131E-01 -.512E-01
   0.470E+02 0.549E+02 0.315E+01   -.456E+02 -.535E+02 -.121E+01   -.304E+01 -.181E+01 0.232E+00   0.529E-01 0.422E-01 -.485E-01
   0.141E+02 0.859E+02 0.844E+02   -.182E+02 -.874E+02 -.865E+02   0.135E+01 -.716E+00 0.380E+00   0.397E-01 0.130E-01 -.475E-01
   0.241E+02 -.181E+03 0.183E+03   -.337E+02 0.185E+03 -.187E+03   0.169E+01 -.198E+01 0.266E+00   0.928E-02 0.137E-01 -.155E-01
   -.190E+01 0.129E+03 0.224E+02   0.466E+01 -.132E+03 -.235E+02   0.272E+00 0.910E+00 -.651E+00   0.558E-01 0.214E-01 0.287E-01
   -.212E+03 0.197E+03 0.148E+03   0.229E+03 -.210E+03 -.157E+03   -.166E+02 0.124E+02 0.842E+01   0.202E-01 0.476E-01 -.573E-01
   -.148E+03 -.312E+03 -.192E+03   0.153E+03 0.336E+03 0.204E+03   -.634E+01 -.224E+02 -.121E+02   -.385E-01 0.204E-01 0.299E-01
   0.124E+03 -.137E+03 -.318E+03   -.135E+03 0.146E+03 0.337E+03   0.132E+02 -.102E+02 -.182E+02   -.219E-01 0.294E-01 -.217E-01
   -.309E+03 -.215E+03 0.258E+03   0.334E+03 0.221E+03 -.279E+03   -.188E+02 -.533E+01 0.165E+02   0.210E-01 -.278E-01 -.137E-01
   0.207E+03 0.247E+03 0.242E+03   -.223E+03 -.262E+03 -.263E+03   0.161E+02 0.159E+02 0.203E+02   0.127E-01 -.158E-01 -.269E-01
   -.132E+03 0.371E+03 -.240E+03   0.144E+03 -.402E+03 0.263E+03   -.123E+02 0.226E+02 -.229E+02   -.548E-01 0.145E-01 -.414E-01
   0.260E+03 0.178E+03 -.970E+02   -.275E+03 -.191E+03 0.104E+03   0.137E+02 0.132E+02 -.820E+01   -.145E-01 0.225E-01 0.164E-02
   0.212E+03 -.323E+03 0.101E+03   -.226E+03 0.343E+03 -.110E+03   0.141E+02 -.172E+02 0.110E+02   -.509E-01 -.184E-01 0.592E-02
   -.224E+03 0.337E+03 0.204E+03   0.244E+03 -.356E+03 -.223E+03   -.134E+02 0.131E+02 0.168E+02   -.149E-01 -.266E-03 0.291E-02
   -.196E+03 -.143E+03 -.118E+03   0.214E+03 0.154E+03 0.118E+03   -.173E+02 -.990E+01 0.575E+00   -.190E-01 0.762E-03 0.344E-01
   0.736E+02 -.425E+03 -.191E+03   -.704E+02 0.495E+03 0.211E+03   0.320E+01 -.317E+02 -.150E+02   0.211E-01 0.381E-01 0.295E-01
   -.241E+03 -.127E+03 0.209E+03   0.266E+03 0.140E+03 -.222E+03   -.214E+02 -.145E+02 0.132E+02   -.397E-01 -.305E-01 0.182E-01
   0.178E+03 0.126E+03 0.234E+03   -.194E+03 -.135E+03 -.254E+03   0.141E+02 0.896E+01 0.158E+02   -.792E-02 0.219E-01 -.430E-01
   -.303E+03 0.133E+03 -.250E+03   0.315E+03 -.144E+03 0.274E+03   -.980E+01 0.110E+02 -.173E+02   -.322E-01 -.349E-01 -.207E-01
   0.165E+03 0.295E+03 -.236E+03   -.167E+03 -.317E+03 0.255E+03   0.713E+00 0.189E+02 -.196E+02   0.418E-01 -.325E-01 -.354E-01
   0.328E+03 -.307E+02 0.120E+03   -.355E+03 0.313E+02 -.123E+03   0.226E+02 -.151E+01 0.460E+01   -.613E-01 0.168E-01 0.375E-01
   -.172E+03 0.140E+03 0.233E+03   0.191E+03 -.141E+03 -.248E+03   -.168E+02 -.125E+00 0.133E+02   0.204E-01 -.152E-01 0.202E-01
   -.102E+03 -.329E+03 -.289E+03   0.982E+02 0.362E+03 0.307E+03   -.164E+01 -.180E+02 -.141E+02   0.319E-01 -.116E-01 -.252E-01
   0.150E+03 -.366E+03 -.245E+03   -.161E+03 0.394E+03 0.263E+03   0.116E+02 -.205E+02 -.163E+02   -.108E-01 -.255E-01 0.568E-01
   -.224E+03 -.133E+03 0.167E+03   0.242E+03 0.143E+03 -.185E+03   -.165E+02 -.108E+02 0.199E+02   0.258E-01 0.230E-01 -.213E-02
   0.661E+02 0.131E+03 0.186E+03   -.724E+02 -.137E+03 -.199E+03   0.809E+01 0.788E+01 0.143E+02   0.149E-01 0.128E-01 0.270E-01
   -.146E+03 0.187E+03 -.146E+03   0.151E+03 -.203E+03 0.159E+03   -.545E+01 0.175E+02 -.146E+02   0.484E-01 0.197E-01 0.150E-01
   0.245E+03 0.605E+02 -.941E+02   -.258E+03 -.647E+02 0.103E+03   0.133E+02 0.530E+01 -.110E+02   -.338E-01 0.229E-01 0.114E-01
   0.434E+03 -.194E+03 0.174E+03   -.477E+03 0.202E+03 -.185E+03   0.240E+02 -.787E+01 0.121E+02   0.481E-01 -.279E-01 -.278E-02
   -.322E+03 0.209E+03 0.832E+02   0.356E+03 -.229E+03 -.850E+02   -.194E+02 0.163E+02 0.313E+01   -.680E-01 -.510E-01 -.133E-01
   -.177E+03 -.120E+03 -.203E+03   0.188E+03 0.129E+03 0.218E+03   -.871E+01 -.846E+01 -.110E+02   0.111E-01 0.561E-01 -.374E-01
   0.214E+03 -.200E+03 -.125E+03   -.227E+03 0.219E+03 0.133E+03   0.150E+02 -.196E+02 -.985E+01   0.337E-01 -.501E-01 -.107E-01
   -.170E+03 -.165E+03 0.197E+03   0.189E+03 0.180E+03 -.211E+03   -.196E+02 -.156E+02 0.137E+02   0.630E-01 -.208E-01 0.401E-01
   0.255E+03 0.124E+03 0.352E+03   -.277E+03 -.132E+03 -.377E+03   0.190E+02 0.794E+01 0.190E+02   0.349E-01 -.602E-01 0.289E-01
   -.212E+03 0.661E+02 -.224E+03   0.229E+03 -.735E+02 0.238E+03   -.165E+02 0.867E+01 -.152E+02   0.471E-01 0.324E-02 -.259E-02
   0.829E+02 0.328E+03 -.176E+03   -.838E+02 -.364E+03 0.182E+03   0.349E+01 0.252E+02 -.725E+01   -.614E-01 0.245E-01 -.113E-01
   0.185E+03 -.160E+03 0.161E+03   -.194E+03 0.174E+03 -.172E+03   0.983E+01 -.156E+02 0.106E+02   0.473E-01 -.182E-03 -.137E-01
 -----------------------------------------------------------------------------------------------
   0.275E+02 0.218E+02 -.238E+01   0.568E-13 -.568E-12 -.853E-13   -.275E+02 -.216E+02 0.240E+01   0.210E-01 -.221E+00 -.661E-02
 
 
 POSITION                                       TOTAL-FORCE (eV/Angst)
 -----------------------------------------------------------------------------------
      1.03694      4.89559      0.87719       -13.182261      6.447418      0.935764
      2.89740      6.82850      0.94397        -0.181479      6.861225      5.329364
      3.18528      5.07983      3.02869        -2.382672     -1.464232     -0.339981
      0.70023      6.63949      3.03126         2.727666     10.425443     -4.052919
      0.99256      0.78954      4.98608        -0.865658      1.506345      6.311767
      2.73982      3.28932      4.77702        -2.218484    -38.155240     -2.622301
      3.08352      0.96274      7.05371        -3.633037      1.101723     -1.192780
      1.26117      3.28991      7.20035        -1.826349     -3.652599     -2.606803
      5.14540      4.79550      5.16480        -5.595996     -1.559439      0.557831
      6.74439      6.98551      4.88035        12.605391      0.095265      2.559735
      7.34484      5.34717      6.74295         4.618092    -12.878457     -0.874520
      4.86702      6.82014      6.96122         1.895957      2.226213      0.763592
      5.07327      1.16177      0.75130        -1.571432     -0.320160      2.122370
      7.02412      3.16668      0.92248        -2.676151     -2.208662     -1.799173
      7.04110      0.98303      3.06131        -7.914469      1.917042     -3.935394
      4.82331      3.01530      3.07188         3.087419     -2.421634     -1.663139
      6.84420      1.24882      1.00925         0.722718     -0.097078     -0.201100
      2.85486      6.78184      2.92695        -0.860225      1.114523     -0.881848
      2.73893      1.10993      0.83634         2.219748     -1.243975      1.264634
      0.63576      0.81116      3.40082         6.441567      0.300443     -5.024640
      3.04947      3.04273      3.06614        -0.450933      0.848500     -1.162672
      0.99206      3.35283      1.06953        -0.530895     -8.579286     -0.125717
      5.23494      1.06749      2.86390        -1.440407      0.484995     -1.437408
      0.97051      6.68472      0.85514        -0.290811      2.423914      1.306221
      6.68328      5.34202      5.12575         6.501730     -6.137070     -1.374811
      2.87892      2.72913      6.81202         0.959304      1.321275      0.971420
      2.92568      4.55436      4.94127         6.353072     37.637188      4.462800
      0.97152      5.09763      6.82747         4.436523     -1.760716      0.315793
      3.23568      7.12455      7.31131        -2.598328      0.024819     -4.998055
      0.59124      6.95594      4.63304         2.847451     -0.602399      6.035494
      5.03276      5.11727      6.98493        -1.501239     -3.671218     -0.485435
      1.19394      2.93135      5.15721        -4.544651     -0.830987      1.511993
      2.68468      1.09542      5.28721         1.434270     -0.823052     -1.651002
      6.55836      6.52087      6.95005        -5.095848     15.551990      3.388944
      6.85093      0.63359      4.80204         0.392007      7.408228      2.065258
      4.80362      0.99715      6.69411         1.510626     -1.099591      2.374701
      6.80258      2.82928      6.92944         1.731323      1.524120      1.649607
      4.88590      2.76207      5.02148        -0.119030      2.258359     -1.493239
      1.13971      0.77350      7.25619         0.678489      1.109616     -1.956283
      5.33081      6.69451      5.11178       -18.704633     -0.416352      1.254160
      2.45216      5.29616      1.00281        13.915400     -4.008496      1.291538
      6.58590      2.85371      2.59528         2.148290      0.521024      3.984807
      6.95612      4.89198      1.18009         1.397301      0.280305     -1.331053
      4.96576      4.85925      3.33247        -0.312186     -0.590249     -0.211180
      6.99516      6.96784      3.24433        -3.251722     -0.241605     -6.265798
      4.74625      6.90113      1.05277         0.063986      1.314896     -1.422864
      1.03268      5.18238      2.87133         2.519252    -10.830943     -1.069949
      4.94704      3.05515      1.09493         0.541316     -1.111428     -0.277730
 -----------------------------------------------------------------------------------
    total drift:                               -0.022897     -0.001688      0.011266


--------------------------------------------------------------------------------------------------------



  FREE ENERGIE OF THE ION-ELECTRON SYSTEM (eV)
  ---------------------------------------------------
  free  energy   TOTEN  =      -255.1651139939 eV

  energy  without entropy=     -255.1339274272  energy(sigma->0) =     -255.14952071
 


--------------------------------------------------------------------------------------------------------


    POTLOK:  cpu time    0.1339: real time    0.1342


--------------------------------------------------------------------------------------------------------


     LOOP+:  cpu time 4216.3168: real time 4226.5702
    4ORBIT:  cpu time    0.0000: real time    0.0000

volume of typ            1:    20.3 %

volume of typ            2:    10.4 %
 
total charge     
 
# of ion       s       p       d       tot
------------------------------------------
    1        0.409   0.647   8.011   9.067
    2        0.348   0.488   7.886   8.722
    3        0.274   0.307   7.903   8.484
    4        0.390   0.529   7.952   8.871
    5        0.303   0.375   7.883   8.560
    6        0.482   0.683   8.085   9.250
    7        0.334   0.496   7.830   8.660
    8        0.271   0.311   7.894   8.477
    9        0.305   0.393   7.895   8.592
   10        0.465   0.766   8.056   9.286
   11        0.410   0.583   8.038   9.032
   12        0.324   0.452   7.900   8.675
   13        0.243   0.261   7.823   8.327
   14        0.294   0.402   7.814   8.511
   15        0.323   0.462   7.888   8.673
   16        0.288   0.388   7.822   8.498
   17        1.292   2.686   0.007   3.985
   18        1.289   2.701   0.007   3.997
   19        1.305   2.641   0.006   3.952
   20        1.281   2.841   0.019   4.141
   21        1.285   2.741   0.010   4.037
   22        1.287   2.793   0.017   4.097
   23        1.294   2.675   0.006   3.975
   24        1.298   2.696   0.007   4.001
   25        1.283   2.860   0.021   4.164
   26        1.294   2.720   0.009   4.023
   27        1.318   2.872   0.036   4.227
   28        1.289   2.770   0.015   4.074
   29        1.272   2.850   0.016   4.138
   30        1.283   2.816   0.014   4.112
   31        1.297   2.714   0.010   4.021
   32        1.293   2.722   0.010   4.025
   33        1.287   2.726   0.009   4.022
   34        1.300   2.867   0.026   4.193
   35        1.289   2.792   0.014   4.095
   36        1.299   2.671   0.007   3.978
   37        1.310   2.578   0.003   3.890
   38        1.306   2.620   0.004   3.931
   39        1.312   2.588   0.003   3.903
   40        1.292   2.846   0.023   4.161
   41        1.289   2.877   0.027   4.193
   42        1.283   2.739   0.009   4.031
   43        1.299   2.672   0.007   3.978
   44        1.283   2.735   0.009   4.028
   45        1.292   2.792   0.015   4.099
   46        1.298   2.651   0.005   3.955
   47        1.299   2.773   0.016   4.088
   48        1.300   2.642   0.005   3.947
--------------------------------------------------
tot          46.86   95.21  127.07  269.15
 
magnetization (x)
 
# of ion       s       p       d       tot
------------------------------------------
    1        0.001   0.000   0.153   0.154
    2        0.000  -0.002   0.115   0.113
    3       -0.001   0.000   0.095   0.095
    4        0.001  -0.000   0.038   0.039
    5       -0.001  -0.001   0.056   0.054
    6        0.000  -0.002   0.177   0.175
    7       -0.002   0.001   0.072   0.072
    8       -0.001  -0.003   0.246   0.242
    9       -0.001  -0.000   0.020   0.019
   10       -0.000  -0.001  -0.011  -0.012
   11       -0.001  -0.003   0.094   0.089
   12       -0.000   0.001   0.017   0.018
   13        0.000  -0.002  -0.092  -0.094
   14       -0.001  -0.001   0.165   0.163
   15        0.000   0.001  -0.054  -0.053
   16       -0.000   0.001  -0.017  -0.016
   17       -0.002  -0.058  -0.000  -0.060
   18        0.001   0.036  -0.000   0.037
   19        0.005   0.202   0.000   0.206
   20       -0.001  -0.011   0.000  -0.012
   21        0.001   0.002   0.000   0.003
   22        0.001   0.020   0.000   0.021
   23       -0.000  -0.011   0.000  -0.011
   24        0.000   0.003  -0.000   0.003
   25        0.001   0.023   0.000   0.024
   26        0.005   0.190  -0.000   0.195
   27        0.001   0.051   0.000   0.052
   28        0.000   0.005   0.000   0.006
   29        0.000   0.029   0.000   0.029
   30       -0.001  -0.009  -0.000  -0.010
   31        0.001   0.063  -0.000   0.064
   32        0.002   0.078  -0.000   0.080
   33        0.003   0.151  -0.000   0.154
   34        0.000   0.021   0.000   0.022
   35        0.000   0.000  -0.000   0.000
   36        0.001   0.015   0.000   0.016
   37        0.011   0.593  -0.000   0.604
   38        0.003   0.143  -0.000   0.145
   39        0.005   0.234   0.000   0.238
   40       -0.000  -0.005  -0.000  -0.006
   41        0.003   0.129   0.000   0.132
   42       -0.003  -0.075   0.000  -0.078
   43        0.004   0.193  -0.000   0.196
   44        0.000   0.012  -0.000   0.012
   45       -0.000  -0.009  -0.000  -0.010
   46        0.000   0.010  -0.000   0.010
   47        0.002   0.065  -0.000   0.067
   48       -0.002  -0.062   0.000  -0.063
--------------------------------------------------
tot           0.03    2.02    1.08    3.12
 

 total amount of memory used by VASP MPI-rank0   317772. kBytes
=======================================================================

   base      :      30000. kBytes
   nonlr-proj:      24211. kBytes
   fftplans  :       4751. kBytes
   grid      :      26734. kBytes
   one-center:       1492. kBytes
   wavefun   :     230584. kBytes
 
  
  
 General timing and accounting informations for this job:
 ========================================================
  
                  Total CPU time used (sec):     4270.147
                            User time (sec):     4265.096
                          System time (sec):        5.051
                         Elapsed time (sec):     4283.962
  
                   Maximum memory used (kb):      397064.
                   Average memory used (kb):           0.
  
                          Minor page faults:        45384
                          Major page faults:           35
                 Voluntary context switches:         1182
