 vasp.5.4.4.18Apr17-6-g9f103f2a35 (build May 12 2020 04:58:55) complex          
  
 MD_VERSION_INFO: Compiled 2020-05-12T11:58:55-UTC in devlin.sd.materialsdesign.
 com:/home/medea2/data/build/wwolf/vasp-gpu5.4.4/13047/x86_64/src/src/build/std 
 from svn 13047
 
 This VASP executable licensed from Materials Design, Inc.
 
 executed on                        Lin64 date 2023.03.24  21:19:38
 running on   16 total cores
 distrk:  each k-point on   16 cores,    1 groups
 distr:  one band on NCORES_PER_BAND=   1 cores,   16 groups


--------------------------------------------------------------------------------------------------------


 INCAR:
 POTCAR:    PAW_PBE Ni 02Aug2007                  
 POTCAR:    PAW_PBE O 08Apr2002                   

 ----------------------------------------------------------------------------- 
|                                                                             |
|           W    W    AA    RRRRR   N    N  II  N    N   GGGG   !!!           |
|           W    W   A  A   R    R  NN   N  II  NN   N  G    G  !!!           |
|           W    W  A    A  R    R  N N  N  II  N N  N  G       !!!           |
|           W WW W  AAAAAA  RRRRR   N  N N  II  N  N N  G  GGG   !            |
|           WW  WW  A    A  R   R   N   NN  II  N   NN  G    G                |
|           W    W  A    A  R    R  N    N  II  N    N   GGGG   !!!           |
|                                                                             |
|      For optimal performance we recommend to set                            |
|        NCORE= 4 - approx SQRT( number of cores)                             |
|      NCORE specifies how many cores store one orbital (NPAR=cpu/NCORE).     |
|      This setting can  greatly improve the performance of VASP for DFT.     |
|      The default,   NCORE=1            might be grossly inefficient         |
|      on modern multi-core architectures or massively parallel machines.     |
|      Do your own testing !!!!                                               |
|      Unfortunately you need to use the default for GW and RPA calculations. |
|      (for HF NCORE is supported but not extensively tested yet)             |
|                                                                             |
 ----------------------------------------------------------------------------- 

 POTCAR:    PAW_PBE Ni 02Aug2007                  
  local pseudopotential read in
  partial core-charges read in
  partial kinetic energy density read in
  atomic valenz-charges read in
  non local Contribution for L=           2  read in
    real space projection operators read in
  non local Contribution for L=           2  read in
    real space projection operators read in
  non local Contribution for L=           0  read in
    real space projection operators read in
  non local Contribution for L=           0  read in
    real space projection operators read in
  non local Contribution for L=           1  read in
    real space projection operators read in
  non local Contribution for L=           1  read in
    real space projection operators read in
    PAW grid and wavefunctions read in
 
   number of l-projection  operators is LMAX  =           6
   number of lm-projection operators is LMMAX =          18
 
 POTCAR:    PAW_PBE O 08Apr2002                   
  local pseudopotential read in
  partial core-charges read in
  partial kinetic energy density read in
  kinetic energy density of atom read in
  atomic valenz-charges read in
  non local Contribution for L=           0  read in
    real space projection operators read in
  non local Contribution for L=           0  read in
    real space projection operators read in
  non local Contribution for L=           1  read in
    real space projection operators read in
  non local Contribution for L=           1  read in
    real space projection operators read in
    PAW grid and wavefunctions read in
 
   number of l-projection  operators is LMAX  =           4
   number of lm-projection operators is LMMAX =           8
 
 Optimization of the real space projectors (new method)

 maximal supplied QI-value         = 16.25
 optimisation between [QCUT,QGAM] = [ 11.38, 22.75] = [ 36.24,144.96] Ry 
 Optimized for a Real-space Cutoff    1.47 Angstroem

   l    n(q)    QCUT    max X(q) W(low)/X(q) W(high)/X(q)  e(spline) 
   2      9    11.376    60.317    0.17E-03    0.16E-04    0.16E-06
   2      9    11.376    55.921    0.17E-03    0.16E-04    0.17E-06
   0     10    11.376    51.690    0.45E-04    0.60E-04    0.21E-06
   0     10    11.376    30.015    0.37E-04    0.55E-04    0.19E-06
   1     10    11.376    18.849    0.83E-04    0.11E-03    0.92E-07
   1     10    11.376    14.624    0.69E-04    0.92E-04    0.82E-07
 Optimization of the real space projectors (new method)

 maximal supplied QI-value         = 24.76
 optimisation between [QCUT,QGAM] = [ 11.39, 22.77] = [ 36.31,145.25] Ry 
 Optimized for a Real-space Cutoff    1.10 Angstroem

   l    n(q)    QCUT    max X(q) W(low)/X(q) W(high)/X(q)  e(spline) 
   0      7    11.387    20.381    0.22E-03    0.48E-03    0.18E-06
   0      7    11.387    15.268    0.22E-03    0.52E-03    0.19E-06
   1      7    11.387     5.964    0.22E-03    0.73E-03    0.24E-06
   1      7    11.387     5.382    0.19E-03    0.60E-03    0.21E-06

 ----------------------------------------------------------------------------- 
|                                                                             |
|  ADVICE TO THIS USER RUNNING 'VASP/VAMP'   (HEAR YOUR MASTER'S VOICE ...):  |
|                                                                             |
|      You enforced a specific xc-type in the INCAR file,                     |
|      a different type was found on the POTCAR file                          |
|          I HOPE YOU KNOW, WHAT YOU ARE  DOING                               |
|                                                                             |
 ----------------------------------------------------------------------------- 

  PAW_PBE Ni 02Aug2007                  :
 energy of atom  1       EATOM=-1077.6739
 kinetic energy error for atom=    0.0030 (will be added to EATOM!!)
  PAW_PBE O 08Apr2002                   :
 energy of atom  2       EATOM= -432.3788
 kinetic energy error for atom=    0.0224 (will be added to EATOM!!)
 
 
 POSCAR: NiO2_Fd-3m_scale_0_975_disp_0_05_round_1
  positions in direct lattice
  No initial velocities read in
 exchange correlation table for  LEXCH =       14
   RHO(1)=    0.500       N(1)  =     2000
   RHO(2)=  100.500       N(2)  =     4000
 


--------------------------------------------------------------------------------------------------------


 ion  position               nearest neighbor table
   1  0.129  0.648  0.116-  28 1.59  43 1.71  41 1.78  24 1.85  22 1.94  47 1.99  11 2.41   8 2.64
                             2 2.65  14 2.77   4 2.87   3 2.96
   2  0.376  0.883  0.144-  18 1.69  41 1.71  29 1.79  24 1.81  19 1.86  46 2.03   3 2.60   7 2.64
                             1 2.65   4 2.71  13 2.78  12 2.83
   3  0.396  0.655  0.390-  18 1.81  44 1.82  41 1.86  27 1.86  21 1.89  47 1.98   2 2.60   9 2.69
                             4 2.72  16 2.78   6 2.82   1 2.96
   4  0.135  0.890  0.397-  30 1.75  18 1.76  20 1.77  45 1.81  47 1.82  24 1.90  10 2.57  15 2.60
                             5 2.61   2 2.71   3 2.72   1 2.87
   5  0.121  0.124  0.639-  35 1.63  30 1.65  20 1.80  39 1.88  33 1.96  32 2.05  10 2.42   4 2.61
                            15 2.62   8 2.85   6 2.87   7 2.91
   6  0.380  0.390  0.640-  33 1.80  21 1.85  32 1.86  27 1.88  26 1.91  38 1.94   9 2.73  16 2.81
                             3 2.82   8 2.83   5 2.87   7 2.90
   7  0.384  0.127  0.906-  19 1.58  29 1.65  39 1.92  36 1.94  33 1.97  26 1.97  13 2.63   2 2.64
                            12 2.68   8 2.83   6 2.90   5 2.91
   8  0.124  0.383  0.900-  37 1.60  22 1.68  39 1.81  32 1.84  26 1.85  28 1.90  14 2.51  11 2.60
                             1 2.64   6 2.83   7 2.83   5 2.85
   9  0.630  0.638  0.644-  31 1.75  38 1.77  27 1.83  40 1.88  25 1.97  44 1.98   3 2.69  16 2.72
                             6 2.73  12 2.79  11 2.90  10 2.93
  10  0.905  0.898  0.637-  30 1.56  35 1.65  25 1.88  45 1.92  34 1.93  40 1.97   5 2.42   4 2.57
                            15 2.65  11 2.85  12 2.85   9 2.93
  11  0.907  0.640  0.898-  28 1.56  43 1.62  37 1.74  25 1.87  31 1.93  34 1.94   1 2.41   8 2.60
                            14 2.70  10 2.85  12 2.86   9 2.90
  12  0.642  0.897  0.894-  36 1.62  46 1.66  34 1.86  29 1.88  40 1.92  31 1.95  13 2.49   7 2.68
                             9 2.79   2 2.83  10 2.85  11 2.86
  13  0.644  0.121  0.125-  46 1.60  36 1.69  17 1.71  19 1.82  48 2.01  23 2.02  12 2.49   7 2.63
                             2 2.78  14 2.79  15 2.81  16 2.96
  14  0.895  0.379  0.129-  22 1.74  17 1.79  37 1.80  43 1.84  48 1.85  42 1.90   8 2.51  11 2.70
                            15 2.76   1 2.77  13 2.79  16 2.81
  15  0.898  0.129  0.384-  20 1.60  45 1.63  42 1.86  35 1.89  23 1.89  17 1.98   4 2.60   5 2.62
                            10 2.65  14 2.76  13 2.81  16 2.85
  16  0.645  0.396  0.391-  44 1.77  38 1.82  42 1.87  48 1.88  21 1.90  23 2.05   9 2.72   3 2.78
                            14 2.81   6 2.81  15 2.85  13 2.96
  17  0.863  0.150  0.131-  13 1.71  14 1.79  15 1.98
  18  0.359  0.884  0.361-   2 1.69   4 1.76   3 1.81
  19  0.409  0.118  0.108-   7 1.58  13 1.82   2 1.86
  20  0.103  0.116  0.407-  15 1.60   4 1.77   5 1.80
  21  0.400  0.411  0.403-   6 1.85   3 1.89  16 1.90
  22  0.119  0.397  0.116-   8 1.68  14 1.74   1 1.94
  23  0.654  0.131  0.386-  15 1.89  13 2.02  16 2.05
  24  0.142  0.884  0.151-   2 1.81   1 1.85   4 1.90
  25  0.884  0.657  0.658-  11 1.87  10 1.88   9 1.97
  26  0.363  0.380  0.885-   8 1.85   6 1.91   7 1.97
  27  0.395  0.632  0.629-   9 1.83   3 1.86   6 1.88
  28  0.107  0.627  0.912-  11 1.56   1 1.59   8 1.90
  29  0.401  0.914  0.917-   7 1.65   2 1.79  12 1.88
  30  0.106  0.912  0.621-  10 1.56   5 1.65   4 1.75
  31  0.659  0.647  0.869-   9 1.75  11 1.93  12 1.95
  32  0.140  0.386  0.663-   8 1.84   6 1.86   5 2.05
  33  0.371  0.159  0.654-   6 1.80   5 1.96   7 1.97
  34  0.882  0.888  0.885-  12 1.86  10 1.93  11 1.94
  35  0.912  0.111  0.626-   5 1.63  10 1.65  15 1.89
  36  0.633  0.105  0.908-  12 1.62  13 1.69   7 1.94
  37  0.921  0.416  0.900-   8 1.60  11 1.74  14 1.80
  38  0.629  0.410  0.625-   9 1.77  16 1.82   6 1.94
  39  0.139  0.151  0.879-   8 1.81   5 1.88   7 1.92
  40  0.651  0.879  0.647-   9 1.88  12 1.92  10 1.97
  41  0.355  0.663  0.154-   2 1.71   1 1.78   3 1.86
  42  0.884  0.369  0.373-  15 1.86  16 1.87  14 1.90
  43  0.911  0.615  0.106-  11 1.62   1 1.71  14 1.84
  44  0.629  0.624  0.389-  16 1.77   3 1.82   9 1.98
  45  0.903  0.918  0.389-  15 1.63   4 1.81  10 1.92
  46  0.634  0.915  0.107-  13 1.60  12 1.66   2 2.03
  47  0.141  0.657  0.372-   4 1.82   3 1.98   1 1.99
  48  0.657  0.379  0.149-  14 1.85  16 1.88  13 2.01
 
  LATTYP: Found a simple cubic cell.
 ALAT       =     7.7433427500
  
  Lattice vectors:
  
 A1 = (   7.7433427500,   0.0000000000,   0.0000000000)
 A2 = (   0.0000000000,   7.7433427500,   0.0000000000)
 A3 = (   0.0000000000,   0.0000000000,   7.7433427500)


Analysis of symmetry for initial positions (statically):
=====================================================================
 Subroutine PRICEL returns:
 Original cell was already a primitive cell.
 

 Routine SETGRP: Setting up the symmetry group for a 
 simple cubic supercell.


 Subroutine GETGRP returns: Found  1 space group operations
 (whereof  1 operations were pure point group operations)
 out of a pool of 48 trial point group operations.


The static configuration has the point symmetry C_1 .


Analysis of symmetry for dynamics (positions and initial velocities):
=====================================================================
 Subroutine PRICEL returns:
 Original cell was already a primitive cell.
 

 Routine SETGRP: Setting up the symmetry group for a 
 simple cubic supercell.


 Subroutine GETGRP returns: Found  1 space group operations
 (whereof  1 operations were pure point group operations)
 out of a pool of 48 trial point group operations.


The dynamic configuration has the point symmetry C_1 .


Analysis of structural, dynamic, and magnetic symmetry:
=====================================================================
 Subroutine PRICEL returns:
 Original cell was already a primitive cell.
 

 Routine SETGRP: Setting up the symmetry group for a 
 simple cubic supercell.


 Subroutine GETGRP returns: Found  1 space group operations
 (whereof  1 operations were pure point group operations)
 out of a pool of 48 trial point group operations.


The magnetic configuration has the point symmetry C_1 .


 Subroutine INISYM returns: Found  1 space group operations
 (whereof  1 operations are pure point group operations),
 and found     1 'primitive' translations

 
 
 KPOINTS: Automatic mesh                          

Automatic generation of k-mesh.
Space group operators:
 irot       det(A)        alpha          n_x          n_y          n_z        tau_x        tau_y        tau_z
    1     1.000000     0.000000     1.000000     0.000000     0.000000     0.000000     0.000000     0.000000
 
 Subroutine IBZKPT returns following result:
 ===========================================
 
 Found     36 irreducible k-points:
 
 Following reciprocal coordinates:
            Coordinates               Weight
  0.000000  0.000000  0.000000      1.000000
  0.250000  0.000000  0.000000      2.000000
  0.500000  0.000000  0.000000      1.000000
  0.000000  0.250000  0.000000      2.000000
  0.250000  0.250000  0.000000      2.000000
  0.500000  0.250000  0.000000      2.000000
 -0.250000  0.250000  0.000000      2.000000
  0.000000  0.500000  0.000000      1.000000
  0.250000  0.500000  0.000000      2.000000
  0.500000  0.500000  0.000000      1.000000
  0.000000  0.000000  0.250000      2.000000
  0.250000  0.000000  0.250000      2.000000
  0.500000  0.000000  0.250000      2.000000
 -0.250000  0.000000  0.250000      2.000000
  0.000000  0.250000  0.250000      2.000000
  0.250000  0.250000  0.250000      2.000000
  0.500000  0.250000  0.250000      2.000000
 -0.250000  0.250000  0.250000      2.000000
  0.000000  0.500000  0.250000      2.000000
  0.250000  0.500000  0.250000      2.000000
  0.500000  0.500000  0.250000      2.000000
 -0.250000  0.500000  0.250000      2.000000
  0.000000 -0.250000  0.250000      2.000000
  0.250000 -0.250000  0.250000      2.000000
  0.500000 -0.250000  0.250000      2.000000
 -0.250000 -0.250000  0.250000      2.000000
  0.000000  0.000000  0.500000      1.000000
  0.250000  0.000000  0.500000      2.000000
  0.500000  0.000000  0.500000      1.000000
  0.000000  0.250000  0.500000      2.000000
  0.250000  0.250000  0.500000      2.000000
  0.500000  0.250000  0.500000      2.000000
 -0.250000  0.250000  0.500000      2.000000
  0.000000  0.500000  0.500000      1.000000
  0.250000  0.500000  0.500000      2.000000
  0.500000  0.500000  0.500000      1.000000
 
 Following cartesian coordinates:
            Coordinates               Weight
  0.000000  0.000000  0.000000      1.000000
  0.032286  0.000000  0.000000      2.000000
  0.064572  0.000000  0.000000      1.000000
  0.000000  0.032286  0.000000      2.000000
  0.032286  0.032286  0.000000      2.000000
  0.064572  0.032286  0.000000      2.000000
 -0.032286  0.032286  0.000000      2.000000
  0.000000  0.064572  0.000000      1.000000
  0.032286  0.064572  0.000000      2.000000
  0.064572  0.064572  0.000000      1.000000
  0.000000  0.000000  0.032286      2.000000
  0.032286  0.000000  0.032286      2.000000
  0.064572  0.000000  0.032286      2.000000
 -0.032286  0.000000  0.032286      2.000000
  0.000000  0.032286  0.032286      2.000000
  0.032286  0.032286  0.032286      2.000000
  0.064572  0.032286  0.032286      2.000000
 -0.032286  0.032286  0.032286      2.000000
  0.000000  0.064572  0.032286      2.000000
  0.032286  0.064572  0.032286      2.000000
  0.064572  0.064572  0.032286      2.000000
 -0.032286  0.064572  0.032286      2.000000
  0.000000 -0.032286  0.032286      2.000000
  0.032286 -0.032286  0.032286      2.000000
  0.064572 -0.032286  0.032286      2.000000
 -0.032286 -0.032286  0.032286      2.000000
  0.000000  0.000000  0.064572      1.000000
  0.032286  0.000000  0.064572      2.000000
  0.064572  0.000000  0.064572      1.000000
  0.000000  0.032286  0.064572      2.000000
  0.032286  0.032286  0.064572      2.000000
  0.064572  0.032286  0.064572      2.000000
 -0.032286  0.032286  0.064572      2.000000
  0.000000  0.064572  0.064572      1.000000
  0.032286  0.064572  0.064572      2.000000
  0.064572  0.064572  0.064572      1.000000
 


--------------------------------------------------------------------------------------------------------




 Dimension of arrays:
   k-points           NKPTS =     36   k-points in BZ     NKDIM =     36   number of bands    NBANDS=    240
   number of dos      NEDOS =    301   number of ions     NIONS =     48
   non local maximal  LDIM  =      6   non local SUM 2l+1 LMDIM =     18
   total plane-waves  NPLWV = 175616
   max r-space proj   IRMAX =   5128   max aug-charges    IRDMAX=  12459
   dimension x,y,z NGX =    56 NGY =   56 NGZ =   56
   dimension x,y,z NGXF=   112 NGYF=  112 NGZF=  112
   support grid    NGXF=   112 NGYF=  112 NGZF=  112
   ions per type =              16  32
   NGX,Y,Z   is equivalent  to a cutoff of  12.02, 12.02, 12.02 a.u.
   NGXF,Y,Z  is equivalent  to a cutoff of  24.05, 24.05, 24.05 a.u.

 SYSTEM =  unknown system                          
 POSCAR =  NiO2_Fd-3m_scale_0_975_disp_0_05_round_1

 Startparameter for this run:
   NWRITE =      1    write-flag & timer
   PREC   = accura    normal or accurate (medium, high low for compatibility)
   ISTART =      0    job   : 0-new  1-cont  2-samecut
   ICHARG =      2    charge: 1-file 2-atom 10-const
   ISPIN  =      2    spin polarized calculation?
   LNONCOLLINEAR =      F non collinear calculations
   LSORBIT =      F    spin-orbit coupling
   INIWAV =      1    electr: 0-lowe 1-rand  2-diag
   LASPH  =      F    aspherical Exc in radial PAW
   METAGGA=      F    non-selfconsistent MetaGGA calc.

 Electronic Relaxation 1
   ENCUT  =  500.0 eV  36.75 Ry    6.06 a.u.  14.12 14.12 14.12*2*pi/ulx,y,z
   ENINI  =  500.0     initial cutoff
   ENAUG  =  605.4 eV  augmentation charge cutoff
   NELM   =     80;   NELMIN=  2; NELMDL= -5     # of ELM steps 
   EDIFF  = 0.1E-04   stopping-criterion for ELM
   LREAL  =      T    real-space projection
   NLSPLINE    = F    spline interpolate recip. space projectors
   LCOMPAT=      F    compatible to vasp.4.4
   GGA_COMPAT  = T    GGA compatible to vasp.4.4-vasp.4.6
   LMAXPAW     = -100 max onsite density
   LMAXMIX     =    2 max onsite mixed and CHGCAR
   VOSKOWN=      1    Vosko Wilk Nusair interpolation
   ROPT   =   -0.00025  -0.00025
 Ionic relaxation
   EDIFFG = 0.1E-03   stopping-criterion for IOM
   NSW    =      0    number of steps for IOM
   NBLOCK =      1;   KBLOCK =      1    inner block; outer block 
   IBRION =     -1    ionic relax: 0-MD 1-quasi-New 2-CG
   NFREE  =      0    steps in history (QN), initial steepest desc. (CG)
   ISIF   =      2    stress and relaxation
   IWAVPR =     10    prediction:  0-non 1-charg 2-wave 3-comb
   ISYM   =      2    0-nonsym 1-usesym 2-fastsym
   LCORR  =      T    Harris-Foulkes like correction to forces

   POTIM  = 0.5000    time-step for ionic-motion
   TEIN   =    0.0    initial temperature
   TEBEG  =    0.0;   TEEND  =   0.0 temperature during run
   SMASS  =  -3.00    Nose mass-parameter (am)
   estimated Nose-frequenzy (Omega)   =  0.10E-29 period in steps =****** mass=  -0.137E-26a.u.
   SCALEE = 1.0000    scale energy and forces
   NPACO  =    256;   APACO  = 16.0  distance and # of slots for P.C.
   PSTRESS=    0.0 pullay stress

  Mass of Ions in am
   POMASS =  58.69 16.00
  Ionic Valenz
   ZVAL   =  10.00  6.00
  Atomic Wigner-Seitz radii
   RWIGS  =   1.15  0.73
  virtual crystal weights 
   VCA    =   1.00  1.00
   NELECT =     352.0000    total number of electrons
   NUPDOWN=      -1.0000    fix difference up-down

 DOS related values:
   EMIN   =  10.00;   EMAX   =-10.00  energy-range for DOS
   EFERMI =   0.00
   ISMEAR =     0;   SIGMA  =   0.05  broadening in eV -4-tet -1-fermi 0-gaus

 Electronic relaxation 2 (details)
   IALGO  =     38    algorithm
   LDIAG  =      T    sub-space diagonalisation (order eigenvalues)
   LSUBROT=      F    optimize rotation matrix (better conditioning)
   TURBO    =      0    0=normal 1=particle mesh
   IRESTART =      0    0=no restart 2=restart with 2 vectors
   NREBOOT  =      0    no. of reboots
   NMIN     =      0    reboot dimension
   EREF     =   0.00    reference energy to select bands
   IMIX   =      4    mixing-type and parameters
     AMIX     =   0.40;   BMIX     =  1.00
     AMIX_MAG =   1.60;   BMIX_MAG =  1.00
     AMIN     =   0.10
     WC   =   100.;   INIMIX=   1;  MIXPRE=   1;  MAXMIX= -45

 Intra band minimization:
   WEIMIN = 0.0000     energy-eigenvalue tresh-hold
   EBREAK =  0.10E-07  absolut break condition
   DEPER  =   0.30     relativ break condition  

   TIME   =   0.40     timestep for ELM

  volume/ion in A,a.u.               =       9.67        65.27
  Fermi-wavevector in a.u.,A,eV,Ry     =   1.492773  2.820933 30.318849  2.228373
  Thomas-Fermi vector in A             =   2.605259
 
 Write flags
   LWAVE        =      F    write WAVECAR
   LDOWNSAMPLE  =      F    k-point downsampling of WAVECAR
   LCHARG       =      T    write CHGCAR
   LVTOT        =      F    write LOCPOT, total local potential
   LVHAR        =      F    write LOCPOT, Hartree potential only
   LELF         =      F    write electronic localiz. function (ELF)
   LORBIT       =      0    0 simple, 1 ext, 2 COOP (PROOUT), +10 PAW based schemes


 Dipole corrections
   LMONO  =      F    monopole corrections only (constant potential shift)
   LDIPOL =      F    correct potential (dipole corrections)
   IDIPOL =      0    1-x, 2-y, 3-z, 4-all directions 
   EPSILON=  1.0000000 bulk dielectric constant

 Exchange correlation treatment:
   GGA     =    PS    GGA type
   LEXCH   =    14    internal setting for exchange type
   VOSKOWN=      1    Vosko Wilk Nusair interpolation
   LHFCALC =     F    Hartree Fock is set to
   LHFONE  =     F    Hartree Fock one center treatment
   AEXX    =    0.0000 exact exchange contribution

 Linear response parameters
   LEPSILON=     F    determine dielectric tensor
   LRPA    =     F    only Hartree local field effects (RPA)
   LNABLA  =     F    use nabla operator in PAW spheres
   LVEL    =     F    velocity operator in full k-point grid
   LINTERFAST=   F  fast interpolation
   KINTER  =     0    interpolate to denser k-point grid
   CSHIFT  =0.1000    complex shift for real part using Kramers Kronig
   OMEGAMAX=  -1.0    maximum frequency
   DEG_THRESHOLD= 0.2000000E-02 threshold for treating states as degnerate
   RTIME   =   -0.100 relaxation time in fs
  (WPLASMAI=    0.000 imaginary part of plasma frequency in eV, 0.658/RTIME)
   DFIELD  = 0.0000000 0.0000000 0.0000000 field for delta impulse in time
 
 Orbital magnetization related:
   ORBITALMAG=     F  switch on orbital magnetization
   LCHIMAG   =     F  perturbation theory with respect to B field
   DQ        =  0.001000  dq finite difference perturbation B field
   LLRAUG    =     F  two centre corrections for induced B field



--------------------------------------------------------------------------------------------------------


 Static calculation
 charge density and potential will be updated during run
 spin polarized calculation
 Variant of blocked Davidson
 Davidson routine will perform the subspace rotation
 perform sub-space diagonalisation
    after iterative eigenvector-optimisation
 modified Broyden-mixing scheme, WC =      100.0
 initial mixing is a Kerker type mixing with AMIX =  0.4000 and BMIX =      1.0000
 Hartree-type preconditioning will be used
 using additional bands           64
 real space projection scheme for non local part
 use partial core corrections
 calculate Harris-corrections to forces 
   (improved forces if not selfconsistent)
 use gradient corrections 
 use of overlap-Matrix (Vanderbilt PP)
 Gauss-broadening in eV      SIGMA  =   0.05


--------------------------------------------------------------------------------------------------------


  energy-cutoff  :      500.00
  volume of cell :      464.29
      direct lattice vectors                 reciprocal lattice vectors
     7.743342750  0.000000000  0.000000000     0.129143192  0.000000000  0.000000000
     0.000000000  7.743342750  0.000000000     0.000000000  0.129143192  0.000000000
     0.000000000  0.000000000  7.743342750     0.000000000  0.000000000  0.129143192

  length of vectors
     7.743342750  7.743342750  7.743342750     0.129143192  0.129143192  0.129143192


 
 k-points in units of 2pi/SCALE and weight: Automatic mesh                          
   0.00000000  0.00000000  0.00000000       0.016
   0.03228580  0.00000000  0.00000000       0.031
   0.06457160  0.00000000  0.00000000       0.016
   0.00000000  0.03228580  0.00000000       0.031
   0.03228580  0.03228580  0.00000000       0.031
   0.06457160  0.03228580  0.00000000       0.031
  -0.03228580  0.03228580  0.00000000       0.031
   0.00000000  0.06457160  0.00000000       0.016
   0.03228580  0.06457160  0.00000000       0.031
   0.06457160  0.06457160  0.00000000       0.016
   0.00000000  0.00000000  0.03228580       0.031
   0.03228580  0.00000000  0.03228580       0.031
   0.06457160  0.00000000  0.03228580       0.031
  -0.03228580  0.00000000  0.03228580       0.031
   0.00000000  0.03228580  0.03228580       0.031
   0.03228580  0.03228580  0.03228580       0.031
   0.06457160  0.03228580  0.03228580       0.031
  -0.03228580  0.03228580  0.03228580       0.031
   0.00000000  0.06457160  0.03228580       0.031
   0.03228580  0.06457160  0.03228580       0.031
   0.06457160  0.06457160  0.03228580       0.031
  -0.03228580  0.06457160  0.03228580       0.031
   0.00000000 -0.03228580  0.03228580       0.031
   0.03228580 -0.03228580  0.03228580       0.031
   0.06457160 -0.03228580  0.03228580       0.031
  -0.03228580 -0.03228580  0.03228580       0.031
   0.00000000  0.00000000  0.06457160       0.016
   0.03228580  0.00000000  0.06457160       0.031
   0.06457160  0.00000000  0.06457160       0.016
   0.00000000  0.03228580  0.06457160       0.031
   0.03228580  0.03228580  0.06457160       0.031
   0.06457160  0.03228580  0.06457160       0.031
  -0.03228580  0.03228580  0.06457160       0.031
   0.00000000  0.06457160  0.06457160       0.016
   0.03228580  0.06457160  0.06457160       0.031
   0.06457160  0.06457160  0.06457160       0.016
 
 k-points in reciprocal lattice and weights: Automatic mesh                          
   0.00000000  0.00000000  0.00000000       0.016
   0.25000000  0.00000000  0.00000000       0.031
   0.50000000  0.00000000  0.00000000       0.016
   0.00000000  0.25000000  0.00000000       0.031
   0.25000000  0.25000000  0.00000000       0.031
   0.50000000  0.25000000  0.00000000       0.031
  -0.25000000  0.25000000  0.00000000       0.031
   0.00000000  0.50000000  0.00000000       0.016
   0.25000000  0.50000000  0.00000000       0.031
   0.50000000  0.50000000  0.00000000       0.016
   0.00000000  0.00000000  0.25000000       0.031
   0.25000000  0.00000000  0.25000000       0.031
   0.50000000  0.00000000  0.25000000       0.031
  -0.25000000  0.00000000  0.25000000       0.031
   0.00000000  0.25000000  0.25000000       0.031
   0.25000000  0.25000000  0.25000000       0.031
   0.50000000  0.25000000  0.25000000       0.031
  -0.25000000  0.25000000  0.25000000       0.031
   0.00000000  0.50000000  0.25000000       0.031
   0.25000000  0.50000000  0.25000000       0.031
   0.50000000  0.50000000  0.25000000       0.031
  -0.25000000  0.50000000  0.25000000       0.031
   0.00000000 -0.25000000  0.25000000       0.031
   0.25000000 -0.25000000  0.25000000       0.031
   0.50000000 -0.25000000  0.25000000       0.031
  -0.25000000 -0.25000000  0.25000000       0.031
   0.00000000  0.00000000  0.50000000       0.016
   0.25000000  0.00000000  0.50000000       0.031
   0.50000000  0.00000000  0.50000000       0.016
   0.00000000  0.25000000  0.50000000       0.031
   0.25000000  0.25000000  0.50000000       0.031
   0.50000000  0.25000000  0.50000000       0.031
  -0.25000000  0.25000000  0.50000000       0.031
   0.00000000  0.50000000  0.50000000       0.016
   0.25000000  0.50000000  0.50000000       0.031
   0.50000000  0.50000000  0.50000000       0.016
 
 position of ions in fractional coordinates (direct lattice) 
   0.12879405  0.64807223  0.11563323
   0.37566350  0.88260708  0.14376581
   0.39577230  0.65526081  0.38974771
   0.13451004  0.88979432  0.39698965
   0.12095163  0.12391735  0.63858252
   0.37950380  0.39016562  0.63953540
   0.38419140  0.12685793  0.90613284
   0.12428594  0.38349024  0.90017407
   0.63039722  0.63790334  0.64448324
   0.90496585  0.89847991  0.63668104
   0.90675051  0.63959551  0.89763778
   0.64220039  0.89702956  0.89393890
   0.64408968  0.12068518  0.12497068
   0.89479775  0.37858215  0.12875082
   0.89836373  0.12869296  0.38361036
   0.64458257  0.39560566  0.39111189
   0.86261886  0.15013764  0.13070589
   0.35855301  0.88368652  0.36131729
   0.40922396  0.11813119  0.10839104
   0.10302004  0.11576589  0.40709948
   0.39981074  0.41130864  0.40263645
   0.11878591  0.39721337  0.11607141
   0.65413760  0.13060293  0.38600642
   0.14183121  0.88360830  0.15137029
   0.88356921  0.65699138  0.65837057
   0.36260712  0.37988660  0.88518958
   0.39524511  0.63245803  0.62875334
   0.10748252  0.62743230  0.91201436
   0.40135304  0.91443040  0.91661948
   0.10587692  0.91201917  0.62050127
   0.65880422  0.64700122  0.86871668
   0.13996370  0.38647506  0.66302626
   0.37058630  0.15883359  0.65434502
   0.88165913  0.88837507  0.88484633
   0.91154378  0.11060335  0.62602873
   0.63324816  0.10517426  0.90769218
   0.92067172  0.41553512  0.90012554
   0.62906670  0.40972977  0.62501302
   0.13904855  0.15080041  0.87928769
   0.65093348  0.87917095  0.64662453
   0.35457475  0.66305167  0.15367979
   0.88430656  0.36873916  0.37326731
   0.91083933  0.61515245  0.10581491
   0.62919068  0.62394073  0.38913894
   0.90271705  0.91813763  0.38933268
   0.63379223  0.91513892  0.10716175
   0.14072317  0.65662105  0.37237116
   0.65724954  0.37924931  0.14876689
 
 position of ions in cartesian coordinates  (Angst):
   0.99729647  5.01824540  0.89538773
   2.90889124  6.83432913  1.11322794
   3.06460057  5.07390904  3.01795010
   1.04155734  6.88998240  3.07402693
   0.93656993  0.95953451  4.94476333
   2.93862800  3.02118612  4.95214180
   2.97492569  0.98230443  7.01649716
   0.96238863  2.96949637  6.97035636
   4.88138174  4.93950420  4.99045462
   7.00746075  6.95723790  4.93003952
   7.02127999  4.95260726  6.95071700
   4.97277773  6.94600734  6.92207530
   4.98740715  0.93450671  0.96769081
   6.92872567  2.93149135  0.99696173
   6.95633828  0.99651370  2.97042650
   4.99122377  3.06331022  3.02851342
   6.67955350  1.16256721  1.01210051
   2.77639885  6.84268761  2.79780362
   3.16876138  0.91473029  0.83930897
   0.79771948  0.89641497  3.15231081
   3.09587159  3.18490378  3.11775204
   0.91980002  3.07575927  0.89878071
   5.06521164  1.01130325  2.98898001
   1.09824767  6.84208192  1.17211204
   6.84177924  5.08730944  5.09798898
   2.80779121  2.94159215  6.85432632
   3.06051836  4.89733930  4.86865262
   0.83227399  4.85842335  7.06203978
   3.10781415  7.08074801  7.09769880
   0.81984128  7.06207703  4.80475401
   5.10134688  5.00995221  6.72677101
   1.08378690  2.99260885  5.13403958
   2.86957674  1.22990293  5.06681777
   6.82698883  6.87899266  6.85166841
   7.05839592  0.85643965  4.84755503
   4.90345755  0.81440034  7.02857166
   7.12907669  3.21763086  6.96998057
   4.87107907  3.17267804  4.83969004
   1.07670058  1.16769926  6.80862596
   5.04040104  6.80772200  5.00703537
   2.74559382  5.13423634  1.18999529
   6.84748879  2.85527370  2.89033672
   7.05294112  4.76333626  0.81936112
   4.87203909  4.83138693  3.01323619
   6.99004752  7.10945436  3.01473639
   4.90767047  7.08623432  0.82979016
   1.08966774  5.08444185  2.88339752
   5.08930846  2.93665740  1.15195302
 


--------------------------------------------------------------------------------------------------------


 k-point  1 :   0.0000 0.0000 0.0000  plane waves:   11753
 k-point  2 :   0.2500 0.0000 0.0000  plane waves:   11788
 k-point  3 :   0.5000 0.0000 0.0000  plane waves:   11804
 k-point  4 :   0.0000 0.2500 0.0000  plane waves:   11788
 k-point  5 :   0.2500 0.2500 0.0000  plane waves:   11786
 k-point  6 :   0.5000 0.2500 0.0000  plane waves:   11826
 k-point  7 :  -0.2500 0.2500 0.0000  plane waves:   11786
 k-point  8 :   0.0000 0.5000 0.0000  plane waves:   11804
 k-point  9 :   0.2500 0.5000 0.0000  plane waves:   11826
 k-point 10 :   0.5000 0.5000 0.0000  plane waves:   11808
 k-point 11 :   0.0000 0.0000 0.2500  plane waves:   11788
 k-point 12 :   0.2500 0.0000 0.2500  plane waves:   11786
 k-point 13 :   0.5000 0.0000 0.2500  plane waves:   11826
 k-point 14 :  -0.2500 0.0000 0.2500  plane waves:   11786
 k-point 15 :   0.0000 0.2500 0.2500  plane waves:   11786
 k-point 16 :   0.2500 0.2500 0.2500  plane waves:   11785
 k-point 17 :   0.5000 0.2500 0.2500  plane waves:   11784
 k-point 18 :  -0.2500 0.2500 0.2500  plane waves:   11785
 k-point 19 :   0.0000 0.5000 0.2500  plane waves:   11826
 k-point 20 :   0.2500 0.5000 0.2500  plane waves:   11784
 k-point 21 :   0.5000 0.5000 0.2500  plane waves:   11816
 k-point 22 :  -0.2500 0.5000 0.2500  plane waves:   11784
 k-point 23 :   0.0000-0.2500 0.2500  plane waves:   11786
 k-point 24 :   0.2500-0.2500 0.2500  plane waves:   11785
 k-point 25 :   0.5000-0.2500 0.2500  plane waves:   11784
 k-point 26 :  -0.2500-0.2500 0.2500  plane waves:   11785
 k-point 27 :   0.0000 0.0000 0.5000  plane waves:   11804
 k-point 28 :   0.2500 0.0000 0.5000  plane waves:   11826
 k-point 29 :   0.5000 0.0000 0.5000  plane waves:   11808
 k-point 30 :   0.0000 0.2500 0.5000  plane waves:   11826
 k-point 31 :   0.2500 0.2500 0.5000  plane waves:   11784
 k-point 32 :   0.5000 0.2500 0.5000  plane waves:   11816
 k-point 33 :  -0.2500 0.2500 0.5000  plane waves:   11784
 k-point 34 :   0.0000 0.5000 0.5000  plane waves:   11808
 k-point 35 :   0.2500 0.5000 0.5000  plane waves:   11816
 k-point 36 :   0.5000 0.5000 0.5000  plane waves:   11752

 maximum and minimum number of plane-waves per node :     11826    11752

 maximum number of plane-waves:     11826
 maximum index in each direction: 
   IXMAX=   14   IYMAX=   14   IZMAX=   14
   IXMIN=  -14   IYMIN=  -14   IZMIN=  -14

 The following grids will avoid any aliasing or wrap around errors in the Hartre
 e energy
  - symmetry arguments have not been applied
  - exchange correlation energies might require even more grid points
  - we recommend to set PREC=Normal or Accurate and rely on VASP defaults
 WARNING: aliasing errors must be expected set NGX to    60 to avoid them
 WARNING: aliasing errors must be expected set NGY to    60 to avoid them
 WARNING: aliasing errors must be expected set NGZ to    60 to avoid them

 serial   3D FFT for wavefunctions
 parallel 3D FFT for charge:
    minimum data exchange during FFTs selected (reduces bandwidth)


 total amount of memory used by VASP MPI-rank0   291720. kBytes
=======================================================================

   base      :      30000. kBytes
   nonlr-proj:      21233. kBytes
   fftplans  :       3726. kBytes
   grid      :      21274. kBytes
   one-center:       1492. kBytes
   wavefun   :     213995. kBytes
 
     INWAV:  cpu time    0.0000: real time    0.0000
 Broyden mixing: mesh for mixing (old mesh)
   NGX = 29   NGY = 29   NGZ = 29
  (NGX  =112   NGY  =112   NGZ  =112)
  gives a total of  24389 points

 initial charge density was supplied:
 charge density of overlapping atoms calculated
 number of electron     352.0000000 magnetization      40.0000000
 keeping initial charge density in first step


--------------------------------------------------------------------------------------------------------


 Maximum index for non-local projection operator         4940
 Maximum index for augmentation-charges          860 (set IRDMAX)


--------------------------------------------------------------------------------------------------------


 First call to EWALD:  gamma=   0.229
 Maximum number of real-space cells 3x 3x 3
 Maximum number of reciprocal cells 3x 3x 3

    FEWALD:  cpu time    0.0022: real time    0.0022


--------------------------------------- Iteration      1(   1)  ---------------------------------------


    POTLOK:  cpu time    0.0902: real time    0.0927
    SETDIJ:  cpu time    0.0130: real time    0.0130
     EDDAV:  cpu time   44.4291: real time   44.5490
    --------------------------------------------
      LOOP:  cpu time   44.5349: real time   44.6575

 eigenvalue-minimisations  : 34560
 total energy-change (2. order) : 0.4661205E+04  (-0.1536600E+05)
 number of electron     352.0000000 magnetization      40.0000000
 augmentation part      352.0000000 magnetization      40.0000000

 Free energy of the ion-electron system (eV)
  ---------------------------------------------------
  alpha Z        PSCENC =      1180.50648382
  Ewald energy   TEWEN  =    -20316.43533185
  -Hartree energ DENC   =    -11804.11851005
  -exchange      EXHF   =         0.00000000
  -V(xc)+E(xc)   XCENC  =      1432.65670078
  PAW double counting   =     26463.90193480   -27579.55909067
  entropy T*S    EENTRO =        -0.00860517
  eigenvalues    EBANDS =      4270.58892381
  atomic energy  EATOM  =     31013.67235384
  Solvation  Ediel_sol  =         0.00000000
  ---------------------------------------------------
  free energy    TOTEN  =      4661.20485930 eV

  energy without entropy =     4661.21346447  energy(sigma->0) =     4661.20916189


--------------------------------------------------------------------------------------------------------




--------------------------------------- Iteration      1(   2)  ---------------------------------------


     EDDAV:  cpu time   45.6987: real time   45.8196
    --------------------------------------------
      LOOP:  cpu time   45.6991: real time   45.8373

 eigenvalue-minimisations  : 35600
 total energy-change (2. order) :-0.4091411E+04  (-0.3650417E+04)
 number of electron     352.0000000 magnetization      40.0000000
 augmentation part      352.0000000 magnetization      40.0000000

 Free energy of the ion-electron system (eV)
  ---------------------------------------------------
  alpha Z        PSCENC =      1180.50648382
  Ewald energy   TEWEN  =    -20316.43533185
  -Hartree energ DENC   =    -11804.11851005
  -exchange      EXHF   =         0.00000000
  -V(xc)+E(xc)   XCENC  =      1432.65670078
  PAW double counting   =     26463.90193480   -27579.55909067
  entropy T*S    EENTRO =        -0.02709553
  eigenvalues    EBANDS =       179.19611079
  atomic energy  EATOM  =     31013.67235384
  Solvation  Ediel_sol  =         0.00000000
  ---------------------------------------------------
  free energy    TOTEN  =       569.79355592 eV

  energy without entropy =      569.82065145  energy(sigma->0) =      569.80710369


--------------------------------------------------------------------------------------------------------




--------------------------------------- Iteration      1(   3)  ---------------------------------------


     EDDAV:  cpu time   51.0567: real time   51.2102
    --------------------------------------------
      LOOP:  cpu time   51.0570: real time   51.1933

 eigenvalue-minimisations  : 36304
 total energy-change (2. order) :-0.8876433E+03  (-0.8047501E+03)
 number of electron     352.0000000 magnetization      40.0000000
 augmentation part      352.0000000 magnetization      40.0000000

 Free energy of the ion-electron system (eV)
  ---------------------------------------------------
  alpha Z        PSCENC =      1180.50648382
  Ewald energy   TEWEN  =    -20316.43533185
  -Hartree energ DENC   =    -11804.11851005
  -exchange      EXHF   =         0.00000000
  -V(xc)+E(xc)   XCENC  =      1432.65670078
  PAW double counting   =     26463.90193480   -27579.55909067
  entropy T*S    EENTRO =        -0.08647046
  eigenvalues    EBANDS =      -708.38779774
  atomic energy  EATOM  =     31013.67235384
  Solvation  Ediel_sol  =         0.00000000
  ---------------------------------------------------
  free energy    TOTEN  =      -317.84972754 eV

  energy without entropy =     -317.76325708  energy(sigma->0) =     -317.80649231


--------------------------------------------------------------------------------------------------------




--------------------------------------- Iteration      1(   4)  ---------------------------------------


     EDDAV:  cpu time   54.7871: real time   54.9212
    --------------------------------------------
      LOOP:  cpu time   54.7869: real time   54.9210

 eigenvalue-minimisations  : 39088
 total energy-change (2. order) :-0.7531382E+02  (-0.7350640E+02)
 number of electron     352.0000000 magnetization      40.0000000
 augmentation part      352.0000000 magnetization      40.0000000

 Free energy of the ion-electron system (eV)
  ---------------------------------------------------
  alpha Z        PSCENC =      1180.50648382
  Ewald energy   TEWEN  =    -20316.43533185
  -Hartree energ DENC   =    -11804.11851005
  -exchange      EXHF   =         0.00000000
  -V(xc)+E(xc)   XCENC  =      1432.65670078
  PAW double counting   =     26463.90193480   -27579.55909067
  entropy T*S    EENTRO =        -0.09871132
  eigenvalues    EBANDS =      -783.68938110
  atomic energy  EATOM  =     31013.67235384
  Solvation  Ediel_sol  =         0.00000000
  ---------------------------------------------------
  free energy    TOTEN  =      -393.16355176 eV

  energy without entropy =     -393.06484044  energy(sigma->0) =     -393.11419610


--------------------------------------------------------------------------------------------------------




--------------------------------------- Iteration      1(   5)  ---------------------------------------


     EDDAV:  cpu time   54.2520: real time   54.3804
    CHARGE:  cpu time    1.8171: real time    1.8586
    MIXING:  cpu time    0.0053: real time    0.0166
    --------------------------------------------
      LOOP:  cpu time   56.0711: real time   56.2523

 eigenvalue-minimisations  : 38576
 total energy-change (2. order) :-0.1709457E+01  (-0.1703606E+01)
 number of electron     352.0000017 magnetization      30.1381068
 augmentation part      101.1016152 magnetization      24.6916242

 Broyden mixing:
  rms(total) = 0.14142E+02    rms(broyden)= 0.14140E+02
  rms(prec ) = 0.17321E+02
  weight for this iteration     100.00

 Free energy of the ion-electron system (eV)
  ---------------------------------------------------
  alpha Z        PSCENC =      1180.50648382
  Ewald energy   TEWEN  =    -20316.43533185
  -Hartree energ DENC   =    -11804.11851005
  -exchange      EXHF   =         0.00000000
  -V(xc)+E(xc)   XCENC  =      1432.65670078
  PAW double counting   =     26463.90193480   -27579.55909067
  entropy T*S    EENTRO =        -0.09882498
  eigenvalues    EBANDS =      -785.39872479
  atomic energy  EATOM  =     31013.67235384
  Solvation  Ediel_sol  =         0.00000000
  ---------------------------------------------------
  free energy    TOTEN  =      -394.87300910 eV

  energy without entropy =     -394.77418413  energy(sigma->0) =     -394.82359661


--------------------------------------------------------------------------------------------------------




--------------------------------------- Iteration      1(   6)  ---------------------------------------


    POTLOK:  cpu time    0.0867: real time    0.0869
    SETDIJ:  cpu time    0.0155: real time    0.0156
     EDDAV:  cpu time   72.3458: real time   72.5171
    CHARGE:  cpu time    1.7907: real time    1.7950
    MIXING:  cpu time    0.0051: real time    0.2732
    --------------------------------------------
      LOOP:  cpu time   74.2440: real time   74.6878

 eigenvalue-minimisations  : 55184
 total energy-change (2. order) :-0.7513381E+02  (-0.9757822E+02)
 number of electron     351.9999958 magnetization      24.6875729
 augmentation part      136.8135616 magnetization      21.3290982

 Broyden mixing:
  rms(total) = 0.20914E+02    rms(broyden)= 0.20913E+02
  rms(prec ) = 0.23957E+02
  weight for this iteration     100.00

 eigenvalues of (default mixing * dielectric matrix)
  average eigenvalue GAMMA=   0.2280
  0.2280

 Free energy of the ion-electron system (eV)
  ---------------------------------------------------
  alpha Z        PSCENC =      1180.50648382
  Ewald energy   TEWEN  =    -20316.43533185
  -Hartree energ DENC   =    -11213.81927038
  -exchange      EXHF   =         0.00000000
  -V(xc)+E(xc)   XCENC  =      1427.45134472
  PAW double counting   =     30534.35104537   -31474.75779663
  entropy T*S    EENTRO =        -0.04118659
  eigenvalues    EBANDS =     -1620.93445846
  atomic energy  EATOM  =     31013.67235384
  Solvation  Ediel_sol  =         0.00000000
  ---------------------------------------------------
  free energy    TOTEN  =      -470.00681617 eV

  energy without entropy =     -469.96562958  energy(sigma->0) =     -469.98622287


--------------------------------------------------------------------------------------------------------




--------------------------------------- Iteration      1(   7)  ---------------------------------------


    POTLOK:  cpu time    0.0984: real time    0.0987
    SETDIJ:  cpu time    0.0157: real time    0.0157
     EDDAV:  cpu time   62.4584: real time   62.6062
    CHARGE:  cpu time    1.7245: real time    1.7286
    MIXING:  cpu time    0.0030: real time    0.0182
    --------------------------------------------
      LOOP:  cpu time   64.3001: real time   64.4674

 eigenvalue-minimisations  : 46432
 total energy-change (2. order) : 0.1714685E+03  (-0.2742288E+02)
 number of electron     351.9999969 magnetization      13.0926529
 augmentation part      121.3894697 magnetization      13.4678753

 Broyden mixing:
  rms(total) = 0.61939E+01    rms(broyden)= 0.61925E+01
  rms(prec ) = 0.79971E+01
  weight for this iteration     100.00

 eigenvalues of (default mixing * dielectric matrix)
  average eigenvalue GAMMA=   0.5961
  0.5961  0.5961

 Free energy of the ion-electron system (eV)
  ---------------------------------------------------
  alpha Z        PSCENC =      1180.50648382
  Ewald energy   TEWEN  =    -20316.43533185
  -Hartree energ DENC   =    -11490.37159436
  -exchange      EXHF   =         0.00000000
  -V(xc)+E(xc)   XCENC  =      1426.82565529
  PAW double counting   =     32239.14677498   -33329.66126350
  entropy T*S    EENTRO =        -0.01790473
  eigenvalues    EBANDS =     -1022.20346622
  atomic energy  EATOM  =     31013.67235384
  Solvation  Ediel_sol  =         0.00000000
  ---------------------------------------------------
  free energy    TOTEN  =      -298.53829275 eV

  energy without entropy =     -298.52038802  energy(sigma->0) =     -298.52934038


--------------------------------------------------------------------------------------------------------




--------------------------------------- Iteration      1(   8)  ---------------------------------------


    POTLOK:  cpu time    0.0883: real time    0.0886
    SETDIJ:  cpu time    0.0158: real time    0.0158
     EDDAV:  cpu time   69.3043: real time   69.4682
    CHARGE:  cpu time    1.8178: real time    1.8221
    MIXING:  cpu time    0.0025: real time    0.0025
    --------------------------------------------
      LOOP:  cpu time   71.2287: real time   71.3971

 eigenvalue-minimisations  : 52672
 total energy-change (2. order) :-0.1793532E+02  (-0.1041234E+02)
 number of electron     351.9999993 magnetization       8.6118027
 augmentation part      117.1617543 magnetization       7.2024626

 Broyden mixing:
  rms(total) = 0.84286E+01    rms(broyden)= 0.84275E+01
  rms(prec ) = 0.12045E+02
  weight for this iteration     100.00

 eigenvalues of (default mixing * dielectric matrix)
  average eigenvalue GAMMA=   0.5708
  0.8960  0.5216  0.2949

 Free energy of the ion-electron system (eV)
  ---------------------------------------------------
  alpha Z        PSCENC =      1180.50648382
  Ewald energy   TEWEN  =    -20316.43533185
  -Hartree energ DENC   =    -11488.15385230
  -exchange      EXHF   =         0.00000000
  -V(xc)+E(xc)   XCENC  =      1421.32328146
  PAW double counting   =     33924.60317770   -35082.46712100
  entropy T*S    EENTRO =        -0.03280374
  eigenvalues    EBANDS =      -969.48979765
  atomic energy  EATOM  =     31013.67235384
  Solvation  Ediel_sol  =         0.00000000
  ---------------------------------------------------
  free energy    TOTEN  =      -316.47360972 eV

  energy without entropy =     -316.44080598  energy(sigma->0) =     -316.45720785


--------------------------------------------------------------------------------------------------------




--------------------------------------- Iteration      1(   9)  ---------------------------------------


    POTLOK:  cpu time    0.0860: real time    0.0862
    SETDIJ:  cpu time    0.0157: real time    0.0158
     EDDAV:  cpu time   59.8021: real time   59.9435
    CHARGE:  cpu time    1.6982: real time    1.7023
    MIXING:  cpu time    0.0028: real time    0.0041
    --------------------------------------------
      LOOP:  cpu time   61.6049: real time   61.7519

 eigenvalue-minimisations  : 43840
 total energy-change (2. order) : 0.5329346E+01  (-0.1648259E+02)
 number of electron     351.9999992 magnetization       4.9818080
 augmentation part      111.6253385 magnetization       4.0894091

 Broyden mixing:
  rms(total) = 0.69067E+01    rms(broyden)= 0.69053E+01
  rms(prec ) = 0.95746E+01
  weight for this iteration     100.00

 eigenvalues of (default mixing * dielectric matrix)
  average eigenvalue GAMMA=   0.5716
  1.2604  0.4157  0.4157  0.1947

 Free energy of the ion-electron system (eV)
  ---------------------------------------------------
  alpha Z        PSCENC =      1180.50648382
  Ewald energy   TEWEN  =    -20316.43533185
  -Hartree energ DENC   =    -11509.52141849
  -exchange      EXHF   =         0.00000000
  -V(xc)+E(xc)   XCENC  =      1419.65571001
  PAW double counting   =     35072.79850796   -36255.37522699
  entropy T*S    EENTRO =        -0.02671728
  eigenvalues    EBANDS =      -916.41862444
  atomic energy  EATOM  =     31013.67235384
  Solvation  Ediel_sol  =         0.00000000
  ---------------------------------------------------
  free energy    TOTEN  =      -311.14426343 eV

  energy without entropy =     -311.11754615  energy(sigma->0) =     -311.13090479


--------------------------------------------------------------------------------------------------------




--------------------------------------- Iteration      1(  10)  ---------------------------------------


    POTLOK:  cpu time    0.0859: real time    0.0861
    SETDIJ:  cpu time    0.0156: real time    0.0156
     EDDAV:  cpu time   63.2980: real time   63.4477
    CHARGE:  cpu time    1.7910: real time    1.7952
    MIXING:  cpu time    0.0027: real time    0.0027
    --------------------------------------------
      LOOP:  cpu time   65.1931: real time   65.3473

 eigenvalue-minimisations  : 47040
 total energy-change (2. order) : 0.1855372E+02  (-0.5963959E+01)
 number of electron     351.9999984 magnetization       3.6996964
 augmentation part      113.1711824 magnetization       3.3919391

 Broyden mixing:
  rms(total) = 0.45209E+01    rms(broyden)= 0.45198E+01
  rms(prec ) = 0.64955E+01
  weight for this iteration     100.00

 eigenvalues of (default mixing * dielectric matrix)
  average eigenvalue GAMMA=   0.5249
  1.3632  0.4116  0.4116  0.2683  0.1700

 Free energy of the ion-electron system (eV)
  ---------------------------------------------------
  alpha Z        PSCENC =      1180.50648382
  Ewald energy   TEWEN  =    -20316.43533185
  -Hartree energ DENC   =    -11476.28447381
  -exchange      EXHF   =         0.00000000
  -V(xc)+E(xc)   XCENC  =      1418.34041439
  PAW double counting   =     36028.37662131   -37216.62778315
  entropy T*S    EENTRO =        -0.04978624
  eigenvalues    EBANDS =      -924.08904167
  atomic energy  EATOM  =     31013.67235384
  Solvation  Ediel_sol  =         0.00000000
  ---------------------------------------------------
  free energy    TOTEN  =      -292.59054337 eV

  energy without entropy =     -292.54075714  energy(sigma->0) =     -292.56565025


--------------------------------------------------------------------------------------------------------




--------------------------------------- Iteration      1(  11)  ---------------------------------------


    POTLOK:  cpu time    0.0858: real time    0.0860
    SETDIJ:  cpu time    0.0157: real time    0.0158
     EDDAV:  cpu time   64.1321: real time   64.2838
    CHARGE:  cpu time    1.6639: real time    1.6678
    MIXING:  cpu time    0.0028: real time    0.0028
    --------------------------------------------
      LOOP:  cpu time   65.9003: real time   66.0562

 eigenvalue-minimisations  : 47984
 total energy-change (2. order) : 0.7603062E+01  (-0.1768729E+01)
 number of electron     352.0000001 magnetization       1.3716741
 augmentation part      113.9178018 magnetization       1.1418181

 Broyden mixing:
  rms(total) = 0.19385E+01    rms(broyden)= 0.19372E+01
  rms(prec ) = 0.24922E+01
  weight for this iteration     100.00

 eigenvalues of (default mixing * dielectric matrix)
  average eigenvalue GAMMA=   0.5504
  1.5468  0.5128  0.5128  0.3449  0.1926  0.1926

 Free energy of the ion-electron system (eV)
  ---------------------------------------------------
  alpha Z        PSCENC =      1180.50648382
  Ewald energy   TEWEN  =    -20316.43533185
  -Hartree energ DENC   =    -11464.70543648
  -exchange      EXHF   =         0.00000000
  -V(xc)+E(xc)   XCENC  =      1418.21103566
  PAW double counting   =     36369.00172141   -37557.49920531
  entropy T*S    EENTRO =        -0.00000000
  eigenvalues    EBANDS =      -927.73910247
  atomic energy  EATOM  =     31013.67235384
  Solvation  Ediel_sol  =         0.00000000
  ---------------------------------------------------
  free energy    TOTEN  =      -284.98748139 eV

  energy without entropy =     -284.98748139  energy(sigma->0) =     -284.98748139


--------------------------------------------------------------------------------------------------------




--------------------------------------- Iteration      1(  12)  ---------------------------------------


    POTLOK:  cpu time    0.0859: real time    0.0861
    SETDIJ:  cpu time    0.0156: real time    0.0156
     EDDAV:  cpu time   72.3541: real time   72.5252
    CHARGE:  cpu time    1.6648: real time    1.6688
    MIXING:  cpu time    0.0030: real time    0.0031
    --------------------------------------------
      LOOP:  cpu time   74.1235: real time   74.2988

 eigenvalue-minimisations  : 55520
 total energy-change (2. order) : 0.1564335E+01  (-0.6704831E+00)
 number of electron     351.9999994 magnetization       0.0752840
 augmentation part      114.8961511 magnetization      -0.1936520

 Broyden mixing:
  rms(total) = 0.12797E+01    rms(broyden)= 0.12793E+01
  rms(prec ) = 0.15751E+01
  weight for this iteration     100.00

 eigenvalues of (default mixing * dielectric matrix)
  average eigenvalue GAMMA=   0.5922
  1.7070  0.6234  0.6234  0.3916  0.3916  0.2293  0.1787

 Free energy of the ion-electron system (eV)
  ---------------------------------------------------
  alpha Z        PSCENC =      1180.50648382
  Ewald energy   TEWEN  =    -20316.43533185
  -Hartree energ DENC   =    -11457.21090457
  -exchange      EXHF   =         0.00000000
  -V(xc)+E(xc)   XCENC  =      1418.42104709
  PAW double counting   =     37077.92358219   -38268.02704518
  entropy T*S    EENTRO =        -0.00000000
  eigenvalues    EBANDS =      -932.27333150
  atomic energy  EATOM  =     31013.67235384
  Solvation  Ediel_sol  =         0.00000000
  ---------------------------------------------------
  free energy    TOTEN  =      -283.42314618 eV

  energy without entropy =     -283.42314618  energy(sigma->0) =     -283.42314618


--------------------------------------------------------------------------------------------------------




--------------------------------------- Iteration      1(  13)  ---------------------------------------


    POTLOK:  cpu time    0.0861: real time    0.0863
    SETDIJ:  cpu time    0.0157: real time    0.0157
     EDDAV:  cpu time   66.8308: real time   66.9889
    CHARGE:  cpu time    1.6231: real time    1.6270
    MIXING:  cpu time    0.0031: real time    0.0031
    --------------------------------------------
      LOOP:  cpu time   68.5586: real time   68.7209

 eigenvalue-minimisations  : 50288
 total energy-change (2. order) :-0.3030436E+00  (-0.4083344E+00)
 number of electron     351.9999997 magnetization      -0.6482507
 augmentation part      115.2910315 magnetization      -0.8691963

 Broyden mixing:
  rms(total) = 0.11464E+01    rms(broyden)= 0.11461E+01
  rms(prec ) = 0.15095E+01
  weight for this iteration     100.00

 eigenvalues of (default mixing * dielectric matrix)
  average eigenvalue GAMMA=   0.5998
  1.8410  0.7180  0.7180  0.4065  0.4065  0.3241  0.1922  0.1922

 Free energy of the ion-electron system (eV)
  ---------------------------------------------------
  alpha Z        PSCENC =      1180.50648382
  Ewald energy   TEWEN  =    -20316.43533185
  -Hartree energ DENC   =    -11455.67885343
  -exchange      EXHF   =         0.00000000
  -V(xc)+E(xc)   XCENC  =      1418.65735410
  PAW double counting   =     37639.67928808   -38832.89079650
  entropy T*S    EENTRO =        -0.00000089
  eigenvalues    EBANDS =      -931.23668693
  atomic energy  EATOM  =     31013.67235384
  Solvation  Ediel_sol  =         0.00000000
  ---------------------------------------------------
  free energy    TOTEN  =      -283.72618976 eV

  energy without entropy =     -283.72618887  energy(sigma->0) =     -283.72618932


--------------------------------------------------------------------------------------------------------




--------------------------------------- Iteration      1(  14)  ---------------------------------------


    POTLOK:  cpu time    0.0855: real time    0.0857
    SETDIJ:  cpu time    0.0157: real time    0.0157
     EDDAV:  cpu time   59.5998: real time   59.7408
    CHARGE:  cpu time    1.3584: real time    1.3616
    MIXING:  cpu time    0.0029: real time    0.0029
    --------------------------------------------
      LOOP:  cpu time   61.0622: real time   61.2067

 eigenvalue-minimisations  : 47856
 total energy-change (2. order) : 0.4538471E+00  (-0.1562642E+00)
 number of electron     351.9999994 magnetization      -0.5709668
 augmentation part      115.4676054 magnetization      -0.7037664

 Broyden mixing:
  rms(total) = 0.65165E+00    rms(broyden)= 0.65145E+00
  rms(prec ) = 0.80255E+00
  weight for this iteration     100.00

 eigenvalues of (default mixing * dielectric matrix)
  average eigenvalue GAMMA=   0.6579
  2.0436  0.8927  0.8927  0.5188  0.5188  0.3874  0.1837  0.2173  0.2666

 Free energy of the ion-electron system (eV)
  ---------------------------------------------------
  alpha Z        PSCENC =      1180.50648382
  Ewald energy   TEWEN  =    -20316.43533185
  -Hartree energ DENC   =    -11456.66151210
  -exchange      EXHF   =         0.00000000
  -V(xc)+E(xc)   XCENC  =      1418.81462231
  PAW double counting   =     38124.39914471   -39321.67014016
  entropy T*S    EENTRO =        -0.00000000
  eigenvalues    EBANDS =      -925.89796321
  atomic energy  EATOM  =     31013.67235384
  Solvation  Ediel_sol  =         0.00000000
  ---------------------------------------------------
  free energy    TOTEN  =      -283.27234265 eV

  energy without entropy =     -283.27234265  energy(sigma->0) =     -283.27234265


--------------------------------------------------------------------------------------------------------




--------------------------------------- Iteration      1(  15)  ---------------------------------------


    POTLOK:  cpu time    0.0730: real time    0.0731
    SETDIJ:  cpu time    0.0133: real time    0.0133
     EDDAV:  cpu time   56.8883: real time   57.0228
    CHARGE:  cpu time    1.3392: real time    1.3783
    MIXING:  cpu time    0.0030: real time    0.0030
    --------------------------------------------
      LOOP:  cpu time   58.3167: real time   58.4907

 eigenvalue-minimisations  : 47392
 total energy-change (2. order) : 0.5954855E-01  (-0.4544995E-01)
 number of electron     351.9999992 magnetization      -0.2518855
 augmentation part      115.4422575 magnetization      -0.2830344

 Broyden mixing:
  rms(total) = 0.46809E+00    rms(broyden)= 0.46802E+00
  rms(prec ) = 0.57654E+00
  weight for this iteration     100.00

 eigenvalues of (default mixing * dielectric matrix)
  average eigenvalue GAMMA=   0.6815
  2.3003  0.9621  0.9621  0.5792  0.5792  0.3865  0.3865  0.1853  0.2104  0.2631

 Free energy of the ion-electron system (eV)
  ---------------------------------------------------
  alpha Z        PSCENC =      1180.50648382
  Ewald energy   TEWEN  =    -20316.43533185
  -Hartree energ DENC   =    -11457.49133956
  -exchange      EXHF   =         0.00000000
  -V(xc)+E(xc)   XCENC  =      1418.80202552
  PAW double counting   =     38431.99052628   -39631.54633747
  entropy T*S    EENTRO =        -0.00000000
  eigenvalues    EBANDS =      -922.71117466
  atomic energy  EATOM  =     31013.67235384
  Solvation  Ediel_sol  =         0.00000000
  ---------------------------------------------------
  free energy    TOTEN  =      -283.21279410 eV

  energy without entropy =     -283.21279410  energy(sigma->0) =     -283.21279410


--------------------------------------------------------------------------------------------------------




--------------------------------------- Iteration      1(  16)  ---------------------------------------


    POTLOK:  cpu time    0.0802: real time    0.0803
    SETDIJ:  cpu time    0.0149: real time    0.0149
     EDDAV:  cpu time   57.7215: real time   57.8726
    CHARGE:  cpu time    1.6916: real time    1.6957
    MIXING:  cpu time    0.0069: real time    0.0581
    --------------------------------------------
      LOOP:  cpu time   59.5151: real time   59.7217

 eigenvalue-minimisations  : 42208
 total energy-change (2. order) : 0.2730521E-01  (-0.2751599E-01)
 number of electron     351.9999995 magnetization      -0.0705031
 augmentation part      115.4162992 magnetization      -0.0488023

 Broyden mixing:
  rms(total) = 0.34670E+00    rms(broyden)= 0.34664E+00
  rms(prec ) = 0.42454E+00
  weight for this iteration     100.00

 eigenvalues of (default mixing * dielectric matrix)
  average eigenvalue GAMMA=   0.6829
  2.4207  1.1631  0.8799  0.6222  0.6222  0.4251  0.4251  0.1848  0.2126  0.2968
  0.2597

 Free energy of the ion-electron system (eV)
  ---------------------------------------------------
  alpha Z        PSCENC =      1180.50648382
  Ewald energy   TEWEN  =    -20316.43533185
  -Hartree energ DENC   =    -11458.04649424
  -exchange      EXHF   =         0.00000000
  -V(xc)+E(xc)   XCENC  =      1418.73659294
  PAW double counting   =     38598.62296904   -39798.88733984
  entropy T*S    EENTRO =        -0.00000000
  eigenvalues    EBANDS =      -921.35472260
  atomic energy  EATOM  =     31013.67235384
  Solvation  Ediel_sol  =         0.00000000
  ---------------------------------------------------
  free energy    TOTEN  =      -283.18548889 eV

  energy without entropy =     -283.18548889  energy(sigma->0) =     -283.18548889


--------------------------------------------------------------------------------------------------------




--------------------------------------- Iteration      1(  17)  ---------------------------------------


    POTLOK:  cpu time    0.0948: real time    0.0950
    SETDIJ:  cpu time    0.0156: real time    0.0156
     EDDAV:  cpu time   57.9547: real time   58.0917
    CHARGE:  cpu time    1.6878: real time    1.6918
    MIXING:  cpu time    0.0036: real time    0.0036
    --------------------------------------------
      LOOP:  cpu time   59.7563: real time   59.8977

 eigenvalue-minimisations  : 42144
 total energy-change (2. order) : 0.2682456E-01  (-0.9383126E-02)
 number of electron     351.9999993 magnetization       0.0569452
 augmentation part      115.4324687 magnetization       0.0876237

 Broyden mixing:
  rms(total) = 0.24163E+00    rms(broyden)= 0.24161E+00
  rms(prec ) = 0.27430E+00
  weight for this iteration     100.00

 eigenvalues of (default mixing * dielectric matrix)
  average eigenvalue GAMMA=   0.6981
  2.4723  1.3704  0.8776  0.6950  0.6950  0.4824  0.4824  0.3600  0.1850  0.2113
  0.2902  0.2559

 Free energy of the ion-electron system (eV)
  ---------------------------------------------------
  alpha Z        PSCENC =      1180.50648382
  Ewald energy   TEWEN  =    -20316.43533185
  -Hartree energ DENC   =    -11457.87027848
  -exchange      EXHF   =         0.00000000
  -V(xc)+E(xc)   XCENC  =      1418.68815795
  PAW double counting   =     38648.74183316   -39848.74384870
  entropy T*S    EENTRO =        -0.00000000
  eigenvalues    EBANDS =      -921.71803406
  atomic energy  EATOM  =     31013.67235384
  Solvation  Ediel_sol  =         0.00000000
  ---------------------------------------------------
  free energy    TOTEN  =      -283.15866433 eV

  energy without entropy =     -283.15866433  energy(sigma->0) =     -283.15866433


--------------------------------------------------------------------------------------------------------




--------------------------------------- Iteration      1(  18)  ---------------------------------------


    POTLOK:  cpu time    0.0860: real time    0.0862
    SETDIJ:  cpu time    0.0157: real time    0.0157
     EDDAV:  cpu time   58.3722: real time   58.5101
    CHARGE:  cpu time    1.6575: real time    1.6614
    MIXING:  cpu time    0.0037: real time    0.0037
    --------------------------------------------
      LOOP:  cpu time   60.1350: real time   60.2771

 eigenvalue-minimisations  : 42512
 total energy-change (2. order) : 0.1415267E-02  (-0.2262332E-02)
 number of electron     351.9999993 magnetization       0.1112764
 augmentation part      115.4439739 magnetization       0.1348250

 Broyden mixing:
  rms(total) = 0.18388E+00    rms(broyden)= 0.18387E+00
  rms(prec ) = 0.21326E+00
  weight for this iteration     100.00

 eigenvalues of (default mixing * dielectric matrix)
  average eigenvalue GAMMA=   0.7380
  2.5989  1.7350  0.8611  0.8611  0.6271  0.6271  0.5567  0.4004  0.4004  0.1849
  0.2118  0.2753  0.2535

 Free energy of the ion-electron system (eV)
  ---------------------------------------------------
  alpha Z        PSCENC =      1180.50648382
  Ewald energy   TEWEN  =    -20316.43533185
  -Hartree energ DENC   =    -11457.75663282
  -exchange      EXHF   =         0.00000000
  -V(xc)+E(xc)   XCENC  =      1418.65191470
  PAW double counting   =     38649.51066968   -39848.79979566
  entropy T*S    EENTRO =        -0.00000000
  eigenvalues    EBANDS =      -922.50691076
  atomic energy  EATOM  =     31013.67235384
  Solvation  Ediel_sol  =         0.00000000
  ---------------------------------------------------
  free energy    TOTEN  =      -283.15724907 eV

  energy without entropy =     -283.15724907  energy(sigma->0) =     -283.15724907


--------------------------------------------------------------------------------------------------------




--------------------------------------- Iteration      1(  19)  ---------------------------------------


    POTLOK:  cpu time    0.0851: real time    0.0853
    SETDIJ:  cpu time    0.0156: real time    0.0156
     EDDAV:  cpu time   57.4712: real time   57.6072
    CHARGE:  cpu time    1.6899: real time    1.6939
    MIXING:  cpu time    0.0040: real time    0.0040
    --------------------------------------------
      LOOP:  cpu time   59.2659: real time   59.4060

 eigenvalue-minimisations  : 41616
 total energy-change (2. order) : 0.2038863E-02  (-0.1417526E-02)
 number of electron     351.9999993 magnetization       0.0992093
 augmentation part      115.4457771 magnetization       0.1139820

 Broyden mixing:
  rms(total) = 0.13520E+00    rms(broyden)= 0.13518E+00
  rms(prec ) = 0.16162E+00
  weight for this iteration     100.00

 eigenvalues of (default mixing * dielectric matrix)
  average eigenvalue GAMMA=   0.7596
  2.6153  2.0565  1.0083  1.0083  0.6546  0.6546  0.5553  0.4219  0.4219  0.1850
  0.3157  0.2117  0.2737  0.2518

 Free energy of the ion-electron system (eV)
  ---------------------------------------------------
  alpha Z        PSCENC =      1180.50648382
  Ewald energy   TEWEN  =    -20316.43533185
  -Hartree energ DENC   =    -11457.98329045
  -exchange      EXHF   =         0.00000000
  -V(xc)+E(xc)   XCENC  =      1418.63285987
  PAW double counting   =     38640.23768312   -39838.83219173
  entropy T*S    EENTRO =        -0.00000000
  eigenvalues    EBANDS =      -922.95377681
  atomic energy  EATOM  =     31013.67235384
  Solvation  Ediel_sol  =         0.00000000
  ---------------------------------------------------
  free energy    TOTEN  =      -283.15521020 eV

  energy without entropy =     -283.15521020  energy(sigma->0) =     -283.15521020


--------------------------------------------------------------------------------------------------------




--------------------------------------- Iteration      1(  20)  ---------------------------------------


    POTLOK:  cpu time    0.0857: real time    0.0859
    SETDIJ:  cpu time    0.0156: real time    0.0157
     EDDAV:  cpu time   59.9404: real time   60.0821
    CHARGE:  cpu time    1.6337: real time    1.6375
    MIXING:  cpu time    0.0042: real time    0.0042
    --------------------------------------------
      LOOP:  cpu time   61.6795: real time   61.8253

 eigenvalue-minimisations  : 44048
 total energy-change (2. order) : 0.3215959E-02  (-0.6704346E-03)
 number of electron     351.9999993 magnetization       0.0681372
 augmentation part      115.4508400 magnetization       0.0752220

 Broyden mixing:
  rms(total) = 0.85482E-01    rms(broyden)= 0.85473E-01
  rms(prec ) = 0.10337E+00
  weight for this iteration     100.00

 eigenvalues of (default mixing * dielectric matrix)
  average eigenvalue GAMMA=   0.7846
  2.6711  2.3624  1.1466  1.1466  0.6697  0.6697  0.5660  0.4523  0.4523  0.4023
  0.1850  0.2117  0.3131  0.2678  0.2528

 Free energy of the ion-electron system (eV)
  ---------------------------------------------------
  alpha Z        PSCENC =      1180.50648382
  Ewald energy   TEWEN  =    -20316.43533185
  -Hartree energ DENC   =    -11458.06546080
  -exchange      EXHF   =         0.00000000
  -V(xc)+E(xc)   XCENC  =      1418.62457484
  PAW double counting   =     38622.67253607   -39820.66049434
  entropy T*S    EENTRO =        -0.00000000
  eigenvalues    EBANDS =      -923.46665581
  atomic energy  EATOM  =     31013.67235384
  Solvation  Ediel_sol  =         0.00000000
  ---------------------------------------------------
  free energy    TOTEN  =      -283.15199424 eV

  energy without entropy =     -283.15199424  energy(sigma->0) =     -283.15199424


--------------------------------------------------------------------------------------------------------




--------------------------------------- Iteration      1(  21)  ---------------------------------------


    POTLOK:  cpu time    0.0856: real time    0.0858
    SETDIJ:  cpu time    0.0157: real time    0.0157
     EDDAV:  cpu time   68.7514: real time   68.9140
    CHARGE:  cpu time    1.6659: real time    1.6698
    MIXING:  cpu time    0.0043: real time    0.0043
    --------------------------------------------
      LOOP:  cpu time   70.5228: real time   70.6896

 eigenvalue-minimisations  : 52352
 total energy-change (2. order) : 0.1088723E-02  (-0.2772797E-03)
 number of electron     351.9999993 magnetization       0.0402034
 augmentation part      115.4490674 magnetization       0.0436349

 Broyden mixing:
  rms(total) = 0.57761E-01    rms(broyden)= 0.57756E-01
  rms(prec ) = 0.71883E-01
  weight for this iteration     100.00

 eigenvalues of (default mixing * dielectric matrix)
  average eigenvalue GAMMA=   0.7974
  2.6691  2.6691  1.2401  1.2401  0.6886  0.6886  0.5930  0.4826  0.4826  0.3995
  0.3995  0.1850  0.2117  0.2873  0.2688  0.2519

 Free energy of the ion-electron system (eV)
  ---------------------------------------------------
  alpha Z        PSCENC =      1180.50648382
  Ewald energy   TEWEN  =    -20316.43533185
  -Hartree energ DENC   =    -11458.33547536
  -exchange      EXHF   =         0.00000000
  -V(xc)+E(xc)   XCENC  =      1418.62936945
  PAW double counting   =     38612.82765852   -39810.53678059
  entropy T*S    EENTRO =        -0.00000000
  eigenvalues    EBANDS =      -923.47918334
  atomic energy  EATOM  =     31013.67235384
  Solvation  Ediel_sol  =         0.00000000
  ---------------------------------------------------
  free energy    TOTEN  =      -283.15090552 eV

  energy without entropy =     -283.15090552  energy(sigma->0) =     -283.15090552


--------------------------------------------------------------------------------------------------------




--------------------------------------- Iteration      1(  22)  ---------------------------------------


    POTLOK:  cpu time    0.0858: real time    0.0861
    SETDIJ:  cpu time    0.0156: real time    0.0156
     EDDAV:  cpu time   69.0318: real time   69.1950
    CHARGE:  cpu time    1.7172: real time    1.7213
    MIXING:  cpu time    0.0044: real time    0.0044
    --------------------------------------------
      LOOP:  cpu time   70.8549: real time   71.0224

 eigenvalue-minimisations  : 52608
 total energy-change (2. order) : 0.4795421E-03  (-0.1858770E-03)
 number of electron     351.9999993 magnetization       0.0191664
 augmentation part      115.4431616 magnetization       0.0214985

 Broyden mixing:
  rms(total) = 0.39942E-01    rms(broyden)= 0.39939E-01
  rms(prec ) = 0.51584E-01
  weight for this iteration     100.00

 eigenvalues of (default mixing * dielectric matrix)
  average eigenvalue GAMMA=   0.8084
  2.9402  2.7113  1.2946  1.2946  0.7031  0.7031  0.6787  0.5406  0.5406  0.4176
  0.4176  0.1850  0.2117  0.3108  0.2783  0.2510  0.2632

 Free energy of the ion-electron system (eV)
  ---------------------------------------------------
  alpha Z        PSCENC =      1180.50648382
  Ewald energy   TEWEN  =    -20316.43533185
  -Hartree energ DENC   =    -11458.54144808
  -exchange      EXHF   =         0.00000000
  -V(xc)+E(xc)   XCENC  =      1418.63634976
  PAW double counting   =     38606.27369862   -39803.84856937
  entropy T*S    EENTRO =        -0.00000000
  eigenvalues    EBANDS =      -923.41396271
  atomic energy  EATOM  =     31013.67235384
  Solvation  Ediel_sol  =         0.00000000
  ---------------------------------------------------
  free energy    TOTEN  =      -283.15042598 eV

  energy without entropy =     -283.15042598  energy(sigma->0) =     -283.15042598


--------------------------------------------------------------------------------------------------------




--------------------------------------- Iteration      1(  23)  ---------------------------------------


    POTLOK:  cpu time    0.0857: real time    0.0859
    SETDIJ:  cpu time    0.0158: real time    0.0158
     EDDAV:  cpu time   69.1898: real time   69.3535
    CHARGE:  cpu time    1.7175: real time    1.7216
    MIXING:  cpu time    0.0046: real time    0.0046
    --------------------------------------------
      LOOP:  cpu time   71.0134: real time   71.1813

 eigenvalue-minimisations  : 52736
 total energy-change (2. order) : 0.4031512E-03  (-0.6065064E-04)
 number of electron     351.9999993 magnetization      -0.0010386
 augmentation part      115.4408008 magnetization       0.0004003

 Broyden mixing:
  rms(total) = 0.26265E-01    rms(broyden)= 0.26262E-01
  rms(prec ) = 0.34379E-01
  weight for this iteration     100.00

 eigenvalues of (default mixing * dielectric matrix)
  average eigenvalue GAMMA=   0.8490
  3.3136  2.6447  1.7724  1.1020  1.1020  0.7110  0.7110  0.5877  0.5877  0.4262
  0.4262  0.4062  0.1850  0.2117  0.3132  0.2731  0.2516  0.2572

 Free energy of the ion-electron system (eV)
  ---------------------------------------------------
  alpha Z        PSCENC =      1180.50648382
  Ewald energy   TEWEN  =    -20316.43533185
  -Hartree energ DENC   =    -11458.69644612
  -exchange      EXHF   =         0.00000000
  -V(xc)+E(xc)   XCENC  =      1418.64253091
  PAW double counting   =     38602.22640158   -39799.72317549
  entropy T*S    EENTRO =        -0.00000000
  eigenvalues    EBANDS =      -923.34283950
  atomic energy  EATOM  =     31013.67235384
  Solvation  Ediel_sol  =         0.00000000
  ---------------------------------------------------
  free energy    TOTEN  =      -283.15002283 eV

  energy without entropy =     -283.15002283  energy(sigma->0) =     -283.15002283


--------------------------------------------------------------------------------------------------------




--------------------------------------- Iteration      1(  24)  ---------------------------------------


    POTLOK:  cpu time    0.0856: real time    0.0858
    SETDIJ:  cpu time    0.0157: real time    0.0157
     EDDAV:  cpu time   65.7964: real time   65.9520
    CHARGE:  cpu time    1.7235: real time    1.7276
    MIXING:  cpu time    0.0047: real time    0.0047
    --------------------------------------------
      LOOP:  cpu time   67.6259: real time   67.7858

 eigenvalue-minimisations  : 49568
 total energy-change (2. order) : 0.1890790E-03  (-0.2534170E-04)
 number of electron     351.9999993 magnetization      -0.0086747
 augmentation part      115.4403413 magnetization      -0.0079943

 Broyden mixing:
  rms(total) = 0.17903E-01    rms(broyden)= 0.17902E-01
  rms(prec ) = 0.23986E-01
  weight for this iteration     100.00

 eigenvalues of (default mixing * dielectric matrix)
  average eigenvalue GAMMA=   0.8670
  3.5328  2.6037  2.0842  1.1863  1.1863  0.7139  0.7139  0.6124  0.6124  0.4730
  0.4244  0.4244  0.4187  0.1850  0.2117  0.3087  0.2727  0.2511  0.2572

 Free energy of the ion-electron system (eV)
  ---------------------------------------------------
  alpha Z        PSCENC =      1180.50648382
  Ewald energy   TEWEN  =    -20316.43533185
  -Hartree energ DENC   =    -11458.79815023
  -exchange      EXHF   =         0.00000000
  -V(xc)+E(xc)   XCENC  =      1418.64969531
  PAW double counting   =     38600.71819184   -39798.20561548
  entropy T*S    EENTRO =        -0.00000000
  eigenvalues    EBANDS =      -923.25746099
  atomic energy  EATOM  =     31013.67235384
  Solvation  Ediel_sol  =         0.00000000
  ---------------------------------------------------
  free energy    TOTEN  =      -283.14983375 eV

  energy without entropy =     -283.14983375  energy(sigma->0) =     -283.14983375


[...]
  0.000   0.000   0.000  -0.000   0.000  -0.000  -0.000  -0.000   0.000   0.000   0.000   0.000  -0.000  -0.000  -0.000   0.000


------------------------ aborting loop because EDIFF is reached ----------------------------------------


    CHARGE:  cpu time    1.3648: real time    1.3681
    FORLOC:  cpu time    0.0171: real time    0.0179
    FORNL :  cpu time   12.8567: real time   12.8871
    STRESS:  cpu time   40.9010: real time   41.0099
    FORCOR:  cpu time    0.0982: real time    0.1022
    FORHAR:  cpu time    0.0261: real time    0.0262
    MIXING:  cpu time    0.0053: real time    0.0054
    OFIELD:  cpu time    0.0001: real time    0.0001

  FORCE on cell =-STRESS in cart. coord.  units (eV):
  Direction    XX          YY          ZZ          XY          YZ          ZX
  --------------------------------------------------------------------------------------
  Alpha Z  1180.50648  1180.50648  1180.50648
  Ewald   -6784.38704 -6727.38281 -6804.78658   -84.58857    26.16336    44.43153
  Hartree  3787.19694  3844.20983  3827.34898   -64.04913    18.03932    10.88417
  E(xc)   -1811.10687 -1810.99323 -1810.87319    -0.02595    -0.03470    -0.06211
  Local   -4002.94226 -4119.28807 -4033.46348   147.08389   -42.94316   -48.81126
  n-local  -717.49385  -720.95514  -723.58358     0.30948     0.16926     1.43538
  augment  2982.70339  2983.51122  2987.94853     1.07186    -0.40640    -2.04712
  Kinetic  5453.03146  5450.25256  5452.22572    -0.58663     2.16230    -3.81810
  Fock        0.00000     0.00000     0.00000     0.00000     0.00000     0.00000
  -------------------------------------------------------------------------------------
  Total       87.5082605     79.8608461     75.3228713     -0.7850464      3.1499746      2.0124924
  in kB      301.9772208    275.5871983    259.9273622     -2.7090716     10.8700659      6.9447941
  external PRESSURE =     279.1639271 kB  Pullay stress =       0.0000000 kB


 VOLUME and BASIS-vectors are now :
 -----------------------------------------------------------------------------
  energy-cutoff  :      500.00
  volume of cell :      464.29
      direct lattice vectors                 reciprocal lattice vectors
     7.743342750  0.000000000  0.000000000     0.129143192  0.000000000  0.000000000
     0.000000000  7.743342750  0.000000000     0.000000000  0.129143192  0.000000000
     0.000000000  0.000000000  7.743342750     0.000000000  0.000000000  0.129143192

  length of vectors
     7.743342750  7.743342750  7.743342750     0.129143192  0.129143192  0.129143192


 FORCES acting on ions
    electron-ion (+dipol)            ewald-force                    non-local-force                 convergence-correction
 -----------------------------------------------------------------------------------------------
   -.120E+03 -.235E+02 -.164E+03   0.125E+03 0.249E+02 0.176E+03   -.188E+01 -.222E+01 -.117E+01   -.276E-01 -.998E-02 -.300E-01
   -.102E+03 -.889E+01 0.176E+01   0.103E+03 0.117E+02 -.477E+01   0.871E+00 0.497E+00 0.425E+00   0.741E-02 0.449E-01 -.360E-01
   -.479E+02 0.367E+02 -.369E+02   0.464E+02 -.395E+02 0.377E+02   -.154E+01 -.174E+00 -.801E+00   -.165E-03 0.104E-02 -.230E-03
   -.939E+02 0.103E+03 0.903E+01   0.947E+02 -.107E+03 -.135E+02   -.165E+01 0.227E+01 0.396E+00   -.237E-01 0.254E-01 0.619E-02
   -.230E+03 -.204E+03 -.743E+02   0.241E+03 0.214E+03 0.790E+02   -.292E+01 -.260E+01 -.216E+01   0.398E-03 0.164E-01 0.305E-01
   -.307E+02 0.101E+02 0.282E+02   0.301E+02 -.103E+02 -.274E+02   0.628E+00 0.878E+00 0.474E+00   -.154E-01 -.442E-01 0.510E-01
   0.501E+02 -.165E+03 0.175E+03   -.540E+02 0.172E+03 -.186E+03   0.256E+01 -.149E+01 0.129E+01   -.120E-02 0.207E-01 -.279E-02
   -.176E+03 0.879E+02 0.101E+03   0.186E+03 -.917E+02 -.107E+03   -.190E+01 0.340E+01 0.872E+00   -.620E-03 -.237E-01 -.123E-01
   0.698E+01 -.127E+02 0.273E+02   -.491E+01 0.149E+02 -.274E+02   0.852E+00 -.412E-01 -.164E+01   0.380E-01 -.837E-02 0.342E-01
   0.216E+03 0.187E+03 -.494E+02   -.231E+03 -.197E+03 0.533E+02   0.311E+01 0.304E+01 -.202E+01   -.122E-02 0.291E-02 0.276E-01
   0.219E+03 -.115E+03 0.160E+03   -.234E+03 0.121E+03 -.170E+03   0.335E+01 -.256E+01 0.289E+01   -.304E-02 -.388E-02 -.113E-01
   0.208E+02 0.183E+03 0.159E+03   -.187E+02 -.193E+03 -.167E+03   -.156E+01 0.230E+01 0.256E+01   0.169E-01 0.233E-01 0.855E-02
   0.302E+02 -.196E+03 -.195E+03   -.301E+02 0.206E+03 0.204E+03   -.167E+01 -.136E+01 -.254E+01   0.631E-02 0.442E-02 -.223E-01
   0.106E+03 0.313E+02 -.114E+03   -.110E+03 -.318E+02 0.118E+03   0.112E+01 0.158E+01 -.153E+01   -.150E-02 -.190E-01 -.174E-01
   0.153E+03 -.175E+03 0.829E+02   -.164E+03 0.182E+03 -.865E+02   0.212E+01 -.223E+01 0.204E+01   -.513E-02 0.142E-01 -.525E-02
   0.176E+02 0.706E+02 0.109E+02   -.172E+02 -.735E+02 -.125E+02   -.902E+00 -.161E+00 0.475E+00   0.340E-01 -.325E-01 -.185E-02
   -.205E+03 0.162E+03 0.142E+03   0.225E+03 -.178E+03 -.156E+03   -.169E+02 0.156E+02 0.148E+02   -.102E-01 0.415E-02 -.208E-01
   -.248E+03 -.226E+03 -.256E+03   0.266E+03 0.246E+03 0.275E+03   -.156E+02 -.194E+02 -.158E+02   -.453E-02 0.470E-01 -.504E-02
   0.183E+03 -.267E+03 -.322E+03   -.195E+03 0.285E+03 0.352E+03   0.122E+02 -.169E+02 -.211E+02   0.141E-01 0.100E-01 -.164E-01
   -.327E+03 -.291E+03 0.218E+03   0.355E+03 0.311E+03 -.234E+03   -.202E+02 -.177E+02 0.150E+02   0.261E-02 0.833E-02 0.549E-02
   0.187E+03 0.213E+03 0.209E+03   -.202E+03 -.227E+03 -.226E+03   0.154E+02 0.146E+02 0.170E+02   0.983E-02 -.448E-01 0.343E-02
   -.292E+03 0.189E+03 -.327E+03   0.314E+03 -.201E+03 0.352E+03   -.197E+02 0.122E+02 -.213E+02   -.140E-01 -.175E-01 -.228E-01
   0.252E+03 0.123E+03 -.192E+03   -.267E+03 -.134E+03 0.206E+03   0.158E+02 0.134E+02 -.151E+02   0.495E-04 0.101E-01 -.865E-02
   0.202E+03 -.213E+03 0.173E+03   -.220E+03 0.232E+03 -.186E+03   0.170E+02 -.179E+02 0.124E+02   -.126E-01 0.202E-01 -.173E-01
   -.134E+03 0.209E+03 0.239E+03   0.146E+03 -.225E+03 -.255E+03   -.117E+02 0.161E+02 0.154E+02   0.991E-02 -.329E-03 0.801E-02
   -.255E+03 -.187E+03 -.170E+03   0.271E+03 0.201E+03 0.184E+03   -.154E+02 -.144E+02 -.143E+02   -.790E-02 -.161E-01 0.459E-03
   0.201E+03 -.183E+03 -.196E+03   -.218E+03 0.198E+03 0.212E+03   0.177E+02 -.146E+02 -.159E+02   -.692E-02 -.993E-02 0.436E-01
   -.342E+03 -.190E+03 0.308E+03   0.373E+03 0.201E+03 -.338E+03   -.215E+02 -.111E+02 0.227E+02   -.684E-02 -.133E-01 -.102E-01
   0.183E+03 0.281E+03 0.266E+03   -.196E+03 -.305E+03 -.284E+03   0.127E+02 0.189E+02 0.165E+02   0.318E-02 0.199E-01 -.373E-02
   -.335E+03 0.283E+03 -.217E+03   0.365E+03 -.307E+03 0.235E+03   -.209E+02 0.196E+02 -.166E+02   -.147E-01 0.110E-01 0.165E-01
   0.215E+03 0.202E+03 -.211E+03   -.227E+03 -.216E+03 0.231E+03   0.122E+02 0.154E+02 -.177E+02   0.833E-02 -.233E-02 0.101E-01
   0.156E+03 -.175E+03 0.252E+03   -.172E+03 0.188E+03 -.269E+03   0.158E+02 -.142E+02 0.153E+02   -.113E-01 -.106E-01 0.205E-01
   -.212E+03 0.179E+03 0.199E+03   0.227E+03 -.196E+03 -.211E+03   -.154E+02 0.154E+02 0.128E+02   -.319E-02 0.207E-02 0.182E-01
   -.167E+03 -.160E+03 -.163E+03   0.181E+03 0.174E+03 0.177E+03   -.144E+02 -.148E+02 -.151E+02   0.795E-03 0.135E-01 -.168E-02
   0.326E+03 -.315E+03 -.194E+03   -.354E+03 0.340E+03 0.208E+03   0.225E+02 -.203E+02 -.139E+02   0.274E-02 0.131E-02 0.199E-01
   -.151E+03 -.327E+03 0.307E+03   0.164E+03 0.355E+03 -.332E+03   -.132E+02 -.209E+02 0.207E+02   0.239E-02 0.523E-02 0.148E-01
   0.332E+03 0.222E+03 0.265E+03   -.361E+03 -.238E+03 -.286E+03   0.209E+02 0.135E+02 0.191E+02   0.976E-02 -.136E-01 0.272E-02
   -.169E+03 0.236E+03 -.197E+03   0.182E+03 -.255E+03 0.214E+03   -.147E+02 0.175E+02 -.164E+02   0.966E-02 -.180E-01 0.269E-02
   0.135E+03 0.190E+03 -.165E+03   -.149E+03 -.207E+03 0.180E+03   0.145E+02 0.157E+02 -.143E+02   -.511E-02 0.749E-02 0.140E-02
   0.209E+03 -.178E+03 0.211E+03   -.222E+03 0.194E+03 -.226E+03   0.131E+02 -.153E+02 0.162E+02   0.137E-01 0.182E-01 0.150E-01
   -.246E+03 0.287E+03 0.174E+03   0.263E+03 -.310E+03 -.188E+03   -.151E+02 0.201E+02 0.134E+02   -.375E-03 -.162E-02 -.467E-01
   -.171E+03 -.218E+03 -.210E+03   0.187E+03 0.234E+03 0.224E+03   -.165E+02 -.158E+02 -.152E+02   -.711E-02 -.648E-03 -.344E-02
   0.304E+03 -.177E+03 -.333E+03   -.327E+03 0.189E+03 0.361E+03   0.201E+02 -.114E+02 -.210E+02   -.616E-02 -.120E-01 -.836E-02
   -.207E+03 -.203E+03 0.187E+03   0.225E+03 0.221E+03 -.200E+03   -.181E+02 -.166E+02 0.145E+02   0.456E-01 -.192E-01 -.275E-02
   0.275E+03 0.309E+03 0.208E+03   -.295E+03 -.334E+03 -.224E+03   0.186E+02 0.199E+02 0.161E+02   -.382E-02 0.650E-03 0.286E-02
   -.145E+03 0.322E+03 -.291E+03   0.157E+03 -.350E+03 0.315E+03   -.120E+02 0.211E+02 -.188E+02   0.111E-01 0.296E-01 -.129E-01
   0.175E+03 0.271E+03 -.192E+03   -.188E+03 -.290E+03 0.204E+03   0.140E+02 0.193E+02 -.115E+02   -.405E-01 -.355E-02 0.575E-02
   0.254E+03 -.189E+03 0.164E+03   -.271E+03 0.201E+03 -.179E+03   0.168E+02 -.137E+02 0.146E+02   0.123E-01 -.195E-01 -.770E-02
 -----------------------------------------------------------------------------------------------
   0.154E+01 -.144E+02 0.788E+01   -.171E-12 -.199E-12 0.853E-13   -.156E+01 0.143E+02 -.789E+01   0.241E-01 0.172E-01 0.217E-01
 
 
 POSITION                                       TOTAL-FORCE (eV/Angst)
 -----------------------------------------------------------------------------------
      0.99730      5.01825      0.89539         2.708231     -0.803658     10.787742
      2.90889      6.83433      1.11323         1.955671      3.369390     -2.622408
      3.06460      5.07391      3.01795        -3.012472     -2.974791     -0.083354
      1.04156      6.88998      3.07403        -0.904464     -1.615871     -4.105869
      0.93657      0.95953      4.94476         7.761757      8.048486      2.516635
      2.93863      3.02119      4.95214         0.047105      0.632412      1.390533
      2.97493      0.98230      7.01650        -1.339345      6.205708     -9.406314
      0.96239      2.96950      6.97036         8.342744     -0.424435     -5.333570
      4.88138      4.93950      4.99045         2.957745      2.152267     -1.732133
      7.00746      6.95724      4.93004       -11.879464     -7.093350      1.891908
      7.02128      4.95261      6.95072       -11.074348      3.433170     -7.771607
      4.97278      6.94601      6.92208         0.617349     -7.439794     -5.661977
      4.98741      0.93451      0.96769        -1.484806      8.626676      5.905725
      6.92873      2.93149      0.99696        -3.107948      1.038270      2.331099
      6.95634      0.99651      2.97043        -8.375667      5.568742     -1.490302
      4.99122      3.06331      3.02851        -0.419881     -3.074179     -1.197349
      6.67955      1.16257      1.01210         3.555126     -1.222444      1.121166
      2.77640      6.84269      2.79780         2.224821      0.701058      3.691630
      3.16876      0.91473      0.83931        -0.506393      0.515839      8.206578
      0.79772      0.89641      3.15231         7.756365      2.136203     -0.974840
      3.09587      3.18490      3.11775         0.525059      0.324824     -0.212733
      0.91980      3.07576      0.89878         2.102950      0.373168      3.761882
      5.06521      1.01130      2.98898         0.379789      1.712892     -1.647795
      1.09825      6.84208      1.17211        -0.744555      0.607332     -0.254181
      6.84178      5.08731      5.09799        -0.243898      0.145282     -0.603339
      2.80779      2.94159      6.85433         0.538413     -0.925553     -0.425613
      3.06052      4.89734      4.86865         0.141183     -0.005365     -0.162833
      0.83227      4.85842      7.06204         9.052097     -0.018423     -6.739572
      3.10781      7.08075      7.09770        -0.380206     -5.120955     -2.139165
      0.81984      7.06208      4.80475         8.824780     -4.583847      1.528117
      5.10135      5.00995      6.72677        -0.168177      0.917797      2.071312
      1.08379      2.99261      5.13404         0.060753     -1.330522     -0.838563
      2.86958      1.22990      5.06682        -0.785957     -1.184574      0.362231
      6.82699      6.87899      6.85167         0.455336     -0.438190     -0.601485
      7.05840      0.85644      4.84756        -5.690195      4.909264     -0.051149
      4.90346      0.81440      7.02857        -0.637656      6.409680     -3.724001
      7.12908      3.21763      6.96998        -7.582630     -2.604626     -1.376445
      4.87108      3.17268      4.83969        -0.828934     -1.270489      0.502911
      1.07670      1.16770      6.80863         0.237513     -1.212976      0.503510
      5.04040      6.80772      5.00704         0.668348     -0.084382      0.849346
      2.74559      5.13424      1.19000         2.114142     -2.353507     -0.841755
      6.84749      2.85527      2.89034        -0.225786      0.132975     -0.452131
      7.05294      4.76334      0.81936        -3.171073      0.636076      6.453133
      4.87204      4.83139      3.01324         0.380958      1.594359      1.072472
      6.99005      7.10945      3.01474        -1.003626     -5.794648      0.684551
      4.90767      7.08623      0.82979        -0.508634     -7.293703      4.905345
      1.08967      5.08444      2.88340         0.904605     -0.333368     -0.203477
      5.08931      2.93666      1.15195        -0.236727     -0.988218      0.116136
 -----------------------------------------------------------------------------------
    total drift:                                0.007271     -0.036170      0.014660


--------------------------------------------------------------------------------------------------------



  FREE ENERGIE OF THE ION-ELECTRON SYSTEM (eV)
  ---------------------------------------------------
  free  energy   TOTEN  =      -283.1496528981 eV

  energy  without entropy=     -283.1496528981  energy(sigma->0) =     -283.14965290
 


--------------------------------------------------------------------------------------------------------


    POTLOK:  cpu time    0.1030: real time    0.1263


--------------------------------------------------------------------------------------------------------


     LOOP+:  cpu time 1772.1401: real time 1777.3760
    4ORBIT:  cpu time    0.0000: real time    0.0000

volume of typ            1:    22.0 %

volume of typ            2:    11.2 %
 
total charge     
 
# of ion       s       p       d       tot
------------------------------------------
    1        0.360   0.538   7.912   8.810
    2        0.345   0.510   7.894   8.749
    3        0.305   0.420   7.833   8.558
    4        0.343   0.514   7.886   8.742
    5        0.353   0.520   7.912   8.784
    6        0.302   0.413   7.808   8.524
    7        0.353   0.510   7.900   8.763
    8        0.374   0.583   7.913   8.870
    9        0.316   0.439   7.829   8.583
   10        0.363   0.549   7.920   8.832
   11        0.386   0.603   7.948   8.938
   12        0.353   0.530   7.896   8.779
   13        0.369   0.552   7.911   8.832
   14        0.331   0.484   7.864   8.679
   15        0.364   0.555   7.907   8.826
   16        0.302   0.411   7.813   8.526
   17        1.283   2.764   0.011   4.058
   18        1.277   2.810   0.014   4.101
   19        1.281   2.825   0.016   4.123
   20        1.280   2.842   0.017   4.139
   21        1.287   2.713   0.008   4.008
   22        1.284   2.790   0.013   4.088
   23        1.291   2.678   0.005   3.974
   24        1.289   2.730   0.009   4.028
   25        1.283   2.721   0.007   4.011
   26        1.284   2.718   0.007   4.009
   27        1.283   2.733   0.009   4.025
   28        1.285   2.877   0.023   4.186
   29        1.278   2.809   0.013   4.101
   30        1.280   2.882   0.023   4.185
   31        1.281   2.740   0.008   4.029
   32        1.288   2.709   0.007   4.004
   33        1.281   2.726   0.007   4.013
   34        1.288   2.710   0.007   4.005
   35        1.288   2.829   0.018   4.135
   36        1.289   2.811   0.017   4.116
   37        1.283   2.842   0.018   4.142
   38        1.283   2.744   0.009   4.035
   39        1.285   2.728   0.008   4.020
   40        1.284   2.712   0.006   4.003
   41        1.278   2.792   0.012   4.083
   42        1.283   2.726   0.008   4.017
   43        1.281   2.838   0.017   4.136
   44        1.284   2.735   0.009   4.028
   45        1.289   2.785   0.014   4.088
   46        1.284   2.827   0.018   4.129
   47        1.290   2.704   0.007   4.000
   48        1.285   2.715   0.007   4.007
--------------------------------------------------
tot          46.61   96.69  126.52  269.82
 
magnetization (x)
 
# of ion       s       p       d       tot
------------------------------------------
    1       -0.000  -0.000  -0.000  -0.000
    2       -0.000  -0.000  -0.000  -0.000
    3        0.000   0.000   0.000   0.000
    4       -0.000  -0.000   0.000   0.000
    5       -0.000  -0.000  -0.000  -0.000
    6       -0.000  -0.000  -0.000  -0.000
    7       -0.000  -0.000  -0.000  -0.000
    8       -0.000  -0.000  -0.000  -0.000
    9       -0.000  -0.000  -0.000  -0.000
   10       -0.000  -0.000  -0.000  -0.000
   11       -0.000  -0.000   0.000   0.000
   12       -0.000  -0.000   0.000   0.000
   13       -0.000  -0.000   0.000   0.000
   14       -0.000  -0.000   0.000  -0.000
   15       -0.000  -0.000  -0.000  -0.000
   16       -0.000  -0.000  -0.000  -0.000
   17        0.000   0.000  -0.000   0.000
   18        0.000   0.000   0.000   0.000
   19        0.000   0.000   0.000   0.000
   20        0.000   0.000  -0.000   0.000
   21       -0.000  -0.000   0.000  -0.000
   22        0.000   0.000  -0.000   0.000
   23        0.000   0.000  -0.000   0.000
   24        0.000   0.000  -0.000   0.000
   25        0.000   0.000  -0.000   0.000
   26        0.000   0.000  -0.000   0.000
   27        0.000  -0.000   0.000  -0.000
   28        0.000   0.000  -0.000   0.000
   29        0.000   0.000  -0.000   0.000
   30        0.000   0.000  -0.000   0.000
   31        0.000   0.000  -0.000   0.000
   32        0.000   0.000  -0.000   0.000
   33        0.000   0.000  -0.000   0.000
   34        0.000   0.000  -0.000   0.000
   35        0.000   0.000  -0.000   0.000
   36        0.000   0.000  -0.000   0.000
   37        0.000   0.000  -0.000   0.000
   38        0.000   0.000  -0.000   0.000
   39       -0.000  -0.000  -0.000  -0.000
   40        0.000   0.000  -0.000   0.000
   41       -0.000  -0.000   0.000  -0.000
   42        0.000   0.000  -0.000   0.000
   43        0.000   0.000  -0.000   0.000
   44        0.000  -0.000   0.000  -0.000
   45        0.000   0.000   0.000   0.000
   46        0.000   0.000  -0.000   0.000
   47        0.000  -0.000   0.000  -0.000
   48        0.000   0.000  -0.000   0.000
--------------------------------------------------
tot           0.00    0.00   -0.00    0.00
 

 total amount of memory used by VASP MPI-rank0   291720. kBytes
=======================================================================

   base      :      30000. kBytes
   nonlr-proj:      21233. kBytes
   fftplans  :       3726. kBytes
   grid      :      21274. kBytes
   one-center:       1492. kBytes
   wavefun   :     213995. kBytes
 
  
  
 General timing and accounting informations for this job:
 ========================================================
  
                  Total CPU time used (sec):     1814.133
                            User time (sec):     1810.165
                          System time (sec):        3.969
                         Elapsed time (sec):     1822.921
  
                   Maximum memory used (kb):      371172.
                   Average memory used (kb):           0.
  
                          Minor page faults:        38124
                          Major page faults:           96
                 Voluntary context switches:         1335
