 vasp.5.4.4.18Apr17-6-g9f103f2a35 (build May 12 2020 04:58:55) complex          
  
 MD_VERSION_INFO: Compiled 2020-05-12T11:58:55-UTC in devlin.sd.materialsdesign.
 com:/home/medea2/data/build/wwolf/vasp-gpu5.4.4/13047/x86_64/src/src/build/std 
 from svn 13047
 
 This VASP executable licensed from Materials Design, Inc.
 
 executed on                        Lin64 date 2023.03.24  22:11:36
 running on   16 total cores
 distrk:  each k-point on   16 cores,    1 groups
 distr:  one band on NCORES_PER_BAND=   1 cores,   16 groups


--------------------------------------------------------------------------------------------------------


 INCAR:
 POTCAR:    PAW_PBE Ni 02Aug2007                  
 POTCAR:    PAW_PBE O 08Apr2002                   

 ----------------------------------------------------------------------------- 
|                                                                             |
|           W    W    AA    RRRRR   N    N  II  N    N   GGGG   !!!           |
|           W    W   A  A   R    R  NN   N  II  NN   N  G    G  !!!           |
|           W    W  A    A  R    R  N N  N  II  N N  N  G       !!!           |
|           W WW W  AAAAAA  RRRRR   N  N N  II  N  N N  G  GGG   !            |
|           WW  WW  A    A  R   R   N   NN  II  N   NN  G    G                |
|           W    W  A    A  R    R  N    N  II  N    N   GGGG   !!!           |
|                                                                             |
|      For optimal performance we recommend to set                            |
|        NCORE= 4 - approx SQRT( number of cores)                             |
|      NCORE specifies how many cores store one orbital (NPAR=cpu/NCORE).     |
|      This setting can  greatly improve the performance of VASP for DFT.     |
|      The default,   NCORE=1            might be grossly inefficient         |
|      on modern multi-core architectures or massively parallel machines.     |
|      Do your own testing !!!!                                               |
|      Unfortunately you need to use the default for GW and RPA calculations. |
|      (for HF NCORE is supported but not extensively tested yet)             |
|                                                                             |
 ----------------------------------------------------------------------------- 

 POTCAR:    PAW_PBE Ni 02Aug2007                  
  local pseudopotential read in
  partial core-charges read in
  partial kinetic energy density read in
  atomic valenz-charges read in
  non local Contribution for L=           2  read in
    real space projection operators read in
  non local Contribution for L=           2  read in
    real space projection operators read in
  non local Contribution for L=           0  read in
    real space projection operators read in
  non local Contribution for L=           0  read in
    real space projection operators read in
  non local Contribution for L=           1  read in
    real space projection operators read in
  non local Contribution for L=           1  read in
    real space projection operators read in
    PAW grid and wavefunctions read in
 
   number of l-projection  operators is LMAX  =           6
   number of lm-projection operators is LMMAX =          18
 
 POTCAR:    PAW_PBE O 08Apr2002                   
  local pseudopotential read in
  partial core-charges read in
  partial kinetic energy density read in
  kinetic energy density of atom read in
  atomic valenz-charges read in
  non local Contribution for L=           0  read in
    real space projection operators read in
  non local Contribution for L=           0  read in
    real space projection operators read in
  non local Contribution for L=           1  read in
    real space projection operators read in
  non local Contribution for L=           1  read in
    real space projection operators read in
    PAW grid and wavefunctions read in
 
   number of l-projection  operators is LMAX  =           4
   number of lm-projection operators is LMMAX =           8
 
 Optimization of the real space projectors (new method)

 maximal supplied QI-value         = 16.25
 optimisation between [QCUT,QGAM] = [ 11.38, 22.75] = [ 36.24,144.96] Ry 
 Optimized for a Real-space Cutoff    1.47 Angstroem

   l    n(q)    QCUT    max X(q) W(low)/X(q) W(high)/X(q)  e(spline) 
   2      9    11.376    60.317    0.17E-03    0.16E-04    0.16E-06
   2      9    11.376    55.921    0.17E-03    0.16E-04    0.17E-06
   0     10    11.376    51.690    0.45E-04    0.60E-04    0.21E-06
   0     10    11.376    30.015    0.37E-04    0.55E-04    0.19E-06
   1     10    11.376    18.849    0.83E-04    0.11E-03    0.92E-07
   1     10    11.376    14.624    0.69E-04    0.92E-04    0.82E-07
 Optimization of the real space projectors (new method)

 maximal supplied QI-value         = 24.76
 optimisation between [QCUT,QGAM] = [ 11.39, 22.77] = [ 36.31,145.25] Ry 
 Optimized for a Real-space Cutoff    1.10 Angstroem

   l    n(q)    QCUT    max X(q) W(low)/X(q) W(high)/X(q)  e(spline) 
   0      7    11.387    20.381    0.22E-03    0.48E-03    0.18E-06
   0      7    11.387    15.268    0.22E-03    0.52E-03    0.19E-06
   1      7    11.387     5.964    0.22E-03    0.73E-03    0.24E-06
   1      7    11.387     5.382    0.19E-03    0.60E-03    0.21E-06

 ----------------------------------------------------------------------------- 
|                                                                             |
|  ADVICE TO THIS USER RUNNING 'VASP/VAMP'   (HEAR YOUR MASTER'S VOICE ...):  |
|                                                                             |
|      You enforced a specific xc-type in the INCAR file,                     |
|      a different type was found on the POTCAR file                          |
|          I HOPE YOU KNOW, WHAT YOU ARE  DOING                               |
|                                                                             |
 ----------------------------------------------------------------------------- 

  PAW_PBE Ni 02Aug2007                  :
 energy of atom  1       EATOM=-1077.6739
 kinetic energy error for atom=    0.0030 (will be added to EATOM!!)
  PAW_PBE O 08Apr2002                   :
 energy of atom  2       EATOM= -432.3788
 kinetic energy error for atom=    0.0224 (will be added to EATOM!!)
 
 
 POSCAR: NiO2_C2_m_scale_1_025_disp_0_20_round_2 
  positions in direct lattice
  No initial velocities read in
 exchange correlation table for  LEXCH =       14
   RHO(1)=    0.500       N(1)  =     2000
   RHO(2)=  100.500       N(2)  =     4000
 


--------------------------------------------------------------------------------------------------------


 ion  position               nearest neighbor table
   1  0.986  0.991  0.002-  19 1.80  27 1.88  22 1.90  54 2.13  46 2.23  51 2.34   9 2.35   7 2.62
                            13 2.69   3 2.75  17 2.95
   2  0.002  0.008  0.485-  21 1.83  20 1.98  44 2.07  52 2.13  29 2.38  53 2.46  10 2.70   4 2.83

   3  0.977  0.306  0.980-  46 1.67  19 1.81  50 1.86  26 2.00  43 2.09  23 2.42   5 2.65  13 2.67
                             9 2.70   1 2.75  11 2.87  15 3.03
   4  0.009  0.342  0.482-  44 1.81  24 1.82  25 2.03  21 2.04  45 2.21  48 2.25  10 2.38   6 2.65
                             2 2.83  12 2.95  16 2.97
   5  0.984  0.618  0.977-  50 1.67  47 1.91  54 1.92  23 2.02  30 2.14  27 2.18   3 2.65  15 2.66
                            11 2.68  17 2.91
   6  0.979  0.632  0.515-  29 1.83  25 1.91  49 2.04  52 2.07  48 2.18  28 2.25   4 2.65  18 2.66
                            16 2.78  12 3.00
   7  0.321  0.065  0.005-  31 1.39  22 1.66   9 1.98  27 2.08  34 2.31   1 2.62  15 2.62
   8  0.374  0.990  0.485-  32 1.71  28 1.79  33 1.79  14 1.91  41 1.92  29 2.07  12 2.50  16 2.61

   9  0.263  0.260  0.021-  19 1.47  31 1.85   7 1.98  22 2.01  35 2.08  26 2.19  38 2.32   1 2.35
                             3 2.70  15 2.99
  10  0.286  0.344  0.510-  37 1.76  24 1.76  21 1.89  20 1.90  33 2.20  36 2.36   4 2.38   2 2.70
                            12 2.80  18 2.88
  11  0.308  0.644  0.993-  23 1.38  39 1.73  35 1.74  30 1.96  26 2.01  42 2.38   5 2.68   3 2.87
                            17 3.00  13 3.05
  12  0.346  0.688  0.449-  40 1.33  41 1.73  28 1.88  24 2.06  37 2.20  25 2.22  14 2.35   8 2.50
                            10 2.80   4 2.95   6 3.00
  13  0.672  0.990  0.992-  42 1.72  51 1.82  46 1.85  43 1.85  34 1.93  39 2.10   3 2.67   1 2.69
                            17 2.96  11 3.05
  14  0.591  0.980  0.487-  32 1.31  41 1.84   8 1.91  53 2.09  45 2.12  44 2.16  12 2.35  40 2.45
                            16 2.66
  15  0.646  0.348  0.995-  38 1.34  47 1.59  31 1.81  50 2.05  34 2.18  43 2.33  17 2.44   7 2.62
                             5 2.66   9 2.99   3 3.03
  16  0.651  0.316  0.478-  36 1.46  45 1.75  32 1.92  48 1.96  49 2.00  33 2.05  18 2.53   8 2.61
                            14 2.66   6 2.78   4 2.97
  17  0.654  0.636  0.000-  54 1.67  38 1.76  51 1.81  47 1.86  35 2.14  15 2.44   5 2.91   1 2.95
                            13 2.96  11 3.00
  18  0.661  0.616  0.494-  49 1.36  36 1.84  52 1.85  37 1.90  53 2.05  40 2.49  16 2.53   6 2.66
                            10 2.88
  19  0.087  0.211  0.082-   9 1.47   1 1.80   3 1.81
  20  0.224  0.158  0.374-  10 1.90   2 1.98
  21  0.073  0.192  0.612-   2 1.83  10 1.89   4 2.04
  22  0.185  0.061  0.878-   7 1.66   1 1.90   9 2.01
  23  0.171  0.595  0.089-  11 1.38   5 2.02   3 2.42
  24  0.211  0.428  0.373-  10 1.76   4 1.82  12 2.06
  25  0.130  0.561  0.610-   6 1.91   4 2.03  12 2.22
  26  0.209  0.422  0.872-   3 2.00  11 2.01   9 2.19
  27  0.084  0.868  0.097-   1 1.88   7 2.08   5 2.18
  28  0.222  0.802  0.380-   8 1.79  12 1.88   6 2.25
  29  0.133  0.850  0.595-   6 1.83   8 2.07   2 2.38
  30  0.211  0.720  0.838-  11 1.96   5 2.14
  31  0.437  0.211  0.088-   7 1.39  15 1.81   9 1.85
  32  0.572  0.084  0.395-  14 1.31   8 1.71  16 1.92
  33  0.409  0.184  0.581-   8 1.79  16 2.05  10 2.20
  34  0.567  0.100  0.878-  13 1.93  15 2.18   7 2.31
  35  0.390  0.527  0.089-  11 1.74   9 2.08  17 2.14
  36  0.558  0.397  0.405-  16 1.46  18 1.84  10 2.36
  37  0.441  0.549  0.589-  10 1.76  18 1.90  12 2.20
  38  0.553  0.415  0.931-  15 1.34  17 1.76   9 2.32
  39  0.418  0.843  0.088-  11 1.73  13 2.10
  40  0.464  0.696  0.355-  12 1.33  14 2.45  18 2.49
  41  0.403  0.821  0.599-  12 1.73  14 1.84   8 1.92
  42  0.569  0.837  0.858-  13 1.72  11 2.38
  43  0.754  0.184  0.115-  13 1.85   3 2.09  15 2.33
  44  0.861  0.124  0.403-   4 1.81   2 2.07  14 2.16
  45  0.748  0.228  0.592-  16 1.75  14 2.12   4 2.21
  46  0.868  0.126  0.876-   3 1.67  13 1.85   1 2.23
  47  0.767  0.524  0.086-  15 1.59  17 1.86   5 1.91
  48  0.855  0.433  0.347-  16 1.96   6 2.18   4 2.25
  49  0.725  0.541  0.589-  18 1.36  16 2.00   6 2.04
  50  0.880  0.427  0.885-   5 1.67   3 1.86  15 2.05
  51  0.698  0.832  0.103-  17 1.81  13 1.82   1 2.34
  52  0.868  0.750  0.388-  18 1.85   6 2.07   2 2.13
  53  0.702  0.846  0.594-  18 2.05  14 2.09   2 2.46
  54  0.849  0.728  0.913-  17 1.67   5 1.92   1 2.13
 
  LATTYP: Found a hexagonal cell.
 ALAT       =     8.5719417516
 C/A-ratio  =     1.1065328049
  
  Lattice vectors:
  
 A1 = (   8.5719417500,   0.0000000000,   0.0000000000)
 A2 = (  -4.2859708800,   7.4235193200,   0.0000000000)
 A3 = (   0.0000000000,   0.0000000000,   9.4851347500)


Analysis of symmetry for initial positions (statically):
=====================================================================
 Subroutine PRICEL returns:
 Original cell was already a primitive cell.
 

 Routine SETGRP: Setting up the symmetry group for a 
 hexagonal supercell.


 Subroutine GETGRP returns: Found  1 space group operations
 (whereof  1 operations were pure point group operations)
 out of a pool of 24 trial point group operations.


The static configuration has the point symmetry C_1 .


Analysis of symmetry for dynamics (positions and initial velocities):
=====================================================================
 Subroutine PRICEL returns:
 Original cell was already a primitive cell.
 

 Routine SETGRP: Setting up the symmetry group for a 
 hexagonal supercell.


 Subroutine GETGRP returns: Found  1 space group operations
 (whereof  1 operations were pure point group operations)
 out of a pool of 24 trial point group operations.


The dynamic configuration has the point symmetry C_1 .


Analysis of structural, dynamic, and magnetic symmetry:
=====================================================================
 Subroutine PRICEL returns:
 Original cell was already a primitive cell.
 

 Routine SETGRP: Setting up the symmetry group for a 
 hexagonal supercell.


 Subroutine GETGRP returns: Found  1 space group operations
 (whereof  1 operations were pure point group operations)
 out of a pool of 24 trial point group operations.


The magnetic configuration has the point symmetry C_1 .


 Subroutine INISYM returns: Found  1 space group operations
 (whereof  1 operations are pure point group operations),
 and found     1 'primitive' translations

 
 
 KPOINTS: Automatic mesh                          

Automatic generation of k-mesh.
Space group operators:
 irot       det(A)        alpha          n_x          n_y          n_z        tau_x        tau_y        tau_z
    1     1.000000     0.000000     1.000000     0.000000     0.000000     0.000000     0.000000     0.000000
 
 Subroutine IBZKPT returns following result:
 ===========================================
 
 Found     26 irreducible k-points:
 
 Following reciprocal coordinates:
            Coordinates               Weight
  0.000000  0.000000  0.000000      1.000000
  0.250000  0.000000  0.000000      2.000000
  0.500000  0.000000  0.000000      1.000000
  0.000000  0.250000  0.000000      2.000000
  0.250000  0.250000  0.000000      2.000000
  0.500000  0.250000  0.000000      2.000000
 -0.250000  0.250000  0.000000      2.000000
  0.000000  0.500000  0.000000      1.000000
  0.250000  0.500000  0.000000      2.000000
  0.500000  0.500000  0.000000      1.000000
  0.000000  0.000000  0.333333      2.000000
  0.250000  0.000000  0.333333      2.000000
  0.500000  0.000000  0.333333      2.000000
 -0.250000  0.000000  0.333333      2.000000
  0.000000  0.250000  0.333333      2.000000
  0.250000  0.250000  0.333333      2.000000
  0.500000  0.250000  0.333333      2.000000
 -0.250000  0.250000  0.333333      2.000000
  0.000000  0.500000  0.333333      2.000000
  0.250000  0.500000  0.333333      2.000000
  0.500000  0.500000  0.333333      2.000000
 -0.250000  0.500000  0.333333      2.000000
  0.000000 -0.250000  0.333333      2.000000
  0.250000 -0.250000  0.333333      2.000000
  0.500000 -0.250000  0.333333      2.000000
 -0.250000 -0.250000  0.333333      2.000000
 
 Following cartesian coordinates:
            Coordinates               Weight
  0.000000  0.000000  0.000000      1.000000
  0.029165  0.016838  0.000000      2.000000
  0.058330  0.033677  0.000000      1.000000
  0.000000  0.033677  0.000000      2.000000
  0.029165  0.050515  0.000000      2.000000
  0.058330  0.067353  0.000000      2.000000
 -0.029165  0.016838  0.000000      2.000000
  0.000000  0.067353  0.000000      1.000000
  0.029165  0.084192  0.000000      2.000000
  0.058330  0.101030  0.000000      1.000000
  0.000000  0.000000  0.035143      2.000000
  0.029165  0.016838  0.035143      2.000000
  0.058330  0.033677  0.035143      2.000000
 -0.029165 -0.016838  0.035143      2.000000
  0.000000  0.033677  0.035143      2.000000
  0.029165  0.050515  0.035143      2.000000
  0.058330  0.067353  0.035143      2.000000
 -0.029165  0.016838  0.035143      2.000000
  0.000000  0.067353  0.035143      2.000000
  0.029165  0.084192  0.035143      2.000000
  0.058330  0.101030  0.035143      2.000000
 -0.029165  0.050515  0.035143      2.000000
  0.000000 -0.033677  0.035143      2.000000
  0.029165 -0.016838  0.035143      2.000000
  0.058330  0.000000  0.035143      2.000000
 -0.029165 -0.050515  0.035143      2.000000
 


--------------------------------------------------------------------------------------------------------




 Dimension of arrays:
   k-points           NKPTS =     26   k-points in BZ     NKDIM =     26   number of bands    NBANDS=    272
   number of dos      NEDOS =    301   number of ions     NIONS =     54
   non local maximal  LDIM  =      6   non local SUM 2l+1 LMDIM =     18
   total plane-waves  NPLWV = 286720
   max r-space proj   IRMAX =   6427   max aug-charges    IRDMAX=  15596
   dimension x,y,z NGX =    64 NGY =   64 NGZ =   70
   dimension x,y,z NGXF=   128 NGYF=  128 NGZF=  140
   support grid    NGXF=   128 NGYF=  128 NGZF=  140
   ions per type =              18  36
   NGX,Y,Z   is equivalent  to a cutoff of  12.41, 12.41, 12.27 a.u.
   NGXF,Y,Z  is equivalent  to a cutoff of  24.82, 24.82, 24.54 a.u.

 SYSTEM =  unknown system                          
 POSCAR =  NiO2_C2_m_scale_1_025_disp_0_20_round_2 

 Startparameter for this run:
   NWRITE =      1    write-flag & timer
   PREC   = accura    normal or accurate (medium, high low for compatibility)
   ISTART =      0    job   : 0-new  1-cont  2-samecut
   ICHARG =      2    charge: 1-file 2-atom 10-const
   ISPIN  =      2    spin polarized calculation?
   LNONCOLLINEAR =      F non collinear calculations
   LSORBIT =      F    spin-orbit coupling
   INIWAV =      1    electr: 0-lowe 1-rand  2-diag
   LASPH  =      F    aspherical Exc in radial PAW
   METAGGA=      F    non-selfconsistent MetaGGA calc.

 Electronic Relaxation 1
   ENCUT  =  500.0 eV  36.75 Ry    6.06 a.u.  15.63 15.63 17.29*2*pi/ulx,y,z
   ENINI  =  500.0     initial cutoff
   ENAUG  =  605.4 eV  augmentation charge cutoff
   NELM   =     80;   NELMIN=  2; NELMDL= -5     # of ELM steps 
   EDIFF  = 0.1E-04   stopping-criterion for ELM
   LREAL  =      T    real-space projection
   NLSPLINE    = F    spline interpolate recip. space projectors
   LCOMPAT=      F    compatible to vasp.4.4
   GGA_COMPAT  = T    GGA compatible to vasp.4.4-vasp.4.6
   LMAXPAW     = -100 max onsite density
   LMAXMIX     =    2 max onsite mixed and CHGCAR
   VOSKOWN=      1    Vosko Wilk Nusair interpolation
   ROPT   =   -0.00025  -0.00025
 Ionic relaxation
   EDIFFG = 0.1E-03   stopping-criterion for IOM
   NSW    =      0    number of steps for IOM
   NBLOCK =      1;   KBLOCK =      1    inner block; outer block 
   IBRION =     -1    ionic relax: 0-MD 1-quasi-New 2-CG
   NFREE  =      0    steps in history (QN), initial steepest desc. (CG)
   ISIF   =      2    stress and relaxation
   IWAVPR =     10    prediction:  0-non 1-charg 2-wave 3-comb
   ISYM   =      2    0-nonsym 1-usesym 2-fastsym
   LCORR  =      T    Harris-Foulkes like correction to forces

   POTIM  = 0.5000    time-step for ionic-motion
   TEIN   =    0.0    initial temperature
   TEBEG  =    0.0;   TEEND  =   0.0 temperature during run
   SMASS  =  -3.00    Nose mass-parameter (am)
   estimated Nose-frequenzy (Omega)   =  0.10E-29 period in steps =****** mass=  -0.168E-26a.u.
   SCALEE = 1.0000    scale energy and forces
   NPACO  =    256;   APACO  = 16.0  distance and # of slots for P.C.
   PSTRESS=    0.0 pullay stress

  Mass of Ions in am
   POMASS =  58.69 16.00
  Ionic Valenz
   ZVAL   =  10.00  6.00
  Atomic Wigner-Seitz radii
   RWIGS  =   1.15  0.73
  virtual crystal weights 
   VCA    =   1.00  1.00
   NELECT =     396.0000    total number of electrons
   NUPDOWN=      -1.0000    fix difference up-down

 DOS related values:
   EMIN   =  10.00;   EMAX   =-10.00  energy-range for DOS
   EFERMI =   0.00
   ISMEAR =     0;   SIGMA  =   0.05  broadening in eV -4-tet -1-fermi 0-gaus

 Electronic relaxation 2 (details)
   IALGO  =     38    algorithm
   LDIAG  =      T    sub-space diagonalisation (order eigenvalues)
   LSUBROT=      F    optimize rotation matrix (better conditioning)
   TURBO    =      0    0=normal 1=particle mesh
   IRESTART =      0    0=no restart 2=restart with 2 vectors
   NREBOOT  =      0    no. of reboots
   NMIN     =      0    reboot dimension
   EREF     =   0.00    reference energy to select bands
   IMIX   =      4    mixing-type and parameters
     AMIX     =   0.40;   BMIX     =  1.00
     AMIX_MAG =   1.60;   BMIX_MAG =  1.00
     AMIN     =   0.10
     WC   =   100.;   INIMIX=   1;  MIXPRE=   1;  MAXMIX= -45

 Intra band minimization:
   WEIMIN = 0.0000     energy-eigenvalue tresh-hold
   EBREAK =  0.92E-08  absolut break condition
   DEPER  =   0.30     relativ break condition  

   TIME   =   0.40     timestep for ELM

  volume/ion in A,a.u.               =      11.18        75.43
  Fermi-wavevector in a.u.,A,eV,Ry     =   1.422533  2.688198 27.532754  2.023600
  Thomas-Fermi vector in A             =   2.543227
 
 Write flags
   LWAVE        =      F    write WAVECAR
   LDOWNSAMPLE  =      F    k-point downsampling of WAVECAR
   LCHARG       =      T    write CHGCAR
   LVTOT        =      F    write LOCPOT, total local potential
   LVHAR        =      F    write LOCPOT, Hartree potential only
   LELF         =      F    write electronic localiz. function (ELF)
   LORBIT       =      0    0 simple, 1 ext, 2 COOP (PROOUT), +10 PAW based schemes


 Dipole corrections
   LMONO  =      F    monopole corrections only (constant potential shift)
   LDIPOL =      F    correct potential (dipole corrections)
   IDIPOL =      0    1-x, 2-y, 3-z, 4-all directions 
   EPSILON=  1.0000000 bulk dielectric constant

 Exchange correlation treatment:
   GGA     =    PS    GGA type
   LEXCH   =    14    internal setting for exchange type
   VOSKOWN=      1    Vosko Wilk Nusair interpolation
   LHFCALC =     F    Hartree Fock is set to
   LHFONE  =     F    Hartree Fock one center treatment
   AEXX    =    0.0000 exact exchange contribution

 Linear response parameters
   LEPSILON=     F    determine dielectric tensor
   LRPA    =     F    only Hartree local field effects (RPA)
   LNABLA  =     F    use nabla operator in PAW spheres
   LVEL    =     F    velocity operator in full k-point grid
   LINTERFAST=   F  fast interpolation
   KINTER  =     0    interpolate to denser k-point grid
   CSHIFT  =0.1000    complex shift for real part using Kramers Kronig
   OMEGAMAX=  -1.0    maximum frequency
   DEG_THRESHOLD= 0.2000000E-02 threshold for treating states as degnerate
   RTIME   =   -0.100 relaxation time in fs
  (WPLASMAI=    0.000 imaginary part of plasma frequency in eV, 0.658/RTIME)
   DFIELD  = 0.0000000 0.0000000 0.0000000 field for delta impulse in time
 
 Orbital magnetization related:
   ORBITALMAG=     F  switch on orbital magnetization
   LCHIMAG   =     F  perturbation theory with respect to B field
   DQ        =  0.001000  dq finite difference perturbation B field
   LLRAUG    =     F  two centre corrections for induced B field



--------------------------------------------------------------------------------------------------------


 Static calculation
 charge density and potential will be updated during run
 spin polarized calculation
 Variant of blocked Davidson
 Davidson routine will perform the subspace rotation
 perform sub-space diagonalisation
    after iterative eigenvector-optimisation
 modified Broyden-mixing scheme, WC =      100.0
 initial mixing is a Kerker type mixing with AMIX =  0.4000 and BMIX =      1.0000
 Hartree-type preconditioning will be used
 using additional bands           74
 real space projection scheme for non local part
 use partial core corrections
 calculate Harris-corrections to forces 
   (improved forces if not selfconsistent)
 use gradient corrections 
 use of overlap-Matrix (Vanderbilt PP)
 Gauss-broadening in eV      SIGMA  =   0.05


--------------------------------------------------------------------------------------------------------


  energy-cutoff  :      500.00
  volume of cell :      603.58
      direct lattice vectors                 reciprocal lattice vectors
     8.571941750  0.000000000  0.000000000     0.116659682  0.067353499  0.000000000
    -4.285970880  7.423519320  0.000000000     0.000000000  0.134706998  0.000000000
     0.000000000  0.000000000  9.485134750     0.000000000  0.000000000  0.105428128

  length of vectors
     8.571941750  8.571941757  9.485134750     0.134706998  0.134706998  0.105428128


 
 k-points in units of 2pi/SCALE and weight: Automatic mesh                          
   0.00000000  0.00000000  0.00000000       0.021
   0.02916492  0.01683837  0.00000000       0.042
   0.05832984  0.03367675  0.00000000       0.021
   0.00000000  0.03367675  0.00000000       0.042
   0.02916492  0.05051512  0.00000000       0.042
   0.05832984  0.06735350  0.00000000       0.042
  -0.02916492  0.01683837  0.00000000       0.042
   0.00000000  0.06735350  0.00000000       0.021
   0.02916492  0.08419187  0.00000000       0.042
   0.05832984  0.10103025  0.00000000       0.021
   0.00000000  0.00000000  0.03514271       0.042
   0.02916492  0.01683837  0.03514271       0.042
   0.05832984  0.03367675  0.03514271       0.042
  -0.02916492 -0.01683837  0.03514271       0.042
   0.00000000  0.03367675  0.03514271       0.042
   0.02916492  0.05051512  0.03514271       0.042
   0.05832984  0.06735350  0.03514271       0.042
  -0.02916492  0.01683837  0.03514271       0.042
   0.00000000  0.06735350  0.03514271       0.042
   0.02916492  0.08419187  0.03514271       0.042
   0.05832984  0.10103025  0.03514271       0.042
  -0.02916492  0.05051512  0.03514271       0.042
   0.00000000 -0.03367675  0.03514271       0.042
   0.02916492 -0.01683837  0.03514271       0.042
   0.05832984  0.00000000  0.03514271       0.042
  -0.02916492 -0.05051512  0.03514271       0.042
 
 k-points in reciprocal lattice and weights: Automatic mesh                          
   0.00000000  0.00000000  0.00000000       0.021
   0.25000000  0.00000000  0.00000000       0.042
   0.50000000  0.00000000  0.00000000       0.021
   0.00000000  0.25000000  0.00000000       0.042
   0.25000000  0.25000000  0.00000000       0.042
   0.50000000  0.25000000  0.00000000       0.042
  -0.25000000  0.25000000  0.00000000       0.042
   0.00000000  0.50000000  0.00000000       0.021
   0.25000000  0.50000000  0.00000000       0.042
   0.50000000  0.50000000  0.00000000       0.021
   0.00000000  0.00000000  0.33333333       0.042
   0.25000000  0.00000000  0.33333333       0.042
   0.50000000  0.00000000  0.33333333       0.042
  -0.25000000  0.00000000  0.33333333       0.042
   0.00000000  0.25000000  0.33333333       0.042
   0.25000000  0.25000000  0.33333333       0.042
   0.50000000  0.25000000  0.33333333       0.042
  -0.25000000  0.25000000  0.33333333       0.042
   0.00000000  0.50000000  0.33333333       0.042
   0.25000000  0.50000000  0.33333333       0.042
   0.50000000  0.50000000  0.33333333       0.042
  -0.25000000  0.50000000  0.33333333       0.042
   0.00000000 -0.25000000  0.33333333       0.042
   0.25000000 -0.25000000  0.33333333       0.042
   0.50000000 -0.25000000  0.33333333       0.042
  -0.25000000 -0.25000000  0.33333333       0.042
 
 position of ions in fractional coordinates (direct lattice) 
   0.98583220  0.99101858  0.00170988
   0.00187114  0.00775733  0.48503451
   0.97721867  0.30632577  0.98028270
   0.00917366  0.34168215  0.48224196
   0.98355085  0.61834001  0.97710971
   0.97850933  0.63172248  0.51455682
   0.32143263  0.06501073  0.00485599
   0.37353726  0.98979712  0.48525016
   0.26272355  0.25999054  0.02113988
   0.28632499  0.34363039  0.51013905
   0.30832765  0.64413178  0.99325838
   0.34563934  0.68832110  0.44921536
   0.67216963  0.99014105  0.99191085
   0.59073622  0.98003493  0.48659666
   0.64619526  0.34751237  0.99489095
   0.65085229  0.31603657  0.47828732
   0.65382656  0.63560443  0.00017927
   0.66149551  0.61629958  0.49422305
   0.08699912  0.21091062  0.08247337
   0.22358041  0.15822425  0.37436100
   0.07309391  0.19204648  0.61166156
   0.18514541  0.06102066  0.87812175
   0.17083995  0.59528460  0.08939094
   0.21083766  0.42795403  0.37306951
   0.12971955  0.56051059  0.60957453
   0.20903804  0.42237435  0.87240890
   0.08351345  0.86759733  0.09668543
   0.22245879  0.80163649  0.37980345
   0.13268331  0.85042719  0.59452209
   0.21085850  0.72037344  0.83843855
   0.43666896  0.21093530  0.08766409
   0.57226367  0.08429422  0.39480937
   0.40863031  0.18407315  0.58138945
   0.56701550  0.09954092  0.87765208
   0.39030131  0.52677235  0.08935522
   0.55769487  0.39667666  0.40538815
   0.44142492  0.54924575  0.58867164
   0.55342779  0.41516121  0.93118339
   0.41819320  0.84340859  0.08787163
   0.46441098  0.69578295  0.35538110
   0.40323321  0.82121876  0.59877446
   0.56898012  0.83696379  0.85784915
   0.75434834  0.18401483  0.11454491
   0.86063063  0.12430768  0.40266105
   0.74818742  0.22815287  0.59222058
   0.86799983  0.12637902  0.87591820
   0.76736065  0.52351999  0.08612926
   0.85473721  0.43339476  0.34709791
   0.72470642  0.54124248  0.58873916
   0.87967691  0.42697596  0.88542671
   0.69836407  0.83153337  0.10293231
   0.86841897  0.74968830  0.38817049
   0.70219703  0.84617919  0.59436246
   0.84879871  0.72802385  0.91308135
 
 position of ions in cartesian coordinates  (Angst):
   4.20301942  7.35684558  0.01621844
  -0.01720839  0.05758669  4.60061769
   7.06375819  2.27401527  9.29811350
  -1.38580367  2.53648404  4.57412997
   5.78075332  4.59025901  9.26801726
   5.68018083  4.68960404  4.88064077
   2.47666769  0.48260841  0.04605972
  -1.04030200  7.34777804  4.60266316
   1.13773908  1.93004480  0.20051461
   0.98157129  2.55094684  4.83873763
  -0.11776340  4.78172471  9.42118958
   0.01267610  5.10976498  4.26086822
   1.51808321  7.35033121  9.40840807
   0.86335530  7.27530824  4.61543489
   4.04972023  2.57976479  9.43667472
   4.22454438  2.34610358  4.53661968
   2.88038111  4.71842177  0.00170040
   3.02885893  4.57511184  4.68777223
  -0.15820539  1.56569906  0.78227103
   1.23837372  1.17458078  3.55086453
  -0.19654888  1.42566075  5.80169232
   1.32552290  0.45298805  8.32910313
  -1.08694236  4.41910673  0.84788511
  -0.02691037  3.17692501  3.53861457
  -1.29038364  4.16096119  5.78189656
  -0.01842226  3.13550415  8.27491597
  -3.00262446  6.44062554  0.91707433
  -1.52888686  5.95096397  3.60248690
  -2.50755257  6.31316268  5.63912214
  -1.28003281  5.34770615  7.95270263
   2.83903834  1.56588227  0.83150571
   4.54412827  0.62575977  3.74482008
   2.71382305  1.36647059  5.51455728
   4.43379435  0.73894394  8.32464824
   1.08790914  3.91050472  0.84754630
   3.08038333  2.94473685  3.84516123
   1.42981741  4.07733644  5.58362983
   2.96458192  3.08195726  8.83239993
  -0.03009691  6.26105996  0.83347425
   0.99879841  5.16515817  3.37083762
  -0.06322810  6.09633333  5.67945644
   1.29006201  6.21321687  8.13681478
   5.67754783  1.36603765  1.08647391
   6.84449653  0.92280046  3.81929432
   5.43556243  1.69369724  5.61729200
   6.89878718  0.93817710  8.30820216
   4.33397936  3.88636076  0.81694764
   5.46924025  3.21731437  3.29227045
   3.89239171  4.01792401  5.58427027
   5.71053270  3.16966429  8.39839166
   2.42240832  6.17290404  0.97632683
   4.23089460  5.56532558  3.68184940
   2.39249267  6.28162757  5.63760802
   4.15556408  5.40449912  8.66069964
 


--------------------------------------------------------------------------------------------------------


 k-point  1 :   0.0000 0.0000 0.0000  plane waves:   15335
 k-point  2 :   0.2500 0.0000 0.0000  plane waves:   15345
 k-point  3 :   0.5000 0.0000 0.0000  plane waves:   15328
 k-point  4 :   0.0000 0.2500 0.0000  plane waves:   15345
 k-point  5 :   0.2500 0.2500 0.0000  plane waves:   15308
 k-point  6 :   0.5000 0.2500 0.0000  plane waves:   15308
 k-point  7 :  -0.2500 0.2500 0.0000  plane waves:   15345
 k-point  8 :   0.0000 0.5000 0.0000  plane waves:   15328
 k-point  9 :   0.2500 0.5000 0.0000  plane waves:   15308
 k-point 10 :   0.5000 0.5000 0.0000  plane waves:   15328
 k-point 11 :   0.0000 0.0000 0.3333  plane waves:   15364
 k-point 12 :   0.2500 0.0000 0.3333  plane waves:   15329
 k-point 13 :   0.5000 0.0000 0.3333  plane waves:   15304
 k-point 14 :  -0.2500 0.0000 0.3333  plane waves:   15329
 k-point 15 :   0.0000 0.2500 0.3333  plane waves:   15329
 k-point 16 :   0.2500 0.2500 0.3333  plane waves:   15318
 k-point 17 :   0.5000 0.2500 0.3333  plane waves:   15318
 k-point 18 :  -0.2500 0.2500 0.3333  plane waves:   15329
 k-point 19 :   0.0000 0.5000 0.3333  plane waves:   15304
 k-point 20 :   0.2500 0.5000 0.3333  plane waves:   15318
 k-point 21 :   0.5000 0.5000 0.3333  plane waves:   15304
 k-point 22 :  -0.2500 0.5000 0.3333  plane waves:   15318
 k-point 23 :   0.0000-0.2500 0.3333  plane waves:   15329
 k-point 24 :   0.2500-0.2500 0.3333  plane waves:   15329
 k-point 25 :   0.5000-0.2500 0.3333  plane waves:   15318
 k-point 26 :  -0.2500-0.2500 0.3333  plane waves:   15318

 maximum and minimum number of plane-waves per node :     15364    15304

 maximum number of plane-waves:     15364
 maximum index in each direction: 
   IXMAX=   15   IYMAX=   15   IZMAX=   17
   IXMIN=  -16   IYMIN=  -16   IZMIN=  -17

 The following grids will avoid any aliasing or wrap around errors in the Hartre
 e energy
  - symmetry arguments have not been applied
  - exchange correlation energies might require even more grid points
  - we recommend to set PREC=Normal or Accurate and rely on VASP defaults
 NGX is ok and might be reduce to    64
 NGY is ok and might be reduce to    64
 NGZ is ok and might be reduce to    70

 serial   3D FFT for wavefunctions
 parallel 3D FFT for charge:
    minimum data exchange during FFTs selected (reduces bandwidth)


 total amount of memory used by VASP MPI-rank0   328708. kBytes
=======================================================================

   base      :      30000. kBytes
   nonlr-proj:      29999. kBytes
   fftplans  :       6058. kBytes
   grid      :      34668. kBytes
   one-center:       1679. kBytes
   wavefun   :     226304. kBytes
 
     INWAV:  cpu time    0.0000: real time    0.0000
 Broyden mixing: mesh for mixing (old mesh)
   NGX = 31   NGY = 31   NGZ = 35
  (NGX  =128   NGY  =128   NGZ  =140)
  gives a total of  33635 points

 initial charge density was supplied:
 charge density of overlapping atoms calculated
 number of electron     396.0000000 magnetization      45.0000000
 keeping initial charge density in first step


--------------------------------------------------------------------------------------------------------


 Maximum index for non-local projection operator         6204
 Maximum index for augmentation-charges         1025 (set IRDMAX)


--------------------------------------------------------------------------------------------------------


 First call to EWALD:  gamma=   0.210
 Maximum number of real-space cells 3x 3x 3
 Maximum number of reciprocal cells 3x 3x 3

    FEWALD:  cpu time    0.0026: real time    0.0026


--------------------------------------- Iteration      1(   1)  ---------------------------------------


    POTLOK:  cpu time    0.1788: real time    0.1819
    SETDIJ:  cpu time    0.0209: real time    0.0209
     EDDAV:  cpu time   77.3142: real time   77.4968
    --------------------------------------------
      LOOP:  cpu time   77.5166: real time   77.7024

 eigenvalue-minimisations  : 28288
 total energy-change (2. order) : 0.5078769E+04  (-0.1710187E+05)
 number of electron     396.0000000 magnetization      45.0000000
 augmentation part      396.0000000 magnetization      45.0000000

 Free energy of the ion-electron system (eV)
  ---------------------------------------------------
  alpha Z        PSCENC =      1149.28122492
  Ewald energy   TEWEN  =    -21408.12040867
  -Hartree energ DENC   =    -14059.13544721
  -exchange      EXHF   =         0.00000000
  -V(xc)+E(xc)   XCENC  =      1597.25080450
  PAW double counting   =     29771.88967665   -31027.00397701
  entropy T*S    EENTRO =        -0.00923134
  eigenvalues    EBANDS =      4164.23523734
  atomic energy  EATOM  =     34890.38139807
  Solvation  Ediel_sol  =         0.00000000
  ---------------------------------------------------
  free energy    TOTEN  =      5078.76927725 eV

  energy without entropy =     5078.77850859  energy(sigma->0) =     5078.77389292


--------------------------------------------------------------------------------------------------------




--------------------------------------- Iteration      1(   2)  ---------------------------------------


     EDDAV:  cpu time   80.0926: real time   80.2818
    --------------------------------------------
      LOOP:  cpu time   80.0932: real time   80.3020

 eigenvalue-minimisations  : 29056
 total energy-change (2. order) :-0.4402254E+04  (-0.3961553E+04)
 number of electron     396.0000000 magnetization      45.0000000
 augmentation part      396.0000000 magnetization      45.0000000

 Free energy of the ion-electron system (eV)
  ---------------------------------------------------
  alpha Z        PSCENC =      1149.28122492
  Ewald energy   TEWEN  =    -21408.12040867
  -Hartree energ DENC   =    -14059.13544721
  -exchange      EXHF   =         0.00000000
  -V(xc)+E(xc)   XCENC  =      1597.25080450
  PAW double counting   =     29771.88967665   -31027.00397701
  entropy T*S    EENTRO =        -0.03059170
  eigenvalues    EBANDS =      -237.99733770
  atomic energy  EATOM  =     34890.38139807
  Solvation  Ediel_sol  =         0.00000000
  ---------------------------------------------------
  free energy    TOTEN  =       676.51534185 eV

  energy without entropy =      676.54593355  energy(sigma->0) =      676.53063770


--------------------------------------------------------------------------------------------------------




--------------------------------------- Iteration      1(   3)  ---------------------------------------


     EDDAV:  cpu time   80.7885: real time   80.9991
    --------------------------------------------
      LOOP:  cpu time   80.7883: real time   80.9794

 eigenvalue-minimisations  : 29824
 total energy-change (2. order) :-0.1000648E+04  (-0.8876434E+03)
 number of electron     396.0000000 magnetization      45.0000000
 augmentation part      396.0000000 magnetization      45.0000000

 Free energy of the ion-electron system (eV)
  ---------------------------------------------------
  alpha Z        PSCENC =      1149.28122492
  Ewald energy   TEWEN  =    -21408.12040867
  -Hartree energ DENC   =    -14059.13544721
  -exchange      EXHF   =         0.00000000
  -V(xc)+E(xc)   XCENC  =      1597.25080450
  PAW double counting   =     29771.88967665   -31027.00397701
  entropy T*S    EENTRO =        -0.06333547
  eigenvalues    EBANDS =     -1238.61285692
  atomic energy  EATOM  =     34890.38139807
  Solvation  Ediel_sol  =         0.00000000
  ---------------------------------------------------
  free energy    TOTEN  =      -324.13292114 eV

  energy without entropy =     -324.06958567  energy(sigma->0) =     -324.10125341


--------------------------------------------------------------------------------------------------------




--------------------------------------- Iteration      1(   4)  ---------------------------------------


     EDDAV:  cpu time   86.1642: real time   86.3679
    --------------------------------------------
      LOOP:  cpu time   86.1640: real time   86.3677

 eigenvalue-minimisations  : 32416
 total energy-change (2. order) :-0.9502082E+02  (-0.9237159E+02)
 number of electron     396.0000000 magnetization      45.0000000
 augmentation part      396.0000000 magnetization      45.0000000

 Free energy of the ion-electron system (eV)
  ---------------------------------------------------
  alpha Z        PSCENC =      1149.28122492
  Ewald energy   TEWEN  =    -21408.12040867
  -Hartree energ DENC   =    -14059.13544721
  -exchange      EXHF   =         0.00000000
  -V(xc)+E(xc)   XCENC  =      1597.25080450
  PAW double counting   =     29771.88967665   -31027.00397701
  entropy T*S    EENTRO =        -0.05296633
  eigenvalues    EBANDS =     -1333.64404367
  atomic energy  EATOM  =     34890.38139807
  Solvation  Ediel_sol  =         0.00000000
  ---------------------------------------------------
  free energy    TOTEN  =      -419.15373875 eV

  energy without entropy =     -419.10077242  energy(sigma->0) =     -419.12725559


--------------------------------------------------------------------------------------------------------




--------------------------------------- Iteration      1(   5)  ---------------------------------------


     EDDAV:  cpu time   85.6041: real time   85.8063
    CHARGE:  cpu time    3.3086: real time    3.3164
    MIXING:  cpu time    0.0046: real time    0.0046
    --------------------------------------------
      LOOP:  cpu time   88.9145: real time   89.1246

 eigenvalue-minimisations  : 32128
 total energy-change (2. order) :-0.2317956E+01  (-0.2307649E+01)
 number of electron     396.0000042 magnetization      47.5348817
 augmentation part      111.8379687 magnetization      34.4972907

 Broyden mixing:
  rms(total) = 0.16582E+02    rms(broyden)= 0.16581E+02
  rms(prec ) = 0.19295E+02
  weight for this iteration     100.00

 Free energy of the ion-electron system (eV)
  ---------------------------------------------------
  alpha Z        PSCENC =      1149.28122492
  Ewald energy   TEWEN  =    -21408.12040867
  -Hartree energ DENC   =    -14059.13544721
  -exchange      EXHF   =         0.00000000
  -V(xc)+E(xc)   XCENC  =      1597.25080450
  PAW double counting   =     29771.88967665   -31027.00397701
  entropy T*S    EENTRO =        -0.05287129
  eigenvalues    EBANDS =     -1335.96209446
  atomic energy  EATOM  =     34890.38139807
  Solvation  Ediel_sol  =         0.00000000
  ---------------------------------------------------
  free energy    TOTEN  =      -421.47169451 eV

  energy without entropy =     -421.41882321  energy(sigma->0) =     -421.44525886


--------------------------------------------------------------------------------------------------------




--------------------------------------- Iteration      1(   6)  ---------------------------------------


    POTLOK:  cpu time    0.1586: real time    0.1590
    SETDIJ:  cpu time    0.0216: real time    0.0216
     EDDAV:  cpu time  109.7815: real time  110.0407
    CHARGE:  cpu time    3.2442: real time    3.2518
    MIXING:  cpu time    0.0039: real time    0.0039
    --------------------------------------------
      LOOP:  cpu time  113.2097: real time  113.4770

 eigenvalue-minimisations  : 44080
 total energy-change (2. order) :-0.1777015E+03  (-0.1113662E+03)
 number of electron     396.0000040 magnetization      41.6439137
 augmentation part      153.1267168 magnetization      39.3071090

 Broyden mixing:
  rms(total) = 0.27936E+02    rms(broyden)= 0.27935E+02
  rms(prec ) = 0.30710E+02
  weight for this iteration     100.00

 eigenvalues of (default mixing * dielectric matrix)
  average eigenvalue GAMMA=   0.2146
  0.2146

 Free energy of the ion-electron system (eV)
  ---------------------------------------------------
  alpha Z        PSCENC =      1149.28122492
  Ewald energy   TEWEN  =    -21408.12040867
  -Hartree energ DENC   =    -13321.00161639
  -exchange      EXHF   =         0.00000000
  -V(xc)+E(xc)   XCENC  =      1609.11986208
  PAW double counting   =     33709.58543042   -34749.53034613
  entropy T*S    EENTRO =        -0.03635673
  eigenvalues    EBANDS =     -2478.85239968
  atomic energy  EATOM  =     34890.38139807
  Solvation  Ediel_sol  =         0.00000000
  ---------------------------------------------------
  free energy    TOTEN  =      -599.17321213 eV

  energy without entropy =     -599.13685540  energy(sigma->0) =     -599.15503376


--------------------------------------------------------------------------------------------------------




--------------------------------------- Iteration      1(   7)  ---------------------------------------


    POTLOK:  cpu time    0.1570: real time    0.1574
    SETDIJ:  cpu time    0.0224: real time    0.0225
     EDDAV:  cpu time   96.3288: real time   96.5563
    CHARGE:  cpu time    3.3208: real time    3.3522
    MIXING:  cpu time    0.0039: real time    0.0039
    --------------------------------------------
      LOOP:  cpu time   99.8329: real time  100.0922

 eigenvalue-minimisations  : 37632
 total energy-change (2. order) : 0.2315851E+03  (-0.4147420E+02)
 number of electron     396.0000033 magnetization      34.9731074
 augmentation part      143.7569014 magnetization      29.1473104

 Broyden mixing:
  rms(total) = 0.12822E+02    rms(broyden)= 0.12821E+02
  rms(prec ) = 0.15316E+02
  weight for this iteration     100.00

 eigenvalues of (default mixing * dielectric matrix)
  average eigenvalue GAMMA=   0.5383
  0.5383  0.5383

 Free energy of the ion-electron system (eV)
  ---------------------------------------------------
  alpha Z        PSCENC =      1149.28122492
  Ewald energy   TEWEN  =    -21408.12040867
  -Hartree energ DENC   =    -13582.30073153
  -exchange      EXHF   =         0.00000000
  -V(xc)+E(xc)   XCENC  =      1595.71082068
  PAW double counting   =     35389.80503000   -36572.43856030
  entropy T*S    EENTRO =        -0.05442355
  eigenvalues    EBANDS =     -1829.85248331
  atomic energy  EATOM  =     34890.38139807
  Solvation  Ediel_sol  =         0.00000000
  ---------------------------------------------------
  free energy    TOTEN  =      -367.58813371 eV

  energy without entropy =     -367.53371016  energy(sigma->0) =     -367.56092193


--------------------------------------------------------------------------------------------------------




--------------------------------------- Iteration      1(   8)  ---------------------------------------


    POTLOK:  cpu time    0.1598: real time    0.1601
    SETDIJ:  cpu time    0.0220: real time    0.0220
     EDDAV:  cpu time  115.7964: real time  116.0714
    CHARGE:  cpu time    3.5088: real time    3.5423
    MIXING:  cpu time    0.0039: real time    0.0039
    --------------------------------------------
      LOOP:  cpu time  119.4907: real time  119.7998

 eigenvalue-minimisations  : 45120
 total energy-change (2. order) :-0.2926702E+02  (-0.2831991E+02)
 number of electron     396.0000044 magnetization      29.4414437
 augmentation part      137.6316037 magnetization      25.1198408

 Broyden mixing:
  rms(total) = 0.15312E+02    rms(broyden)= 0.15310E+02
  rms(prec ) = 0.19910E+02
  weight for this iteration     100.00

 eigenvalues of (default mixing * dielectric matrix)
  average eigenvalue GAMMA=   0.4845
  0.6299  0.6299  0.1938

 Free energy of the ion-electron system (eV)
  ---------------------------------------------------
  alpha Z        PSCENC =      1149.28122492
  Ewald energy   TEWEN  =    -21408.12040867
  -Hartree energ DENC   =    -13652.65481852
  -exchange      EXHF   =         0.00000000
  -V(xc)+E(xc)   XCENC  =      1586.07946786
  PAW double counting   =     36730.53256327   -38023.61793784
  entropy T*S    EENTRO =        -0.03904945
  eigenvalues    EBANDS =     -1668.69759109
  atomic energy  EATOM  =     34890.38139807
  Solvation  Ediel_sol  =         0.00000000
  ---------------------------------------------------
  free energy    TOTEN  =      -396.85515145 eV

  energy without entropy =     -396.81610200  energy(sigma->0) =     -396.83562673


--------------------------------------------------------------------------------------------------------




--------------------------------------- Iteration      1(   9)  ---------------------------------------


    POTLOK:  cpu time    0.1646: real time    0.1650
    SETDIJ:  cpu time    0.0223: real time    0.0223
     EDDAV:  cpu time  102.5793: real time  102.8219
    CHARGE:  cpu time    3.1314: real time    3.1389
    MIXING:  cpu time    0.0041: real time    0.0041
    --------------------------------------------
      LOOP:  cpu time  105.9016: real time  106.1521

 eigenvalue-minimisations  : 39360
 total energy-change (2. order) : 0.2570492E+02  (-0.3048840E+02)
 number of electron     396.0000049 magnetization      26.2817487
 augmentation part      119.2489656 magnetization      21.2005450

 Broyden mixing:
  rms(total) = 0.14048E+02    rms(broyden)= 0.14047E+02
  rms(prec ) = 0.19751E+02
  weight for this iteration     100.00

 eigenvalues of (default mixing * dielectric matrix)
  average eigenvalue GAMMA=   0.4242
  0.6502  0.6502  0.1982  0.1982

 Free energy of the ion-electron system (eV)
  ---------------------------------------------------
  alpha Z        PSCENC =      1149.28122492
  Ewald energy   TEWEN  =    -21408.12040867
  -Hartree energ DENC   =    -13759.14911511
  -exchange      EXHF   =         0.00000000
  -V(xc)+E(xc)   XCENC  =      1583.95040548
  PAW double counting   =     38207.79385856   -39563.74356316
  entropy T*S    EENTRO =        -0.05813012
  eigenvalues    EBANDS =     -1471.48590125
  atomic energy  EATOM  =     34890.38139807
  Solvation  Ediel_sol  =         0.00000000
  ---------------------------------------------------
  free energy    TOTEN  =      -371.15023128 eV

  energy without entropy =     -371.09210116  energy(sigma->0) =     -371.12116622


--------------------------------------------------------------------------------------------------------




--------------------------------------- Iteration      1(  10)  ---------------------------------------


    POTLOK:  cpu time    0.1582: real time    0.1586
    SETDIJ:  cpu time    0.0228: real time    0.0229
     EDDAV:  cpu time  100.6974: real time  100.9353
    CHARGE:  cpu time    3.2849: real time    3.2927
    MIXING:  cpu time    0.0041: real time    0.0042
    --------------------------------------------
      LOOP:  cpu time  104.1675: real time  104.4136

 eigenvalue-minimisations  : 39360
 total energy-change (2. order) : 0.3902397E+02  (-0.1279151E+02)
 number of electron     396.0000038 magnetization      21.4613917
 augmentation part      121.8099502 magnetization      17.6320491

 Broyden mixing:
  rms(total) = 0.96178E+01    rms(broyden)= 0.96168E+01
  rms(prec ) = 0.14352E+02
  weight for this iteration     100.00

 eigenvalues of (default mixing * dielectric matrix)
  average eigenvalue GAMMA=   0.4351
  0.9702  0.4781  0.3071  0.3071  0.1127

 Free energy of the ion-electron system (eV)
  ---------------------------------------------------
  alpha Z        PSCENC =      1149.28122492
  Ewald energy   TEWEN  =    -21408.12040867
  -Hartree energ DENC   =    -13737.88313926
  -exchange      EXHF   =         0.00000000
  -V(xc)+E(xc)   XCENC  =      1582.18263072
  PAW double counting   =     38973.76633566   -40341.96377613
  entropy T*S    EENTRO =        -0.05272505
  eigenvalues    EBANDS =     -1439.71779807
  atomic energy  EATOM  =     34890.38139807
  Solvation  Ediel_sol  =         0.00000000
  ---------------------------------------------------
  free energy    TOTEN  =      -332.12625782 eV

  energy without entropy =     -332.07353277  energy(sigma->0) =     -332.09989529


--------------------------------------------------------------------------------------------------------




--------------------------------------- Iteration      1(  11)  ---------------------------------------


    POTLOK:  cpu time    0.1538: real time    0.1542
    SETDIJ:  cpu time    0.0213: real time    0.0214
     EDDAV:  cpu time   98.4283: real time   98.6610
    CHARGE:  cpu time    3.2355: real time    3.2696
    MIXING:  cpu time    0.0042: real time    0.0042
    --------------------------------------------
      LOOP:  cpu time  101.8431: real time  102.1103

 eigenvalue-minimisations  : 38672
 total energy-change (2. order) :-0.7316055E+01  (-0.1608184E+02)
 number of electron     396.0000041 magnetization      16.6587397
 augmentation part      123.3644683 magnetization      12.6748324

 Broyden mixing:
  rms(total) = 0.11768E+02    rms(broyden)= 0.11767E+02
  rms(prec ) = 0.16172E+02
  weight for this iteration     100.00

 eigenvalues of (default mixing * dielectric matrix)
  average eigenvalue GAMMA=   0.4354
  1.2150  0.4456  0.3610  0.3610  0.1388  0.0911

 Free energy of the ion-electron system (eV)
  ---------------------------------------------------
  alpha Z        PSCENC =      1149.28122492
  Ewald energy   TEWEN  =    -21408.12040867
  -Hartree energ DENC   =    -13671.38938172
  -exchange      EXHF   =         0.00000000
  -V(xc)+E(xc)   XCENC  =      1580.58331704
  PAW double counting   =     39898.13660654   -41260.70308473
  entropy T*S    EENTRO =        -0.04579797
  eigenvalues    EBANDS =     -1517.56618611
  atomic energy  EATOM  =     34890.38139807
  Solvation  Ediel_sol  =         0.00000000
  ---------------------------------------------------
  free energy    TOTEN  =      -339.44231265 eV

  energy without entropy =     -339.39651467  energy(sigma->0) =     -339.41941366


--------------------------------------------------------------------------------------------------------




--------------------------------------- Iteration      1(  12)  ---------------------------------------


    POTLOK:  cpu time    0.1566: real time    0.1570
    SETDIJ:  cpu time    0.0219: real time    0.0219
     EDDAV:  cpu time   96.6160: real time   96.8442
    CHARGE:  cpu time    3.2703: real time    3.2780
    MIXING:  cpu time    0.0042: real time    0.0042
    --------------------------------------------
      LOOP:  cpu time  100.0689: real time  100.3053

 eigenvalue-minimisations  : 38064
 total energy-change (2. order) : 0.4235687E+02  (-0.7984172E+01)
 number of electron     396.0000042 magnetization      15.4758699
 augmentation part      130.9404820 magnetization      11.0204456

 Broyden mixing:
  rms(total) = 0.68213E+01    rms(broyden)= 0.68203E+01
  rms(prec ) = 0.10057E+02
  weight for this iteration     100.00

 eigenvalues of (default mixing * dielectric matrix)
  average eigenvalue GAMMA=   0.4445
  1.2418  0.6365  0.4083  0.4083  0.1998  0.1085  0.1085

 Free energy of the ion-electron system (eV)
  ---------------------------------------------------
  alpha Z        PSCENC =      1149.28122492
  Ewald energy   TEWEN  =    -21408.12040867
  -Hartree energ DENC   =    -13610.06784474
  -exchange      EXHF   =         0.00000000
  -V(xc)+E(xc)   XCENC  =      1580.27117643
  PAW double counting   =     40839.61302280   -42197.65257109
  entropy T*S    EENTRO =        -0.05936601
  eigenvalues    EBANDS =     -1540.73207739
  atomic energy  EATOM  =     34890.38139807
  Solvation  Ediel_sol  =         0.00000000
  ---------------------------------------------------
  free energy    TOTEN  =      -297.08544570 eV

  energy without entropy =     -297.02607969  energy(sigma->0) =     -297.05576269


--------------------------------------------------------------------------------------------------------




--------------------------------------- Iteration      1(  13)  ---------------------------------------


    POTLOK:  cpu time    0.1527: real time    0.1531
    SETDIJ:  cpu time    0.0221: real time    0.0222
     EDDAV:  cpu time   91.3242: real time   91.5398
    CHARGE:  cpu time    3.2492: real time    3.2569
    MIXING:  cpu time    0.0046: real time    0.0046
    --------------------------------------------
      LOOP:  cpu time   94.7528: real time   94.9765

 eigenvalue-minimisations  : 35536
 total energy-change (2. order) : 0.1368969E+02  (-0.9829097E+01)
 number of electron     396.0000040 magnetization      14.5686720
 augmentation part      131.5183703 magnetization       9.4663471

 Broyden mixing:
  rms(total) = 0.56060E+01    rms(broyden)= 0.56052E+01
  rms(prec ) = 0.78639E+01
  weight for this iteration     100.00

 eigenvalues of (default mixing * dielectric matrix)
  average eigenvalue GAMMA=   0.4380
  1.2916  0.7836  0.4340  0.4340  0.2232  0.1234  0.1234  0.0912

 Free energy of the ion-electron system (eV)
  ---------------------------------------------------
  alpha Z        PSCENC =      1149.28122492
  Ewald energy   TEWEN  =    -21408.12040867
  -Hartree energ DENC   =    -13607.06855854
  -exchange      EXHF   =         0.00000000
  -V(xc)+E(xc)   XCENC  =      1580.24501584
  PAW double counting   =     40945.92244633   -42300.18184059
  entropy T*S    EENTRO =        -0.06661810
  eigenvalues    EBANDS =     -1533.78841738
  atomic energy  EATOM  =     34890.38139807
  Solvation  Ediel_sol  =         0.00000000
  ---------------------------------------------------
  free energy    TOTEN  =      -283.39575814 eV

  energy without entropy =     -283.32914004  energy(sigma->0) =     -283.36244909


--------------------------------------------------------------------------------------------------------




--------------------------------------- Iteration      1(  14)  ---------------------------------------


    POTLOK:  cpu time    0.1533: real time    0.1536
    SETDIJ:  cpu time    0.0223: real time    0.0224
     EDDAV:  cpu time   98.8340: real time   99.0674
    CHARGE:  cpu time    3.2772: real time    3.2849
    MIXING:  cpu time    0.0050: real time    0.0050
    --------------------------------------------
      LOOP:  cpu time  102.2918: real time  102.5334

 eigenvalue-minimisations  : 39344
 total energy-change (2. order) : 0.6433472E+01  (-0.3671721E+01)
 number of electron     396.0000040 magnetization      13.0111357
 augmentation part      129.0369936 magnetization       8.2316506

 Broyden mixing:
  rms(total) = 0.47780E+01    rms(broyden)= 0.47774E+01
  rms(prec ) = 0.64932E+01
  weight for this iteration     100.00

 eigenvalues of (default mixing * dielectric matrix)
  average eigenvalue GAMMA=   0.4282
  1.4585  0.7788  0.4329  0.4329  0.2379  0.1513  0.1513  0.1052  0.1052

 Free energy of the ion-electron system (eV)
  ---------------------------------------------------
  alpha Z        PSCENC =      1149.28122492
  Ewald energy   TEWEN  =    -21408.12040867
  -Hartree energ DENC   =    -13633.80608353
  -exchange      EXHF   =         0.00000000
  -V(xc)+E(xc)   XCENC  =      1580.35373698
  PAW double counting   =     41028.25977346   -42383.84055941
  entropy T*S    EENTRO =        -0.06652697
  eigenvalues    EBANDS =     -1499.40484083
  atomic energy  EATOM  =     34890.38139807
  Solvation  Ediel_sol  =         0.00000000
  ---------------------------------------------------
  free energy    TOTEN  =      -276.96228599 eV

  energy without entropy =     -276.89575902  energy(sigma->0) =     -276.92902250


--------------------------------------------------------------------------------------------------------




--------------------------------------- Iteration      1(  15)  ---------------------------------------


    POTLOK:  cpu time    0.1521: real time    0.1525
    SETDIJ:  cpu time    0.0207: real time    0.0207
     EDDAV:  cpu time  104.6464: real time  104.8936
    CHARGE:  cpu time    3.2618: real time    3.2695
    MIXING:  cpu time    0.0052: real time    0.0052
    --------------------------------------------
      LOOP:  cpu time  108.0861: real time  108.3414

 eigenvalue-minimisations  : 42112
 total energy-change (2. order) : 0.3489121E+01  (-0.3507832E+01)
 number of electron     396.0000040 magnetization      10.9603451
 augmentation part      129.6335293 magnetization       6.5329492

 Broyden mixing:
  rms(total) = 0.29292E+01    rms(broyden)= 0.29284E+01
  rms(prec ) = 0.44471E+01
  weight for this iteration     100.00

 eigenvalues of (default mixing * dielectric matrix)
  average eigenvalue GAMMA=   0.4372
  1.4373  0.8251  0.5948  0.4033  0.4033  0.2252  0.1671  0.1117  0.1117  0.0932

 Free energy of the ion-electron system (eV)
  ---------------------------------------------------
  alpha Z        PSCENC =      1149.28122492
  Ewald energy   TEWEN  =    -21408.12040867
  -Hartree energ DENC   =    -13641.46298882
  -exchange      EXHF   =         0.00000000
  -V(xc)+E(xc)   XCENC  =      1580.40219236
  PAW double counting   =     41253.04836105   -42608.48131150
  entropy T*S    EENTRO =        -0.06277483
  eigenvalues    EBANDS =     -1488.45885750
  atomic energy  EATOM  =     34890.38139807
  Solvation  Ediel_sol  =         0.00000000
  ---------------------------------------------------
  free energy    TOTEN  =      -273.47316492 eV

  energy without entropy =     -273.41039009  energy(sigma->0) =     -273.44177750


--------------------------------------------------------------------------------------------------------




--------------------------------------- Iteration      1(  16)  ---------------------------------------


    POTLOK:  cpu time    0.1539: real time    0.1543
    SETDIJ:  cpu time    0.0214: real time    0.0214
     EDDAV:  cpu time  104.2845: real time  104.5307
    CHARGE:  cpu time    3.3584: real time    3.3664
    MIXING:  cpu time    0.0054: real time    0.0054
    --------------------------------------------
      LOOP:  cpu time  107.8236: real time  108.0782

 eigenvalue-minimisations  : 40576
 total energy-change (2. order) :-0.3206875E+00  (-0.2108536E+01)
 number of electron     396.0000039 magnetization       9.6646816
 augmentation part      130.7980453 magnetization       6.0465937

 Broyden mixing:
  rms(total) = 0.23994E+01    rms(broyden)= 0.23986E+01
  rms(prec ) = 0.32436E+01
  weight for this iteration     100.00

 eigenvalues of (default mixing * dielectric matrix)
  average eigenvalue GAMMA=   0.4298
  1.4584  0.7539  0.7539  0.4201  0.4201  0.2395  0.2243  0.1442  0.1101  0.1101
  0.0933

 Free energy of the ion-electron system (eV)
  ---------------------------------------------------
  alpha Z        PSCENC =      1149.28122492
  Ewald energy   TEWEN  =    -21408.12040867
  -Hartree energ DENC   =    -13637.91995232
  -exchange      EXHF   =         0.00000000
  -V(xc)+E(xc)   XCENC  =      1580.28059550
  PAW double counting   =     41492.52312999   -42842.90529478
  entropy T*S    EENTRO =        -0.04973125
  eigenvalues    EBANDS =     -1497.26481383
  atomic energy  EATOM  =     34890.38139807
  Solvation  Ediel_sol  =         0.00000000
  ---------------------------------------------------
  free energy    TOTEN  =      -273.79385237 eV

  energy without entropy =     -273.74412112  energy(sigma->0) =     -273.76898674


--------------------------------------------------------------------------------------------------------




--------------------------------------- Iteration      1(  17)  ---------------------------------------


    POTLOK:  cpu time    0.1563: real time    0.1567
    SETDIJ:  cpu time    0.0211: real time    0.0212
     EDDAV:  cpu time   98.6697: real time   98.9028
    CHARGE:  cpu time    3.3307: real time    3.3386
    MIXING:  cpu time    0.0058: real time    0.0058
    --------------------------------------------
      LOOP:  cpu time  102.1837: real time  102.4250

 eigenvalue-minimisations  : 38096
 total energy-change (2. order) : 0.1228842E+01  (-0.6761193E+00)
 number of electron     396.0000038 magnetization       8.6660164
 augmentation part      131.3009432 magnetization       4.7980623

 Broyden mixing:
  rms(total) = 0.16607E+01    rms(broyden)= 0.16603E+01
  rms(prec ) = 0.20548E+01
  weight for this iteration     100.00

 eigenvalues of (default mixing * dielectric matrix)
  average eigenvalue GAMMA=   0.4369
  1.5214  0.8092  0.5789  0.5789  0.4529  0.4529  0.1947  0.1947  0.1453  0.1106
  0.1106  0.0931

 Free energy of the ion-electron system (eV)
  ---------------------------------------------------
  alpha Z        PSCENC =      1149.28122492
  Ewald energy   TEWEN  =    -21408.12040867
  -Hartree energ DENC   =    -13635.04266180
  -exchange      EXHF   =         0.00000000
  -V(xc)+E(xc)   XCENC  =      1580.18642490
  PAW double counting   =     41653.75773210   -43002.28010939
  entropy T*S    EENTRO =        -0.04880334
  eigenvalues    EBANDS =     -1500.67980719
  atomic energy  EATOM  =     34890.38139807
  Solvation  Ediel_sol  =         0.00000000
  ---------------------------------------------------
  free energy    TOTEN  =      -272.56501039 eV

  energy without entropy =     -272.51620706  energy(sigma->0) =     -272.54060872


--------------------------------------------------------------------------------------------------------




--------------------------------------- Iteration      1(  18)  ---------------------------------------


    POTLOK:  cpu time    0.1561: real time    0.1564
    SETDIJ:  cpu time    0.0225: real time    0.0225
     EDDAV:  cpu time   98.0649: real time   98.2966
    CHARGE:  cpu time    3.2781: real time    3.3205
    MIXING:  cpu time    0.0057: real time    0.0057
    --------------------------------------------
      LOOP:  cpu time  101.5272: real time  101.8017

 eigenvalue-minimisations  : 38352
 total energy-change (2. order) : 0.1090029E+00  (-0.2735530E+00)
 number of electron     396.0000038 magnetization       7.7428798
 augmentation part      131.1508832 magnetization       3.7635392

 Broyden mixing:
  rms(total) = 0.15258E+01    rms(broyden)= 0.15256E+01
  rms(prec ) = 0.19018E+01
  weight for this iteration     100.00

 eigenvalues of (default mixing * dielectric matrix)
  average eigenvalue GAMMA=   0.4522
  1.5952  0.8509  0.7230  0.7230  0.4477  0.4477  0.2355  0.2355  0.1708  0.1354
  0.1106  0.1106  0.0933

 Free energy of the ion-electron system (eV)
  ---------------------------------------------------
  alpha Z        PSCENC =      1149.28122492
  Ewald energy   TEWEN  =    -21408.12040867
  -Hartree energ DENC   =    -13638.40502417
  -exchange      EXHF   =         0.00000000
  -V(xc)+E(xc)   XCENC  =      1580.17961785
  PAW double counting   =     41781.06928449   -43130.04780157
  entropy T*S    EENTRO =        -0.04672723
  eigenvalues    EBANDS =     -1496.74757121
  atomic energy  EATOM  =     34890.38139807
  Solvation  Ediel_sol  =         0.00000000
  ---------------------------------------------------
  free energy    TOTEN  =      -272.45600753 eV

  energy without entropy =     -272.40928029  energy(sigma->0) =     -272.43264391


--------------------------------------------------------------------------------------------------------




--------------------------------------- Iteration      1(  19)  ---------------------------------------


    POTLOK:  cpu time    0.1574: real time    0.1577
    SETDIJ:  cpu time    0.0214: real time    0.0214
     EDDAV:  cpu time   93.0243: real time   93.2439
    CHARGE:  cpu time    3.2601: real time    3.2678
    MIXING:  cpu time    0.0056: real time    0.0056
    --------------------------------------------
      LOOP:  cpu time   96.4687: real time   96.6965

 eigenvalue-minimisations  : 36080
 total energy-change (2. order) :-0.2343318E+00  (-0.3652560E+00)
 number of electron     396.0000038 magnetization       6.7726564
 augmentation part      130.8142286 magnetization       3.1594050

 Broyden mixing:
  rms(total) = 0.13346E+01    rms(broyden)= 0.13343E+01
  rms(prec ) = 0.18252E+01
  weight for this iteration     100.00

 eigenvalues of (default mixing * dielectric matrix)
  average eigenvalue GAMMA=   0.4821
  1.7955  0.9371  0.9371  0.7501  0.4731  0.4249  0.4249  0.2056  0.2056  0.1444
  0.1366  0.1106  0.1106  0.0931

 Free energy of the ion-electron system (eV)
  ---------------------------------------------------
  alpha Z        PSCENC =      1149.28122492
  Ewald energy   TEWEN  =    -21408.12040867
  -Hartree energ DENC   =    -13643.06211919
  -exchange      EXHF   =         0.00000000
  -V(xc)+E(xc)   XCENC  =      1580.17929422
  PAW double counting   =     41899.54273123   -43249.00011567
  entropy T*S    EENTRO =        -0.04727304
  eigenvalues    EBANDS =     -1491.84507114
  atomic energy  EATOM  =     34890.38139807
  Solvation  Ediel_sol  =         0.00000000
  ---------------------------------------------------
  free energy    TOTEN  =      -272.69033928 eV

  energy without entropy =     -272.64306624  energy(sigma->0) =     -272.66670276


--------------------------------------------------------------------------------------------------------




--------------------------------------- Iteration      1(  20)  ---------------------------------------


    POTLOK:  cpu time    0.1560: real time    0.1564
    SETDIJ:  cpu time    0.0221: real time    0.0222
     EDDAV:  cpu time   89.2196: real time   89.4303
    CHARGE:  cpu time    3.2769: real time    3.2846
    MIXING:  cpu time    0.0064: real time    0.0065
    --------------------------------------------
      LOOP:  cpu time   92.6810: real time   92.8999

 eigenvalue-minimisations  : 34192
 total energy-change (2. order) : 0.1607261E+00  (-0.2619013E+00)
 number of electron     396.0000038 magnetization       6.5613869
 augmentation part      130.6730154 magnetization       2.5925523

 Broyden mixing:
  rms(total) = 0.12158E+01    rms(broyden)= 0.12154E+01
  rms(prec ) = 0.16162E+01
  weight for this iteration     100.00

 eigenvalues of (default mixing * dielectric matrix)
  average eigenvalue GAMMA=   0.4820
  1.7379  1.0917  1.0917  0.6345  0.6345  0.4237  0.4237  0.2244  0.2244  0.1695
  0.1438  0.1106  0.1106  0.0931  0.1152

 Free energy of the ion-electron system (eV)
  ---------------------------------------------------
  alpha Z        PSCENC =      1149.28122492
  Ewald energy   TEWEN  =    -21408.12040867
  -Hartree energ DENC   =    -13646.33409281
  -exchange      EXHF   =         0.00000000
  -V(xc)+E(xc)   XCENC  =      1580.12331273
  PAW double counting   =     42018.92788436   -43368.35244312
  entropy T*S    EENTRO =        -0.04382420
  eigenvalues    EBANDS =     -1488.39266448
  atomic energy  EATOM  =     34890.38139807
  Solvation  Ediel_sol  =         0.00000000
  ---------------------------------------------------
  free energy    TOTEN  =      -272.52961321 eV

  energy without entropy =     -272.48578901  energy(sigma->0) =     -272.50770111


--------------------------------------------------------------------------------------------------------




--------------------------------------- Iteration      1(  21)  ---------------------------------------


    POTLOK:  cpu time    0.1529: real time    0.1533
    SETDIJ:  cpu time    0.0211: real time    0.0212
     EDDAV:  cpu time   95.8994: real time   96.1258
    CHARGE:  cpu time    3.0990: real time    3.1063
    MIXING:  cpu time    0.0063: real time    0.0063
    --------------------------------------------
      LOOP:  cpu time   99.1787: real time   99.4129

 eigenvalue-minimisations  : 37408
 total energy-change (2. order) : 0.1827008E+00  (-0.2344689E+00)
 number of electron     396.0000039 magnetization       6.0058718
 augmentation part      130.6787604 magnetization       2.3755146

 Broyden mixing:
  rms(total) = 0.93635E+00    rms(broyden)= 0.93602E+00
  rms(prec ) = 0.12480E+01
  weight for this iteration     100.00

 eigenvalues of (default mixing * dielectric matrix)
  average eigenvalue GAMMA=   0.4896
  1.8635  0.9424  0.9424  0.8890  0.8890  0.4254  0.4254  0.3284  0.1990  0.1990
  0.1644  0.1107  0.1107  0.0931  0.1338  0.1175

 Free energy of the ion-electron system (eV)
  ---------------------------------------------------
  alpha Z        PSCENC =      1149.28122492
  Ewald energy   TEWEN  =    -21408.12040867
  -Hartree energ DENC   =    -13646.28766355
  -exchange      EXHF   =         0.00000000
  -V(xc)+E(xc)   XCENC  =      1580.05019539
  PAW double counting   =     42040.23709149   -43388.67557427
  entropy T*S    EENTRO =        -0.04342452
  eigenvalues    EBANDS =     -1489.16975128
  atomic energy  EATOM  =     34890.38139807
  Solvation  Ediel_sol  =         0.00000000
  ---------------------------------------------------
  free energy    TOTEN  =      -272.34691242 eV

  energy without entropy =     -272.30348790  energy(sigma->0) =     -272.32520016


--------------------------------------------------------------------------------------------------------




--------------------------------------- Iteration      1(  22)  ---------------------------------------


    POTLOK:  cpu time    0.1588: real time    0.1592
    SETDIJ:  cpu time    0.0233: real time    0.0233
     EDDAV:  cpu time  100.8693: real time  101.1075
    CHARGE:  cpu time    3.1350: real time    3.1563
    MIXING:  cpu time    0.0067: real time    0.0067
    --------------------------------------------
      LOOP:  cpu time  104.1931: real time  104.4530

 eigenvalue-minimisations  : 39616
 total energy-change (2. order) : 0.7111236E-01  (-0.1625954E+00)
 number of electron     396.0000038 magnetization       5.7199630
 augmentation part      130.5225539 magnetization       2.0057886

 Broyden mixing:
  rms(total) = 0.85215E+00    rms(broyden)= 0.85187E+00
  rms(prec ) = 0.11416E+01
  weight for this iteration     100.00

 eigenvalues of (default mixing * dielectric matrix)
  average eigenvalue GAMMA=   0.4983
  2.0883  1.1464  0.9330  0.9330  0.7789  0.4302  0.4302  0.4118  0.2202  0.2202
  0.1775  0.1508  0.1106  0.1106  0.1314  0.0931  0.1054

 Free energy of the ion-electron system (eV)
  ---------------------------------------------------
  alpha Z        PSCENC =      1149.28122492
  Ewald energy   TEWEN  =    -21408.12040867
  -Hartree energ DENC   =    -13649.65139705
  -exchange      EXHF   =         0.00000000
  -V(xc)+E(xc)   XCENC  =      1580.10109416
  PAW double counting   =     42108.13350958   -43455.63579376
  entropy T*S    EENTRO =        -0.04335328
  eigenvalues    EBANDS =     -1486.72207401
  atomic energy  EATOM  =     34890.38139807
  Solvation  Ediel_sol  =         0.00000000
  ---------------------------------------------------
  free energy    TOTEN  =      -272.27580006 eV

  energy without entropy =     -272.23244677  energy(sigma->0) =     -272.25412342


--------------------------------------------------------------------------------------------------------




--------------------------------------- Iteration      1(  23)  ---------------------------------------


    POTLOK:  cpu time    0.1542: real time    0.1546
    SETDIJ:  cpu time    0.0210: real time    0.0211
     EDDAV:  cpu time  103.9820: real time  104.2278
    CHARGE:  cpu time    3.1744: real time    3.1978
    MIXING:  cpu time    0.0066: real time    0.0066
    --------------------------------------------
      LOOP:  cpu time  107.3384: real time  107.6080

 eigenvalue-minimisations  : 41440
 total energy-change (2. order) : 0.9992201E-01  (-0.6613928E-01)
 number of electron     396.0000038 magnetization       5.5982230
 augmentation part      130.5199425 magnetization       2.2065813

 Broyden mixing:
  rms(total) = 0.56588E+00    rms(broyden)= 0.56570E+00
  rms(prec ) = 0.74527E+00
  weight for this iteration     100.00

 eigenvalues of (default mixing * dielectric matrix)
  average eigenvalue GAMMA=   0.4966
  1.9958  1.5143  0.9323  0.9323  0.5533  0.5533  0.4379  0.4379  0.2844  0.2115
  0.2115  0.1630  0.1581  0.1106  0.1106  0.1317  0.0931  0.1065

 Free energy of the ion-electron system (eV)
  ---------------------------------------------------
  alpha Z        PSCENC =      1149.28122492
  Ewald energy   TEWEN  =    -21408.12040867
  -Hartree energ DENC   =    -13651.61404315
  -exchange      EXHF   =         0.00000000
  -V(xc)+E(xc)   XCENC  =      1580.16621430
  PAW double counting   =     42152.72478354   -43499.58477115
  entropy T*S    EENTRO =        -0.04851968
  eigenvalues    EBANDS =     -1485.36175623
  atomic energy  EATOM  =     34890.38139807
  Solvation  Ediel_sol  =         0.00000000
  ---------------------------------------------------
  free energy    TOTEN  =      -272.17587805 eV

  energy without entropy =     -272.12735837  energy(sigma->0) =     -272.15161821


--------------------------------------------------------------------------------------------------------




--------------------------------------- Iteration      1(  24)  ---------------------------------------


    POTLOK:  cpu time    0.1533: real time    0.1536
    SETDIJ:  cpu time    0.0208: real time    0.0209
     EDDAV:  cpu time  101.4502: real time  101.6899
    CHARGE:  cpu time    3.1818: real time    3.1893
    MIXING:  cpu time    0.0072: real time    0.0072
    --------------------------------------------
      LOOP:  cpu time  104.8133: real time  105.0610

 eigenvalue-minimisations  : 40192
 total energy-change (2. order) : 0.4696621E-01  (-0.3177330E-01)
 number of electron     396.0000038 magnetization       5.5424525
 augmentation part      130.5038177 magnetization       2.1099286

 Broyden mixing:
  rms(total) = 0.45896E+00    rms(broyden)= 0.45887E+00
  rms(prec ) = 0.61406E+00
  weight for this iteration     100.00

 eigenvalues of (default mixing * dielectric matrix)
  average eigenvalue GAMMA=   0.4933
  1.9629  1.6508  0.9434  0.9434  0.5336  0.5336  0.4424  0.4424  0.4232  0.2422
  0.2012  0.2012  0.1638  0.1106  0.1106  0.1404  0.1283  0.0931  0.1053

 Free energy of the ion-electron system (eV)
  ---------------------------------------------------
  alpha Z        PSCENC =      1149.28122492
  Ewald energy   TEWEN  =    -21408.12040867
  -Hartree energ DENC   =    -13653.33254331
  -exchange      EXHF   =         0.00000000
  -V(xc)+E(xc)   XCENC  =      1580.22608177
  PAW double counting   =     42159.79068025   -43506.11705206
  entropy T*S    EENTRO =        -0.04722979
  eigenvalues    EBANDS =     -1484.19106301
  atomic energy  EATOM  =     34890.38139807
  Solvation  Ediel_sol  =         0.00000000
  ---------------------------------------------------
  free energy    TOTEN  =      -272.12891184 eV

  energy without entropy =     -272.08168205  energy(sigma->0) =     -272.10529695


--------------------------------------------------------------------------------------------------------




--------------------------------------- Iteration      1(  25)  ---------------------------------------


    POTLOK:  cpu time    0.1538: real time    0.1542
    SETDIJ:  cpu time    0.0213: real time    0.0213
     EDDAV:  cpu time   99.4423: real time   99.6771
    CHARGE:  cpu time    3.1889: real time    3.1964
    MIXING:  cpu time    0.0072: real time    0.0072
    --------------------------------------------
      LOOP:  cpu time  102.8134: real time  103.0562

 eigenvalue-minimisations  : 39008
 total energy-change (2. order) : 0.2968082E-01  (-0.2058195E-01)
 number of electron     396.0000038 magnetization       5.4358415
 augmentation part      130.4028157 magnetization       2.1394562

 Broyden mixing:
  rms(total) = 0.40326E+00    rms(broyden)= 0.40319E+00
  rms(prec ) = 0.51824E+00
  weight for this iteration     100.00

 eigenvalues of (default mixing * dielectric matrix)
  average eigenvalue GAMMA=   0.4985
  2.0820  1.5311  0.9101  0.9101  0.7142  0.7142  0.5634  0.4239  0.4239  0.2789
  0.2091  0.2091  0.1681  0.1106  0.1106  0.0931  0.1491  0.1320  0.1320  0.1051

 Free energy of the ion-electron system (eV)
  ---------------------------------------------------
  alpha Z        PSCENC =      1149.28122492
  Ewald energy   TEWEN  =    -21408.12040867
  -Hartree energ DENC   =    -13655.52361020
  -exchange      EXHF   =         0.00000000
  -V(xc)+E(xc)   XCENC  =      1580.29289857
  PAW double counting   =     42162.01432174   -43508.21098462
  entropy T*S    EENTRO =        -0.04463571
  eigenvalues    EBANDS =     -1482.16943512
  atomic energy  EATOM  =     34890.38139807
  Solvation  Ediel_sol  =         0.00000000
  ---------------------------------------------------
  free energy    TOTEN  =      -272.09923102 eV

  energy without entropy =     -272.05459531  energy(sigma->0) =     -272.07691316


[...]
  in kB      332.1619009    200.1501263    196.2299552    -65.2867185    -36.7577553     59.4413688
  external PRESSURE =     242.8473275 kB  Pullay stress =       0.0000000 kB


 VOLUME and BASIS-vectors are now :
 -----------------------------------------------------------------------------
  energy-cutoff  :      500.00
  volume of cell :      603.58
      direct lattice vectors                 reciprocal lattice vectors
     8.571941750  0.000000000  0.000000000     0.116659682  0.067353499  0.000000000
    -4.285970880  7.423519320  0.000000000     0.000000000  0.134706998  0.000000000
     0.000000000  0.000000000  9.485134750     0.000000000  0.000000000  0.105428128

  length of vectors
     8.571941750  8.571941757  9.485134750     0.134706998  0.134706998  0.105428128


 FORCES acting on ions
    electron-ion (+dipol)            ewald-force                    non-local-force                 convergence-correction
 -----------------------------------------------------------------------------------------------
   0.123E+03 0.215E+03 0.934E+01   -.123E+03 -.222E+03 -.988E+01   -.218E+01 0.349E+01 -.669E+00   0.217E-01 0.929E-02 0.380E-01
   0.790E+01 0.219E+03 0.224E+01   -.883E+01 -.220E+03 -.370E+01   -.315E+00 -.105E+01 0.161E+01   0.358E-01 -.196E-01 -.955E-01
   0.431E+02 -.101E+03 -.499E+02   -.452E+02 0.103E+03 0.482E+02   0.122E+01 0.155E+01 0.343E+01   0.107E-02 0.496E-02 0.721E-01
   0.116E+03 0.168E+02 -.234E+02   -.120E+03 -.185E+02 0.236E+02   0.770E+00 0.625E+00 0.151E+01   -.382E-01 0.103E+00 -.147E+00
   -.581E+02 -.228E+03 0.834E+01   0.581E+02 0.234E+03 -.861E+01   0.722E+00 -.769E+00 0.197E+01   -.304E-01 -.102E-01 0.520E-01
   0.612E+02 -.377E+02 -.678E+02   -.586E+02 0.417E+02 0.673E+02   -.187E+01 -.176E+01 -.134E+01   -.199E-02 -.917E-01 -.815E-01
   -.208E+03 0.434E+03 0.800E+02   0.211E+03 -.465E+03 -.928E+02   -.312E+01 0.927E+01 0.194E+01   -.154E-01 0.472E-01 0.366E-01
   0.399E+03 -.775E+02 -.132E+02   -.421E+03 0.764E+02 0.177E+02   0.990E+01 -.174E+00 -.274E+01   -.291E-01 0.537E-01 -.525E-01
   -.701E+02 -.206E+03 0.402E+01   0.753E+02 0.223E+03 -.992E+01   0.323E+01 -.681E+01 -.374E+00   0.250E-01 -.984E-02 0.466E-01
   -.123E+03 0.106E+03 -.194E+03   0.127E+03 -.108E+03 0.195E+03   -.277E+00 -.651E+00 -.141E+01   0.156E-01 0.786E-02 -.132E+00
   -.161E+03 -.124E+03 0.261E+03   0.180E+03 0.131E+03 -.281E+03   -.185E+01 -.144E+01 0.201E+01   -.373E-03 -.172E-01 0.407E-01
   0.145E+03 0.149E+03 0.438E+02   -.170E+03 -.156E+03 -.242E+02   0.447E+01 0.369E+01 -.139E+01   -.508E-01 -.635E-01 -.525E-01
   0.383E+02 0.337E+02 -.652E+02   -.426E+02 -.334E+02 0.665E+02   -.892E-01 -.286E+00 -.138E+01   -.744E-03 0.204E-01 0.497E-01
   -.498E+03 0.115E+03 -.156E+03   0.534E+03 -.134E+03 0.185E+03   -.104E+02 0.822E+00 -.532E+01   -.312E-01 0.254E-01 -.728E-01
   -.242E+03 0.237E+03 0.991E+01   0.273E+03 -.257E+03 -.771E+00   -.339E+01 0.923E+00 0.120E+00   -.326E-01 0.224E-01 0.721E-01
   -.943E+02 -.474E+01 -.521E+02   0.107E+03 -.680E+00 0.591E+02   -.351E+01 0.347E+00 0.398E+00   -.966E-01 0.132E+00 -.234E+00
   0.188E+03 -.113E+03 0.267E+02   -.193E+03 0.118E+03 -.242E+02   -.725E+00 -.341E+01 -.997E+00   0.301E-01 -.431E-01 0.464E-01
   0.145E+03 -.299E+03 0.129E+03   -.164E+03 0.316E+03 -.145E+03   0.164E+01 -.318E+01 0.382E+00   0.714E-01 -.118E+00 -.134E+00
   0.158E+03 0.271E+02 -.401E+03   -.181E+03 -.287E+02 0.436E+03   0.116E+02 -.207E+01 -.290E+02   0.266E-01 0.137E-02 -.229E-04
   -.377E+02 0.111E+03 0.270E+03   0.457E+02 -.112E+03 -.287E+03   -.901E+01 0.190E+00 0.191E+02   0.235E-01 0.235E-01 -.740E-01
   0.216E+02 0.936E+02 -.351E+03   -.270E+02 -.958E+02 0.377E+03   0.538E+01 0.295E+01 -.280E+02   -.214E-01 0.397E-01 -.239E-01
   0.166E+02 0.824E+02 0.475E+03   -.212E+02 -.866E+02 -.509E+03   0.298E+01 0.446E+01 0.332E+02   0.655E-02 0.362E-02 0.706E-01
   0.213E+03 0.491E+02 -.398E+03   -.243E+03 -.600E+02 0.446E+03   0.105E+02 0.280E+01 -.337E+02   -.126E-01 -.170E-01 0.601E-02
   0.275E+02 0.230E+02 0.353E+03   -.258E+02 -.197E+02 -.382E+03   -.256E+01 -.331E+01 0.288E+02   -.666E-01 -.386E-01 -.496E-01
   0.231E+01 0.430E+02 -.284E+03   0.634E+01 -.410E+02 0.305E+03   -.995E+01 -.336E+01 -.235E+02   -.299E-01 -.409E-01 -.198E-01
   -.943E+02 -.109E+01 0.336E+03   0.101E+03 0.662E+00 -.355E+03   -.764E+01 0.429E+00 0.197E+02   0.891E-02 -.436E-02 0.566E-01
   -.414E+02 0.859E+02 -.286E+03   0.465E+02 -.940E+02 0.304E+03   -.464E+01 0.816E+01 -.197E+02   -.102E-01 0.594E-02 -.152E-01
   0.214E+03 0.236E+02 0.348E+03   -.229E+03 -.281E+02 -.368E+03   0.163E+02 0.302E+01 0.196E+02   -.448E-01 -.623E-02 -.531E-01
   0.137E+03 -.102E+03 -.274E+03   -.135E+03 0.111E+03 0.291E+03   -.369E+01 -.720E+01 -.176E+02   -.153E-02 -.129E-01 0.129E-01
   0.452E+02 -.120E+03 0.218E+03   -.459E+02 0.127E+03 -.235E+03   -.199E+00 -.767E+01 0.195E+02   -.149E-01 0.206E-02 0.405E-01
   -.117E+03 -.631E+02 -.441E+03   0.129E+03 0.894E+02 0.486E+03   -.688E+01 -.119E+02 -.305E+02   -.467E-02 0.214E-01 -.601E-02
   0.133E+02 -.167E+03 0.527E+03   -.259E+02 0.201E+03 -.587E+03   -.209E+01 -.140E+02 0.359E+02   -.244E-01 0.684E-01 -.641E-01
   0.116E+03 -.291E+02 -.345E+03   -.123E+03 0.344E+02 0.363E+03   0.854E+01 -.383E+01 -.178E+02   0.279E-01 0.221E-01 -.290E-01
   0.898E+02 0.151E+02 0.281E+03   -.930E+02 -.160E+02 -.297E+03   0.251E+01 0.142E+01 0.180E+02   -.215E-01 0.126E-01 0.664E-01
   -.101E+03 0.154E+02 -.243E+03   0.108E+03 -.192E+02 0.264E+03   -.397E+01 0.307E+01 -.208E+02   0.229E-01 -.265E-01 0.232E-02
   0.190E+03 -.219E+02 0.369E+03   -.220E+03 0.243E+02 -.399E+03   0.189E+02 0.325E+01 0.220E+02   0.687E-01 -.262E-01 -.673E-01
   -.183E+02 -.332E+02 -.358E+03   0.136E+02 0.451E+02 0.379E+03   0.434E+01 -.123E+02 -.214E+02   0.778E-02 -.146E-01 0.116E-01
   0.260E+03 -.493E+02 0.440E+03   -.307E+03 0.574E+02 -.479E+03   0.218E+02 0.283E+01 0.231E+02   0.122E-01 0.311E-02 0.661E-01
   0.590E+02 -.149E+03 -.224E+03   -.629E+02 0.162E+03 0.242E+03   0.498E+01 -.103E+02 -.179E+02   -.931E-02 0.675E-02 -.788E-02
   -.314E+03 -.338E+02 0.415E+03   0.357E+03 0.355E+02 -.462E+03   -.224E+02 0.114E+00 0.272E+02   0.337E-01 -.330E-01 -.894E-01
   -.874E+01 0.231E+02 -.457E+03   0.728E+01 -.292E+02 0.492E+03   0.168E+01 0.759E+01 -.344E+02   -.296E-01 0.678E-02 0.391E-01
   -.219E+02 0.116E+03 0.305E+03   0.194E+02 -.125E+03 -.327E+03   0.274E+01 0.673E+01 0.218E+02   -.914E-03 -.101E-01 0.561E-01
   0.227E+02 -.237E+02 -.308E+03   -.255E+02 0.285E+02 0.329E+03   0.367E+01 -.375E+01 -.227E+02   -.147E-01 0.311E-01 0.834E-02
   -.456E+02 0.126E+03 0.242E+03   0.407E+02 -.133E+03 -.259E+03   0.685E+01 0.604E+01 0.170E+02   0.641E-02 0.929E-01 -.611E-01
   -.113E+03 0.106E+01 -.363E+03   0.123E+03 -.578E+01 0.384E+03   -.809E+01 0.512E+01 -.213E+02   -.143E-01 0.674E-01 -.593E-01
   -.486E+02 0.969E+02 0.395E+03   0.491E+02 -.104E+03 -.426E+03   0.783E+00 0.386E+01 0.310E+02   0.732E-02 0.799E-03 0.618E-01
   -.728E+02 -.116E+03 -.419E+03   0.800E+02 0.129E+03 0.454E+03   -.496E+01 -.895E+01 -.293E+02   -.191E-01 -.167E-01 0.190E-01
   -.629E+02 -.606E+02 0.291E+03   0.652E+02 0.630E+02 -.311E+03   -.138E+01 -.223E+01 0.232E+02   -.143E-01 -.154E-01 -.147E-01
   -.135E+03 0.145E+02 -.490E+03   0.159E+03 -.327E+02 0.540E+03   -.704E+01 0.802E+01 -.331E+02   0.378E-01 -.438E-01 -.285E-01
   0.379E+02 0.507E+02 0.367E+03   -.416E+02 -.610E+02 -.396E+03   0.348E+01 0.772E+01 0.282E+02   -.170E-01 0.112E-01 0.555E-01
   -.560E+02 -.191E+02 -.329E+03   0.553E+02 0.188E+02 0.353E+03   0.277E+01 0.146E+01 -.247E+02   0.228E-01 -.204E-01 -.165E-01
   -.139E+02 -.129E+03 0.281E+03   0.187E+02 0.133E+03 -.303E+03   -.409E+01 -.296E+01 0.237E+02   0.246E-01 -.519E-01 -.643E-01
   -.120E+03 -.668E+02 -.232E+03   0.121E+03 0.689E+02 0.247E+03   0.567E+00 -.156E+01 -.167E+02   0.123E-01 -.112E-02 0.124E-01
   -.357E+02 -.127E+03 0.349E+03   0.419E+02 0.136E+03 -.372E+03   -.403E+01 -.644E+01 0.213E+02   -.784E-02 -.159E-01 0.553E-01
 -----------------------------------------------------------------------------------------------
   -.219E+02 0.213E+02 0.127E+02   0.583E-12 0.568E-13 0.114E-12   0.221E+02 -.213E+02 -.120E+02   -.156E+00 0.778E-01 -.652E+00
 
 
 POSITION                                       TOTAL-FORCE (eV/Angst)
 -----------------------------------------------------------------------------------
      4.20302      7.35685      0.01622        -1.708819     -4.132383     -1.179908
     -0.01721      0.05759      4.60062        -1.207731     -1.528724      0.065313
      7.06376      2.27402      9.29811        -0.961077      3.499505      1.786252
     -1.38580      2.53648      4.57413        -3.101043     -0.979860      1.510861
      5.78075      4.59026      9.26802         0.720161      5.992257      1.758349
      5.68018      4.68960      4.88064         0.718476      2.151669     -1.911702
      2.47667      0.48261      0.04606         0.304843    -21.560099    -10.809962
     -1.04030      7.34778      4.60266       -12.841177     -1.167000      1.752495
      1.13774      1.93004      0.20051         8.464490     10.626133     -6.227623
      0.98157      2.55095      4.83874         3.598494     -2.739883     -0.571973
     -0.11776      4.78172      9.42119        16.575023      6.159579    -18.344002
      0.01268      5.10976      4.26087       -20.697496     -3.867622     18.134967
      1.51808      7.35033      9.40841        -4.461300      0.108640      0.028876
      0.86336      7.27531      4.61543        26.172076    -18.815647     23.247459
      4.04972      2.57976      9.43667        27.205980    -19.140009      9.327741
      4.22454      2.34610      4.53662         9.479234     -4.937227      7.151047
      2.88038      4.71842      0.00170        -5.529828      1.280344      1.568326
      3.02886      4.57511      4.68777       -17.962419     13.471778    -15.644926
     -0.15821      1.56570      0.78227       -11.531014     -3.737882      5.998660
      1.23837      1.17458      3.55086        -1.068938     -1.359354      1.731343
     -0.19655      1.42566      5.80169        -0.043874      0.758338     -1.526795
      1.32552      0.45299      8.32910        -1.618244      0.285736     -1.043197
     -1.08694      4.41911      0.84789       -18.956469     -8.152240     14.157715
     -0.02691      3.17693      3.53861        -0.937302     -0.007357      0.405435
     -1.29038      4.16096      5.78190        -1.330996     -1.378729     -2.989714
     -0.01842      3.13550      8.27492        -1.026710     -0.007386      1.517715
     -3.00262      6.44063      0.91707         0.477595      0.051986     -1.000866
     -1.52889      5.95096      3.60249         0.694603     -1.508154     -0.558633
     -2.50755      6.31316      5.63912        -1.968254      1.002614     -0.662790
     -1.28003      5.34771      7.95270        -0.969897     -0.807522      2.507553
      2.83904      1.56588      0.83151         5.666889     14.355301     14.030711
      4.54413      0.62576      3.74482       -14.759408     20.136339    -23.696092
      2.71382      1.36647      5.51456         0.984527      1.434304      0.255871
      4.43379      0.73894      8.32465        -0.769094      0.544152      1.650481
      1.08791      3.91050      0.84755         2.977649     -0.770140      0.187245
      3.08038      2.94474      3.84516       -10.832942      5.700620     -8.171838
      1.42982      4.07734      5.58363        -0.369161     -0.415027     -0.146224
      2.96458      3.08196      8.83240       -24.651498     10.950907    -15.827911
     -0.03010      6.26106      0.83347         1.028827      3.101498      0.134200
      0.99880      5.16516      3.37084        21.190862      1.783437    -19.292630
     -0.06323      6.09633      5.67946         0.181200      1.542125      1.180013
      1.29006      6.21322      8.13681         0.296058     -2.254548      0.100854
      5.67755      1.36604      1.08647         0.835969      1.152851     -1.966758
      6.84450      0.92280      3.81929         1.998013     -0.999129      0.126305
      5.43556      1.69370      5.61729         1.654015      0.468273     -0.185765
      6.89879      0.93818      8.30820         1.352498     -3.254496     -0.163064
      4.33398      3.88636      0.81695         2.209805      4.496502      5.192849
      5.46924      3.21731      3.29227         0.953125      0.178598      3.367538
      3.89239      4.01792      5.58427        17.495371    -10.190778     16.746687
      5.71053      3.16966      8.39839        -0.235048     -2.551515     -0.780162
      2.42241      6.17290      0.97633         2.148699      1.203188     -0.483251
      4.23089      5.56533      3.68185         0.722803      0.647419      1.468828
      2.39249      6.28163      5.63761         1.332761      0.614085     -1.890268
      4.15556      5.40450      8.66070         2.099690      2.564532     -2.015634
 -----------------------------------------------------------------------------------
    total drift:                                0.021778      0.008031     -0.001031


--------------------------------------------------------------------------------------------------------



  FREE ENERGIE OF THE ION-ELECTRON SYSTEM (eV)
  ---------------------------------------------------
  free  energy   TOTEN  =      -272.0902095855 eV

  energy  without entropy=     -272.0501355601  energy(sigma->0) =     -272.07017257
 


--------------------------------------------------------------------------------------------------------


    POTLOK:  cpu time    0.1726: real time    0.1730


--------------------------------------------------------------------------------------------------------


     LOOP+:  cpu time 6700.0185: real time 6716.2475
    4ORBIT:  cpu time    0.0000: real time    0.0000

volume of typ            1:    19.0 %

volume of typ            2:     9.7 %
 
total charge     
 
# of ion       s       p       d       tot
------------------------------------------
    1        0.252   0.287   7.886   8.425
    2        0.223   0.227   7.813   8.262
    3        0.298   0.370   7.873   8.541
    4        0.258   0.312   7.826   8.396
    5        0.280   0.342   7.855   8.478
    6        0.244   0.266   7.837   8.347
    7        0.403   0.572   8.069   9.044
    8        0.319   0.451   7.955   8.724
    9        0.342   0.465   8.053   8.860
   10        0.294   0.373   7.850   8.518
   11        0.418   0.587   7.970   8.975
   12        0.428   0.621   8.031   9.080
   13        0.309   0.436   7.803   8.549
   14        0.417   0.604   8.155   9.176
   15        0.446   0.633   8.093   9.172
   16        0.360   0.556   7.928   8.844
   17        0.315   0.405   7.880   8.601
   18        0.405   0.539   8.004   8.948
   19        1.288   2.844   0.025   4.158
   20        1.301   2.631   0.005   3.937
   21        1.295   2.669   0.008   3.971
   22        1.295   2.708   0.012   4.015
   23        1.313   2.801   0.027   4.141
   24        1.302   2.694   0.010   4.006
   25        1.308   2.622   0.005   3.935
   26        1.302   2.635   0.004   3.940
   27        1.293   2.652   0.005   3.950
   28        1.299   2.677   0.008   3.985
   29        1.303   2.632   0.005   3.939
   30        1.314   2.579   0.003   3.896
   31        1.304   2.868   0.032   4.204
   32        1.315   2.902   0.042   4.259
   33        1.293   2.677   0.006   3.976
   34        1.308   2.610   0.004   3.922
   35        1.291   2.695   0.007   3.993
   36        1.300   2.809   0.020   4.128
   37        1.297   2.700   0.008   4.004
   38        1.303   2.906   0.034   4.243
   39        1.303   2.660   0.006   3.970
   40        1.323   2.809   0.029   4.162
   41        1.313   2.681   0.013   4.007
   42        1.310   2.623   0.006   3.939
   43        1.292   2.658   0.004   3.954
   44        1.297   2.656   0.005   3.958
   45        1.298   2.678   0.006   3.982
   46        1.300   2.696   0.011   4.008
   47        1.293   2.773   0.015   4.081
   48        1.304   2.610   0.004   3.918
   49        1.311   2.824   0.030   4.165
   50        1.290   2.735   0.011   4.036
   51        1.292   2.691   0.007   3.990
   52        1.291   2.662   0.005   3.958
   53        1.303   2.610   0.003   3.916
   54        1.286   2.732   0.010   4.027
--------------------------------------------------
tot          52.84  105.46  143.32  301.61
 
magnetization (x)
 
# of ion       s       p       d       tot
------------------------------------------
    1       -0.000  -0.001  -0.143  -0.144
    2       -0.003  -0.002   0.000  -0.004
    3       -0.001  -0.002  -0.047  -0.050
    4       -0.001  -0.002   0.133   0.129
    5       -0.002  -0.002  -0.030  -0.034
    6        0.001  -0.000   0.080   0.081
    7       -0.004  -0.006  -0.041  -0.051
    8       -0.002   0.000   0.231   0.229
    9       -0.004  -0.004   0.092   0.084
   10       -0.002   0.005   0.345   0.348
   11       -0.004  -0.008   0.148   0.136
   12       -0.002  -0.002   0.306   0.302
   13       -0.001  -0.002   0.112   0.109
   14       -0.003  -0.003   0.151   0.145
   15        0.001  -0.001   0.146   0.146
   16       -0.001  -0.002   0.092   0.089
   17       -0.005  -0.007  -0.339  -0.351
   18       -0.000   0.002  -0.093  -0.091
   19       -0.000   0.009  -0.000   0.009
   20        0.006   0.281  -0.000   0.286
   21        0.003   0.128  -0.000   0.131
   22       -0.001  -0.043  -0.000  -0.045
   23        0.002   0.092   0.000   0.094
   24        0.003   0.133   0.000   0.135
   25        0.000   0.023   0.000   0.023
   26        0.004   0.216  -0.000   0.220
   27        0.000   0.023  -0.000   0.023
   28        0.005   0.206   0.000   0.211
   29        0.003   0.165  -0.000   0.167
   30        0.008   0.431  -0.000   0.439
   31        0.000  -0.023  -0.000  -0.023
   32        0.000   0.020   0.000   0.020
   33        0.005   0.228  -0.000   0.233
   34        0.003   0.135   0.000   0.137
   35        0.002   0.104  -0.000   0.105
   36       -0.000   0.014   0.000   0.014
   37        0.001   0.024   0.000   0.024
   38        0.001   0.102   0.000   0.103
   39        0.003   0.183  -0.000   0.187
   40        0.004   0.212   0.001   0.216
   41        0.001   0.029   0.000   0.030
   42        0.007   0.375  -0.000   0.382
   43        0.000   0.013   0.000   0.013
   44        0.003   0.167  -0.000   0.170
   45        0.005   0.257  -0.000   0.262
   46       -0.001  -0.025  -0.000  -0.026
   47       -0.006  -0.152  -0.000  -0.158
   48       -0.000   0.003  -0.000   0.003
   49       -0.001  -0.063  -0.000  -0.064
   50        0.001   0.060  -0.000   0.061
   51        0.000   0.038  -0.000   0.038
   52       -0.000  -0.008  -0.000  -0.009
   53        0.001   0.069  -0.000   0.070
   54       -0.003  -0.087   0.000  -0.089
--------------------------------------------------
tot           0.03    3.30    1.14    4.47
 

 total amount of memory used by VASP MPI-rank0   328708. kBytes
=======================================================================

   base      :      30000. kBytes
   nonlr-proj:      29999. kBytes
   fftplans  :       6058. kBytes
   grid      :      34668. kBytes
   one-center:       1679. kBytes
   wavefun   :     226304. kBytes
 
  
  
 General timing and accounting informations for this job:
 ========================================================
  
                  Total CPU time used (sec):     6754.687
                            User time (sec):     6746.156
                          System time (sec):        8.531
                         Elapsed time (sec):     6774.910
  
                   Maximum memory used (kb):      399176.
                   Average memory used (kb):           0.
  
                          Minor page faults:        43136
                          Major page faults:           14
                 Voluntary context switches:         1175
