 vasp.5.4.4.18Apr17-6-g9f103f2a35 (build May 12 2020 04:58:55) complex          
  
 MD_VERSION_INFO: Compiled 2020-05-12T11:58:55-UTC in devlin.sd.materialsdesign.
 com:/home/medea2/data/build/wwolf/vasp-gpu5.4.4/13047/x86_64/src/src/build/std 
 from svn 13047
 
 This VASP executable licensed from Materials Design, Inc.
 
 executed on                        Lin64 date 2023.03.24  23:36:16
 running on   16 total cores
 distrk:  each k-point on   16 cores,    1 groups
 distr:  one band on NCORES_PER_BAND=   1 cores,   16 groups


--------------------------------------------------------------------------------------------------------


 INCAR:
 POTCAR:    PAW_PBE Ni 02Aug2007                  
 POTCAR:    PAW_PBE O 08Apr2002                   

 ----------------------------------------------------------------------------- 
|                                                                             |
|           W    W    AA    RRRRR   N    N  II  N    N   GGGG   !!!           |
|           W    W   A  A   R    R  NN   N  II  NN   N  G    G  !!!           |
|           W    W  A    A  R    R  N N  N  II  N N  N  G       !!!           |
|           W WW W  AAAAAA  RRRRR   N  N N  II  N  N N  G  GGG   !            |
|           WW  WW  A    A  R   R   N   NN  II  N   NN  G    G                |
|           W    W  A    A  R    R  N    N  II  N    N   GGGG   !!!           |
|                                                                             |
|      For optimal performance we recommend to set                            |
|        NCORE= 4 - approx SQRT( number of cores)                             |
|      NCORE specifies how many cores store one orbital (NPAR=cpu/NCORE).     |
|      This setting can  greatly improve the performance of VASP for DFT.     |
|      The default,   NCORE=1            might be grossly inefficient         |
|      on modern multi-core architectures or massively parallel machines.     |
|      Do your own testing !!!!                                               |
|      Unfortunately you need to use the default for GW and RPA calculations. |
|      (for HF NCORE is supported but not extensively tested yet)             |
|                                                                             |
 ----------------------------------------------------------------------------- 

 POTCAR:    PAW_PBE Ni 02Aug2007                  
  local pseudopotential read in
  partial core-charges read in
  partial kinetic energy density read in
  atomic valenz-charges read in
  non local Contribution for L=           2  read in
    real space projection operators read in
  non local Contribution for L=           2  read in
    real space projection operators read in
  non local Contribution for L=           0  read in
    real space projection operators read in
  non local Contribution for L=           0  read in
    real space projection operators read in
  non local Contribution for L=           1  read in
    real space projection operators read in
  non local Contribution for L=           1  read in
    real space projection operators read in
    PAW grid and wavefunctions read in
 
   number of l-projection  operators is LMAX  =           6
   number of lm-projection operators is LMMAX =          18
 
 POTCAR:    PAW_PBE O 08Apr2002                   
  local pseudopotential read in
  partial core-charges read in
  partial kinetic energy density read in
  kinetic energy density of atom read in
  atomic valenz-charges read in
  non local Contribution for L=           0  read in
    real space projection operators read in
  non local Contribution for L=           0  read in
    real space projection operators read in
  non local Contribution for L=           1  read in
    real space projection operators read in
  non local Contribution for L=           1  read in
    real space projection operators read in
    PAW grid and wavefunctions read in
 
   number of l-projection  operators is LMAX  =           4
   number of lm-projection operators is LMMAX =           8
 
 Optimization of the real space projectors (new method)

 maximal supplied QI-value         = 16.25
 optimisation between [QCUT,QGAM] = [ 11.38, 22.75] = [ 36.24,144.96] Ry 
 Optimized for a Real-space Cutoff    1.47 Angstroem

   l    n(q)    QCUT    max X(q) W(low)/X(q) W(high)/X(q)  e(spline) 
   2      9    11.376    60.317    0.17E-03    0.16E-04    0.16E-06
   2      9    11.376    55.921    0.17E-03    0.16E-04    0.17E-06
   0     10    11.376    51.690    0.45E-04    0.60E-04    0.21E-06
   0     10    11.376    30.015    0.37E-04    0.55E-04    0.19E-06
   1     10    11.376    18.849    0.83E-04    0.11E-03    0.92E-07
   1     10    11.376    14.624    0.69E-04    0.92E-04    0.82E-07
 Optimization of the real space projectors (new method)

 maximal supplied QI-value         = 24.76
 optimisation between [QCUT,QGAM] = [ 11.39, 22.77] = [ 36.31,145.25] Ry 
 Optimized for a Real-space Cutoff    1.10 Angstroem

   l    n(q)    QCUT    max X(q) W(low)/X(q) W(high)/X(q)  e(spline) 
   0      7    11.387    20.381    0.22E-03    0.48E-03    0.18E-06
   0      7    11.387    15.268    0.22E-03    0.52E-03    0.19E-06
   1      7    11.387     5.964    0.22E-03    0.73E-03    0.24E-06
   1      7    11.387     5.382    0.19E-03    0.60E-03    0.21E-06

 ----------------------------------------------------------------------------- 
|                                                                             |
|  ADVICE TO THIS USER RUNNING 'VASP/VAMP'   (HEAR YOUR MASTER'S VOICE ...):  |
|                                                                             |
|      You enforced a specific xc-type in the INCAR file,                     |
|      a different type was found on the POTCAR file                          |
|          I HOPE YOU KNOW, WHAT YOU ARE  DOING                               |
|                                                                             |
 ----------------------------------------------------------------------------- 

  PAW_PBE Ni 02Aug2007                  :
 energy of atom  1       EATOM=-1077.6739
 kinetic energy error for atom=    0.0030 (will be added to EATOM!!)
  PAW_PBE O 08Apr2002                   :
 energy of atom  2       EATOM= -432.3788
 kinetic energy error for atom=    0.0224 (will be added to EATOM!!)
 
 
 POSCAR: NiO2_C2_m_scale_1_000_disp_0_05_round_1 
  positions in direct lattice
  No initial velocities read in
 exchange correlation table for  LEXCH =       14
   RHO(1)=    0.500       N(1)  =     2000
   RHO(2)=  100.500       N(2)  =     4000
 


--------------------------------------------------------------------------------------------------------


 ion  position               nearest neighbor table
   1  0.995  0.989  0.997-  27 1.80  54 1.82  19 1.87  46 1.89  51 1.92  22 1.98  17 2.73  13 2.75
                             5 2.77   9 2.83   7 2.83   3 3.00
   2  0.998  0.995  0.503-  52 1.80  53 1.82  21 1.83  29 1.86  44 1.86  20 1.89   6 2.72   8 2.74
                            18 2.75  10 2.77  14 2.84   4 2.84
   3  0.002  0.351  0.999-  50 1.80  23 1.81  43 1.84  26 1.89  19 1.98  46 1.99   5 2.60  15 2.65
                            11 2.67   9 2.85  13 2.87   1 3.00
   4  0.997  0.334  0.498-  25 1.79  44 1.82  48 1.87  21 1.88  45 1.89  24 1.91  16 2.76   6 2.80
                            10 2.81  12 2.81   2 2.84  14 2.85
   5  0.998  0.659  0.994-  54 1.79  50 1.85  27 1.89  47 1.89  23 1.90  30 1.95   3 2.60  15 2.62
                            11 2.76   1 2.77  17 2.84   7 2.88
   6  0.015  0.678  0.497-  28 1.70  29 1.81  25 1.91  52 1.91  48 1.92  49 2.02  12 2.72   2 2.72
                             8 2.72   4 2.80  18 2.84  16 2.85
   7  0.342  0.004  0.999-  34 1.78  30 1.80  39 1.80  22 1.84  31 1.85  27 1.94   9 2.75  13 2.78
                            11 2.81   1 2.83  15 2.86   5 2.88
   8  0.334  0.011  0.503-  33 1.76  32 1.84  29 1.84  20 1.87  28 1.90  41 1.91  10 2.66   6 2.72
                             2 2.74  14 2.79  16 2.80  12 2.86
   9  0.332  0.329  1.000-  26 1.84  19 1.86  35 1.86  22 1.88  31 1.89  38 1.94   7 2.75  11 2.81
                            17 2.81   1 2.83   3 2.85  15 2.87
  10  0.329  0.326  0.505-  33 1.78  37 1.81  20 1.84  21 1.86  24 1.89  36 1.90   8 2.66   2 2.77
                            16 2.80   4 2.81  12 2.84  18 2.85
  11  0.329  0.663  0.999-  26 1.79  30 1.81  23 1.88  35 1.90  39 1.95  42 1.95   3 2.67   5 2.76
                            17 2.77   9 2.81   7 2.81  13 2.83
  12  0.335  0.669  0.506-  37 1.86  24 1.87  40 1.90  41 1.91  28 1.93  25 1.99  14 2.70   6 2.72
                            18 2.81   4 2.81  10 2.84   8 2.86
  13  0.671  0.997  0.001-  51 1.79  39 1.81  42 1.84  43 1.87  46 1.89  34 1.93  17 2.72   1 2.75
                             7 2.78  11 2.83  15 2.87   3 2.87
  14  0.658  0.993  0.499-  40 1.71  41 1.77  32 1.88  45 1.92  53 1.96  44 1.98  12 2.70  18 2.78
                             8 2.79   2 2.84   4 2.85  16 2.87
  15  0.683  0.346  0.996-  50 1.69  43 1.81  38 1.91  34 1.91  47 1.94  31 2.05   5 2.62   3 2.65
                            17 2.78   7 2.86  13 2.87   9 2.87
  16  0.671  0.342  0.490-  36 1.77  48 1.84  49 1.87  32 1.90  45 1.92  33 2.07  18 2.72   4 2.76
                            10 2.80   8 2.80   6 2.85  14 2.87
  17  0.663  0.668  0.007-  51 1.81  35 1.83  47 1.84  42 1.86  54 1.86  38 1.92  13 2.72   1 2.73
                            11 2.77  15 2.78   9 2.81   5 2.84
  18  0.669  0.667  0.504-  40 1.81  52 1.83  37 1.84  36 1.85  53 1.87  49 1.92  16 2.72   2 2.75
                            14 2.78  12 2.81   6 2.84  10 2.85
  19  0.107  0.214  0.098-   9 1.86   1 1.87   3 1.98
  20  0.219  0.115  0.395-  10 1.84   8 1.87   2 1.89
  21  0.103  0.215  0.599-   2 1.83  10 1.86   4 1.88
  22  0.233  0.109  0.891-   7 1.84   9 1.88   1 1.98
  23  0.112  0.557  0.110-   3 1.81  11 1.88   5 1.90
  24  0.229  0.449  0.400-  12 1.87  10 1.89   4 1.91
  25  0.094  0.538  0.608-   4 1.79   6 1.91  12 1.99
  26  0.231  0.449  0.902-  11 1.79   9 1.84   3 1.89
  27  0.105  0.884  0.096-   1 1.80   5 1.89   7 1.94
  28  0.216  0.782  0.402-   6 1.70   8 1.90  12 1.93
  29  0.114  0.888  0.603-   6 1.81   8 1.84   2 1.86
  30  0.240  0.789  0.902-   7 1.80  11 1.81   5 1.95
  31  0.441  0.217  0.109-   7 1.85   9 1.89  15 2.05
  32  0.548  0.108  0.398-   8 1.84  14 1.88  16 1.90
  33  0.427  0.215  0.606-   8 1.76  10 1.78  16 2.07
  34  0.553  0.112  0.900-   7 1.78  15 1.91  13 1.93
  35  0.442  0.550  0.103-  17 1.83   9 1.86  11 1.90
  36  0.557  0.447  0.403-  16 1.77  18 1.85  10 1.90
  37  0.444  0.548  0.595-  10 1.81  18 1.84  12 1.86
  38  0.560  0.449  0.890-  15 1.91  17 1.92   9 1.94
  39  0.454  0.901  0.097-   7 1.80  13 1.81  11 1.95
  40  0.569  0.785  0.411-  14 1.71  18 1.81  12 1.90
  41  0.453  0.901  0.604-  14 1.77   8 1.91  12 1.91
  42  0.564  0.782  0.895-  13 1.84  17 1.86  11 1.95
  43  0.780  0.227  0.094-  15 1.81   3 1.84  13 1.87
  44  0.900  0.117  0.400-   4 1.82   2 1.86  14 1.98
  45  0.773  0.222  0.603-   4 1.89  16 1.92  14 1.92
  46  0.893  0.112  0.894-   1 1.89  13 1.89   3 1.99
  47  0.784  0.571  0.109-  17 1.84   5 1.89  15 1.94
  48  0.893  0.449  0.392-  16 1.84   4 1.87   6 1.92
  49  0.778  0.548  0.611-  16 1.87  18 1.92   6 2.02
  50  0.878  0.436  0.896-  15 1.69   3 1.80   5 1.85
  51  0.769  0.886  0.103-  13 1.79  17 1.81   1 1.92
  52  0.885  0.782  0.401-   2 1.80  18 1.83   6 1.91
  53  0.786  0.888  0.608-   2 1.82  18 1.87  14 1.96
  54  0.885  0.767  0.906-   5 1.79   1 1.82  17 1.86
 
  LATTYP: Found a hexagonal cell.
 ALAT       =     8.3628700013
 C/A-ratio  =     1.1065328050
  
  Lattice vectors:
  
 A1 = (   8.3628700000,   0.0000000000,   0.0000000000)
 A2 = (  -4.1814350000,   7.2424578700,   0.0000000000)
 A3 = (   0.0000000000,   0.0000000000,   9.2537900000)


Analysis of symmetry for initial positions (statically):
=====================================================================
 Subroutine PRICEL returns:
 Original cell was already a primitive cell.
 

 Routine SETGRP: Setting up the symmetry group for a 
 hexagonal supercell.


 Subroutine GETGRP returns: Found  1 space group operations
 (whereof  1 operations were pure point group operations)
 out of a pool of 24 trial point group operations.


The static configuration has the point symmetry C_1 .


Analysis of symmetry for dynamics (positions and initial velocities):
=====================================================================
 Subroutine PRICEL returns:
 Original cell was already a primitive cell.
 

 Routine SETGRP: Setting up the symmetry group for a 
 hexagonal supercell.


 Subroutine GETGRP returns: Found  1 space group operations
 (whereof  1 operations were pure point group operations)
 out of a pool of 24 trial point group operations.


The dynamic configuration has the point symmetry C_1 .


Analysis of structural, dynamic, and magnetic symmetry:
=====================================================================
 Subroutine PRICEL returns:
 Original cell was already a primitive cell.
 

 Routine SETGRP: Setting up the symmetry group for a 
 hexagonal supercell.


 Subroutine GETGRP returns: Found  1 space group operations
 (whereof  1 operations were pure point group operations)
 out of a pool of 24 trial point group operations.


The magnetic configuration has the point symmetry C_1 .


 Subroutine INISYM returns: Found  1 space group operations
 (whereof  1 operations are pure point group operations),
 and found     1 'primitive' translations

 
 
 KPOINTS: Automatic mesh                          

Automatic generation of k-mesh.
Space group operators:
 irot       det(A)        alpha          n_x          n_y          n_z        tau_x        tau_y        tau_z
    1     1.000000     0.000000     1.000000     0.000000     0.000000     0.000000     0.000000     0.000000
 
 Subroutine IBZKPT returns following result:
 ===========================================
 
 Found     26 irreducible k-points:
 
 Following reciprocal coordinates:
            Coordinates               Weight
  0.000000  0.000000  0.000000      1.000000
  0.250000  0.000000  0.000000      2.000000
  0.500000  0.000000  0.000000      1.000000
  0.000000  0.250000  0.000000      2.000000
  0.250000  0.250000  0.000000      2.000000
  0.500000  0.250000  0.000000      2.000000
 -0.250000  0.250000  0.000000      2.000000
  0.000000  0.500000  0.000000      1.000000
  0.250000  0.500000  0.000000      2.000000
  0.500000  0.500000  0.000000      1.000000
  0.000000  0.000000  0.333333      2.000000
  0.250000  0.000000  0.333333      2.000000
  0.500000  0.000000  0.333333      2.000000
 -0.250000  0.000000  0.333333      2.000000
  0.000000  0.250000  0.333333      2.000000
  0.250000  0.250000  0.333333      2.000000
  0.500000  0.250000  0.333333      2.000000
 -0.250000  0.250000  0.333333      2.000000
  0.000000  0.500000  0.333333      2.000000
  0.250000  0.500000  0.333333      2.000000
  0.500000  0.500000  0.333333      2.000000
 -0.250000  0.500000  0.333333      2.000000
  0.000000 -0.250000  0.333333      2.000000
  0.250000 -0.250000  0.333333      2.000000
  0.500000 -0.250000  0.333333      2.000000
 -0.250000 -0.250000  0.333333      2.000000
 
 Following cartesian coordinates:
            Coordinates               Weight
  0.000000  0.000000  0.000000      1.000000
  0.029894  0.017259  0.000000      2.000000
  0.059788  0.034519  0.000000      1.000000
  0.000000  0.034519  0.000000      2.000000
  0.029894  0.051778  0.000000      2.000000
  0.059788  0.069037  0.000000      2.000000
 -0.029894  0.017259  0.000000      2.000000
  0.000000  0.069037  0.000000      1.000000
  0.029894  0.086297  0.000000      2.000000
  0.059788  0.103556  0.000000      1.000000
  0.000000  0.000000  0.036021      2.000000
  0.029894  0.017259  0.036021      2.000000
  0.059788  0.034519  0.036021      2.000000
 -0.029894 -0.017259  0.036021      2.000000
  0.000000  0.034519  0.036021      2.000000
  0.029894  0.051778  0.036021      2.000000
  0.059788  0.069037  0.036021      2.000000
 -0.029894  0.017259  0.036021      2.000000
  0.000000  0.069037  0.036021      2.000000
  0.029894  0.086297  0.036021      2.000000
  0.059788  0.103556  0.036021      2.000000
 -0.029894  0.051778  0.036021      2.000000
  0.000000 -0.034519  0.036021      2.000000
  0.029894 -0.017259  0.036021      2.000000
  0.059788  0.000000  0.036021      2.000000
 -0.029894 -0.051778  0.036021      2.000000
 


--------------------------------------------------------------------------------------------------------




 Dimension of arrays:
   k-points           NKPTS =     26   k-points in BZ     NKDIM =     26   number of bands    NBANDS=    272
   number of dos      NEDOS =    301   number of ions     NIONS =     54
   non local maximal  LDIM  =      6   non local SUM 2l+1 LMDIM =     18
   total plane-waves  NPLWV = 286720
   max r-space proj   IRMAX =   6918   max aug-charges    IRDMAX=  16780
   dimension x,y,z NGX =    64 NGY =   64 NGZ =   70
   dimension x,y,z NGXF=   128 NGYF=  128 NGZF=  140
   support grid    NGXF=   128 NGYF=  128 NGZF=  140
   ions per type =              18  36
   NGX,Y,Z   is equivalent  to a cutoff of  12.72, 12.72, 12.58 a.u.
   NGXF,Y,Z  is equivalent  to a cutoff of  25.45, 25.45, 25.15 a.u.

 SYSTEM =  unknown system                          
 POSCAR =  NiO2_C2_m_scale_1_000_disp_0_05_round_1 

 Startparameter for this run:
   NWRITE =      1    write-flag & timer
   PREC   = accura    normal or accurate (medium, high low for compatibility)
   ISTART =      0    job   : 0-new  1-cont  2-samecut
   ICHARG =      2    charge: 1-file 2-atom 10-const
   ISPIN  =      2    spin polarized calculation?
   LNONCOLLINEAR =      F non collinear calculations
   LSORBIT =      F    spin-orbit coupling
   INIWAV =      1    electr: 0-lowe 1-rand  2-diag
   LASPH  =      F    aspherical Exc in radial PAW
   METAGGA=      F    non-selfconsistent MetaGGA calc.

 Electronic Relaxation 1
   ENCUT  =  500.0 eV  36.75 Ry    6.06 a.u.  15.25 15.25 16.87*2*pi/ulx,y,z
   ENINI  =  500.0     initial cutoff
   ENAUG  =  605.4 eV  augmentation charge cutoff
   NELM   =     80;   NELMIN=  2; NELMDL= -5     # of ELM steps 
   EDIFF  = 0.1E-04   stopping-criterion for ELM
   LREAL  =      T    real-space projection
   NLSPLINE    = F    spline interpolate recip. space projectors
   LCOMPAT=      F    compatible to vasp.4.4
   GGA_COMPAT  = T    GGA compatible to vasp.4.4-vasp.4.6
   LMAXPAW     = -100 max onsite density
   LMAXMIX     =    2 max onsite mixed and CHGCAR
   VOSKOWN=      1    Vosko Wilk Nusair interpolation
   ROPT   =   -0.00025  -0.00025
 Ionic relaxation
   EDIFFG = 0.1E-03   stopping-criterion for IOM
   NSW    =      0    number of steps for IOM
   NBLOCK =      1;   KBLOCK =      1    inner block; outer block 
   IBRION =     -1    ionic relax: 0-MD 1-quasi-New 2-CG
   NFREE  =      0    steps in history (QN), initial steepest desc. (CG)
   ISIF   =      2    stress and relaxation
   IWAVPR =     10    prediction:  0-non 1-charg 2-wave 3-comb
   ISYM   =      2    0-nonsym 1-usesym 2-fastsym
   LCORR  =      T    Harris-Foulkes like correction to forces

   POTIM  = 0.5000    time-step for ionic-motion
   TEIN   =    0.0    initial temperature
   TEBEG  =    0.0;   TEEND  =   0.0 temperature during run
   SMASS  =  -3.00    Nose mass-parameter (am)
   estimated Nose-frequenzy (Omega)   =  0.10E-29 period in steps =****** mass=  -0.160E-26a.u.
   SCALEE = 1.0000    scale energy and forces
   NPACO  =    256;   APACO  = 16.0  distance and # of slots for P.C.
   PSTRESS=    0.0 pullay stress

  Mass of Ions in am
   POMASS =  58.69 16.00
  Ionic Valenz
   ZVAL   =  10.00  6.00
  Atomic Wigner-Seitz radii
   RWIGS  =   1.15  0.73
  virtual crystal weights 
   VCA    =   1.00  1.00
   NELECT =     396.0000    total number of electrons
   NUPDOWN=      -1.0000    fix difference up-down

 DOS related values:
   EMIN   =  10.00;   EMAX   =-10.00  energy-range for DOS
   EFERMI =   0.00
   ISMEAR =     0;   SIGMA  =   0.05  broadening in eV -4-tet -1-fermi 0-gaus

 Electronic relaxation 2 (details)
   IALGO  =     38    algorithm
   LDIAG  =      T    sub-space diagonalisation (order eigenvalues)
   LSUBROT=      F    optimize rotation matrix (better conditioning)
   TURBO    =      0    0=normal 1=particle mesh
   IRESTART =      0    0=no restart 2=restart with 2 vectors
   NREBOOT  =      0    no. of reboots
   NMIN     =      0    reboot dimension
   EREF     =   0.00    reference energy to select bands
   IMIX   =      4    mixing-type and parameters
     AMIX     =   0.40;   BMIX     =  1.00
     AMIX_MAG =   1.60;   BMIX_MAG =  1.00
     AMIN     =   0.10
     WC   =   100.;   INIMIX=   1;  MIXPRE=   1;  MAXMIX= -45

 Intra band minimization:
   WEIMIN = 0.0000     energy-eigenvalue tresh-hold
   EBREAK =  0.92E-08  absolut break condition
   DEPER  =   0.30     relativ break condition  

   TIME   =   0.40     timestep for ELM

  volume/ion in A,a.u.               =      10.38        70.04
  Fermi-wavevector in a.u.,A,eV,Ry     =   1.458096  2.755403 28.926600  2.126045
  Thomas-Fermi vector in A             =   2.574821
 
 Write flags
   LWAVE        =      F    write WAVECAR
   LDOWNSAMPLE  =      F    k-point downsampling of WAVECAR
   LCHARG       =      T    write CHGCAR
   LVTOT        =      F    write LOCPOT, total local potential
   LVHAR        =      F    write LOCPOT, Hartree potential only
   LELF         =      F    write electronic localiz. function (ELF)
   LORBIT       =      0    0 simple, 1 ext, 2 COOP (PROOUT), +10 PAW based schemes


 Dipole corrections
   LMONO  =      F    monopole corrections only (constant potential shift)
   LDIPOL =      F    correct potential (dipole corrections)
   IDIPOL =      0    1-x, 2-y, 3-z, 4-all directions 
   EPSILON=  1.0000000 bulk dielectric constant

 Exchange correlation treatment:
   GGA     =    PS    GGA type
   LEXCH   =    14    internal setting for exchange type
   VOSKOWN=      1    Vosko Wilk Nusair interpolation
   LHFCALC =     F    Hartree Fock is set to
   LHFONE  =     F    Hartree Fock one center treatment
   AEXX    =    0.0000 exact exchange contribution

 Linear response parameters
   LEPSILON=     F    determine dielectric tensor
   LRPA    =     F    only Hartree local field effects (RPA)
   LNABLA  =     F    use nabla operator in PAW spheres
   LVEL    =     F    velocity operator in full k-point grid
   LINTERFAST=   F  fast interpolation
   KINTER  =     0    interpolate to denser k-point grid
   CSHIFT  =0.1000    complex shift for real part using Kramers Kronig
   OMEGAMAX=  -1.0    maximum frequency
   DEG_THRESHOLD= 0.2000000E-02 threshold for treating states as degnerate
   RTIME   =   -0.100 relaxation time in fs
  (WPLASMAI=    0.000 imaginary part of plasma frequency in eV, 0.658/RTIME)
   DFIELD  = 0.0000000 0.0000000 0.0000000 field for delta impulse in time
 
 Orbital magnetization related:
   ORBITALMAG=     F  switch on orbital magnetization
   LCHIMAG   =     F  perturbation theory with respect to B field
   DQ        =  0.001000  dq finite difference perturbation B field
   LLRAUG    =     F  two centre corrections for induced B field



--------------------------------------------------------------------------------------------------------


 Static calculation
 charge density and potential will be updated during run
 spin polarized calculation
 Variant of blocked Davidson
 Davidson routine will perform the subspace rotation
 perform sub-space diagonalisation
    after iterative eigenvector-optimisation
 modified Broyden-mixing scheme, WC =      100.0
 initial mixing is a Kerker type mixing with AMIX =  0.4000 and BMIX =      1.0000
 Hartree-type preconditioning will be used
 using additional bands           74
 real space projection scheme for non local part
 use partial core corrections
 calculate Harris-corrections to forces 
   (improved forces if not selfconsistent)
 use gradient corrections 
 use of overlap-Matrix (Vanderbilt PP)
 Gauss-broadening in eV      SIGMA  =   0.05


--------------------------------------------------------------------------------------------------------


  energy-cutoff  :      500.00
  volume of cell :      560.48
      direct lattice vectors                 reciprocal lattice vectors
     8.362870000  0.000000000  0.000000000     0.119576174  0.069037336  0.000000000
    -4.181435000  7.242457870  0.000000000     0.000000000  0.138074673  0.000000000
     0.000000000  0.000000000  9.253790000     0.000000000  0.000000000  0.108063831

  length of vectors
     8.362870000  8.362870001  9.253790000     0.138074673  0.138074673  0.108063831


 
 k-points in units of 2pi/SCALE and weight: Automatic mesh                          
   0.00000000  0.00000000  0.00000000       0.021
   0.02989404  0.01725933  0.00000000       0.042
   0.05978809  0.03451867  0.00000000       0.021
   0.00000000  0.03451867  0.00000000       0.042
   0.02989404  0.05177800  0.00000000       0.042
   0.05978809  0.06903734  0.00000000       0.042
  -0.02989404  0.01725933  0.00000000       0.042
   0.00000000  0.06903734  0.00000000       0.021
   0.02989404  0.08629667  0.00000000       0.042
   0.05978809  0.10355600  0.00000000       0.021
   0.00000000  0.00000000  0.03602128       0.042
   0.02989404  0.01725933  0.03602128       0.042
   0.05978809  0.03451867  0.03602128       0.042
  -0.02989404 -0.01725933  0.03602128       0.042
   0.00000000  0.03451867  0.03602128       0.042
   0.02989404  0.05177800  0.03602128       0.042
   0.05978809  0.06903734  0.03602128       0.042
  -0.02989404  0.01725933  0.03602128       0.042
   0.00000000  0.06903734  0.03602128       0.042
   0.02989404  0.08629667  0.03602128       0.042
   0.05978809  0.10355600  0.03602128       0.042
  -0.02989404  0.05177800  0.03602128       0.042
   0.00000000 -0.03451867  0.03602128       0.042
   0.02989404 -0.01725933  0.03602128       0.042
   0.05978809  0.00000000  0.03602128       0.042
  -0.02989404 -0.05177800  0.03602128       0.042
 
 k-points in reciprocal lattice and weights: Automatic mesh                          
   0.00000000  0.00000000  0.00000000       0.021
   0.25000000  0.00000000  0.00000000       0.042
   0.50000000  0.00000000  0.00000000       0.021
   0.00000000  0.25000000  0.00000000       0.042
   0.25000000  0.25000000  0.00000000       0.042
   0.50000000  0.25000000  0.00000000       0.042
  -0.25000000  0.25000000  0.00000000       0.042
   0.00000000  0.50000000  0.00000000       0.021
   0.25000000  0.50000000  0.00000000       0.042
   0.50000000  0.50000000  0.00000000       0.021
   0.00000000  0.00000000  0.33333333       0.042
   0.25000000  0.00000000  0.33333333       0.042
   0.50000000  0.00000000  0.33333333       0.042
  -0.25000000  0.00000000  0.33333333       0.042
   0.00000000  0.25000000  0.33333333       0.042
   0.25000000  0.25000000  0.33333333       0.042
   0.50000000  0.25000000  0.33333333       0.042
  -0.25000000  0.25000000  0.33333333       0.042
   0.00000000  0.50000000  0.33333333       0.042
   0.25000000  0.50000000  0.33333333       0.042
   0.50000000  0.50000000  0.33333333       0.042
  -0.25000000  0.50000000  0.33333333       0.042
   0.00000000 -0.25000000  0.33333333       0.042
   0.25000000 -0.25000000  0.33333333       0.042
   0.50000000 -0.25000000  0.33333333       0.042
  -0.25000000 -0.25000000  0.33333333       0.042
 
 position of ions in fractional coordinates (direct lattice) 
   0.99548889  0.98944783  0.99678798
   0.99809735  0.99477482  0.50266576
   0.00239624  0.35103861  0.99881009
   0.99710920  0.33429781  0.49817130
   0.99767225  0.65922194  0.99361364
   0.01500508  0.67822914  0.49654579
   0.34166439  0.00438521  0.99907182
   0.33350536  0.01072487  0.50289122
   0.33200879  0.32873122  0.99983435
   0.32914221  0.32620837  0.50493594
   0.32948426  0.66287773  0.99890024
   0.33523962  0.66905988  0.50577511
   0.67086213  0.99711454  0.00068863
   0.65776404  0.99277916  0.49867602
   0.68339965  0.34617480  0.99565861
   0.67090525  0.34202696  0.48958738
   0.66347067  0.66834819  0.00676049
   0.66946084  0.66661171  0.50381052
   0.10724181  0.21369047  0.09767263
   0.21862732  0.11455434  0.39471824
   0.10258764  0.21521256  0.59917930
   0.23255169  0.10923969  0.89112608
   0.11152939  0.55746779  0.10974136
   0.22877413  0.44898702  0.40010867
   0.09412725  0.53839288  0.60791120
   0.23091380  0.44891640  0.90197644
   0.10470139  0.88448186  0.09648013
   0.21622038  0.78178214  0.40186835
   0.11410344  0.88831615  0.60269993
   0.24002088  0.78934176  0.90168885
   0.44060024  0.21718397  0.10924910
   0.54842636  0.10809529  0.39788145
   0.42749274  0.21527645  0.60574092
   0.55293735  0.11224845  0.90034212
   0.44216057  0.54977962  0.10287919
   0.55732476  0.44669157  0.40286719
   0.44386582  0.54832197  0.59523050
   0.56020487  0.44892757  0.89027590
   0.45395023  0.90135492  0.09659235
   0.56889129  0.78538557  0.41131291
   0.45347858  0.90148788  0.60381791
   0.56430418  0.78196137  0.89534784
   0.77966503  0.22650273  0.09433182
   0.89985697  0.11739599  0.39989635
   0.77344823  0.22242725  0.60325939
   0.89302652  0.11187591  0.89355681
   0.78357271  0.57112922  0.10902067
   0.89270583  0.44943411  0.39161482
   0.77768112  0.54846823  0.61081580
   0.87799040  0.43607284  0.89560510
   0.76871499  0.88594263  0.10348043
   0.88512512  0.78235277  0.40135706
   0.78551886  0.88834514  0.60769520
   0.88479402  0.76693320  0.90631623
 
 position of ions in cartesian coordinates  (Angst):
   4.18783239  7.16603422  9.22406664
   4.18737214  7.20461472  4.65156338
  -1.44780569  2.54238234  9.24277882
   6.94085005  2.42113780  4.60997259
   5.58690964  4.77438713  9.19469197
  -2.71048553  4.91204597  4.59493047
   2.83895841  0.03175970  9.24520082
   2.74421662  0.07767442  4.65364974
   1.40197812  2.38082201  9.25225711
   1.38855442  2.36255038  4.67257115
  -0.01634611  4.80086403  9.24361305
   0.00593496  4.84563799  4.68033666
   1.44096314  7.22156005  0.00637244
   1.34955363  7.19016124  4.61464317
   4.26767501  2.50715640  9.21361569
   4.18052989  2.47711585  4.53053880
   2.75386445  4.84048361  0.06256015
   2.81122044  4.82790723  4.66215675
   0.00331651  1.54764423  0.90384201
   1.34935033  0.82965498  3.65263970
  -0.04197023  1.55866790  5.54467941
   1.48802089  0.79116385  8.24629361
  -1.39830954  4.03743698  1.01552350
   0.03579827  3.25176958  3.70252161
  -1.46408088  3.89928775  5.62548258
   0.05398734  3.25125811  8.34670056
  -2.82279929  6.40582261  0.89280686
  -1.46074827  5.66202421  3.71880532
  -2.76020401  6.43359229  5.57725859
  -1.29331785  5.71677444  8.34403926
   2.77654188  1.57294575  1.01096823
   4.13442492  0.78287558  3.68191138
   2.67490173  1.55913062  5.60539927
   4.15478358  0.81295467  8.33157691
   1.39886362  3.98175574  0.95202242
   2.79302275  3.23514488  3.72804837
   1.41921947  3.97119877  5.50813805
   2.80775905  3.25133901  8.23842622
   0.02736975  6.52802503  0.89384532
   1.47352519  5.68812190  3.80620329
   0.02286944  6.52898799  5.58760414
   1.44948186  5.66332228  8.28536089
   5.57313085  1.64043648  0.87292685
   7.03450316  0.85023551  3.70055684
   5.53818191  1.61091999  5.58243571
   7.00046285  0.81025656  8.26878707
   4.16477700  4.13637931  1.00885439
   5.58630329  3.25500761  3.62392131
   4.21026185  3.97225805  5.65236114
   5.51910934  3.15823917  8.28774152
   2.72415201  6.41640217  0.95758617
   4.13082906  5.66615698  3.71407395
   2.85463465  6.43380225  5.62348376
   4.19253604  5.55448139  8.38686007
 


--------------------------------------------------------------------------------------------------------


 k-point  1 :   0.0000 0.0000 0.0000  plane waves:   14241
 k-point  2 :   0.2500 0.0000 0.0000  plane waves:   14190
 k-point  3 :   0.5000 0.0000 0.0000  plane waves:   14218
 k-point  4 :   0.0000 0.2500 0.0000  plane waves:   14190
 k-point  5 :   0.2500 0.2500 0.0000  plane waves:   14239
 k-point  6 :   0.5000 0.2500 0.0000  plane waves:   14239
 k-point  7 :  -0.2500 0.2500 0.0000  plane waves:   14190
 k-point  8 :   0.0000 0.5000 0.0000  plane waves:   14218
 k-point  9 :   0.2500 0.5000 0.0000  plane waves:   14239
 k-point 10 :   0.5000 0.5000 0.0000  plane waves:   14218
 k-point 11 :   0.0000 0.0000 0.3333  plane waves:   14206
 k-point 12 :   0.2500 0.0000 0.3333  plane waves:   14238
 k-point 13 :   0.5000 0.0000 0.3333  plane waves:   14242
 k-point 14 :  -0.2500 0.0000 0.3333  plane waves:   14238
 k-point 15 :   0.0000 0.2500 0.3333  plane waves:   14238
 k-point 16 :   0.2500 0.2500 0.3333  plane waves:   14221
 k-point 17 :   0.5000 0.2500 0.3333  plane waves:   14221
 k-point 18 :  -0.2500 0.2500 0.3333  plane waves:   14238
 k-point 19 :   0.0000 0.5000 0.3333  plane waves:   14242
 k-point 20 :   0.2500 0.5000 0.3333  plane waves:   14221
 k-point 21 :   0.5000 0.5000 0.3333  plane waves:   14242
 k-point 22 :  -0.2500 0.5000 0.3333  plane waves:   14221
 k-point 23 :   0.0000-0.2500 0.3333  plane waves:   14238
 k-point 24 :   0.2500-0.2500 0.3333  plane waves:   14238
 k-point 25 :   0.5000-0.2500 0.3333  plane waves:   14221
 k-point 26 :  -0.2500-0.2500 0.3333  plane waves:   14221

 maximum and minimum number of plane-waves per node :     14242    14190

 maximum number of plane-waves:     14242
 maximum index in each direction: 
   IXMAX=   15   IYMAX=   15   IZMAX=   16
   IXMIN=  -15   IYMIN=  -15   IZMIN=  -17

 The following grids will avoid any aliasing or wrap around errors in the Hartre
 e energy
  - symmetry arguments have not been applied
  - exchange correlation energies might require even more grid points
  - we recommend to set PREC=Normal or Accurate and rely on VASP defaults
 NGX is ok and might be reduce to    64
 NGY is ok and might be reduce to    64
 NGZ is ok and might be reduce to    70

 serial   3D FFT for wavefunctions
 parallel 3D FFT for charge:
    minimum data exchange during FFTs selected (reduces bandwidth)


 total amount of memory used by VASP MPI-rank0   315179. kBytes
=======================================================================

   base      :      30000. kBytes
   nonlr-proj:      32312. kBytes
   fftplans  :       6058. kBytes
   grid      :      34668. kBytes
   one-center:       1679. kBytes
   wavefun   :     210462. kBytes
 
     INWAV:  cpu time    0.0001: real time    0.0000
 Broyden mixing: mesh for mixing (old mesh)
   NGX = 31   NGY = 31   NGZ = 33
  (NGX  =128   NGY  =128   NGZ  =140)
  gives a total of  31713 points

 initial charge density was supplied:
 charge density of overlapping atoms calculated
 number of electron     396.0000000 magnetization      45.0000000
 keeping initial charge density in first step


--------------------------------------------------------------------------------------------------------


 Maximum index for non-local projection operator         6683
 Maximum index for augmentation-charges         1096 (set IRDMAX)


--------------------------------------------------------------------------------------------------------


 First call to EWALD:  gamma=   0.215
 Maximum number of real-space cells 3x 3x 3
 Maximum number of reciprocal cells 3x 3x 3

    FEWALD:  cpu time    0.0025: real time    0.0025


--------------------------------------- Iteration      1(   1)  ---------------------------------------


    POTLOK:  cpu time    0.1831: real time    0.1860
    SETDIJ:  cpu time    0.0228: real time    0.0229
     EDDAV:  cpu time   80.5688: real time   80.7634
    --------------------------------------------
      LOOP:  cpu time   80.7772: real time   80.9750

 eigenvalue-minimisations  : 28288
 total energy-change (2. order) : 0.5108903E+04  (-0.1705284E+05)
 number of electron     396.0000000 magnetization      45.0000000
 augmentation part      396.0000000 magnetization      45.0000000

 Free energy of the ion-electron system (eV)
  ---------------------------------------------------
  alpha Z        PSCENC =      1237.65017714
  Ewald energy   TEWEN  =    -22602.48398195
  -Hartree energ DENC   =    -13302.55797797
  -exchange      EXHF   =         0.00000000
  -V(xc)+E(xc)   XCENC  =      1600.46612315
  PAW double counting   =     29771.88967665   -31027.00397701
  entropy T*S    EENTRO =        -0.00829510
  eigenvalues    EBANDS =      4540.56995477
  atomic energy  EATOM  =     34890.38139807
  Solvation  Ediel_sol  =         0.00000000
  ---------------------------------------------------
  free energy    TOTEN  =      5108.90309775 eV

  energy without entropy =     5108.91139286  energy(sigma->0) =     5108.90724531


--------------------------------------------------------------------------------------------------------




--------------------------------------- Iteration      1(   2)  ---------------------------------------


     EDDAV:  cpu time   82.0189: real time   82.2137
    --------------------------------------------
      LOOP:  cpu time   82.0189: real time   82.2137

 eigenvalue-minimisations  : 29056
 total energy-change (2. order) :-0.4494234E+04  (-0.4032454E+04)
 number of electron     396.0000000 magnetization      45.0000000
 augmentation part      396.0000000 magnetization      45.0000000

 Free energy of the ion-electron system (eV)
  ---------------------------------------------------
  alpha Z        PSCENC =      1237.65017714
  Ewald energy   TEWEN  =    -22602.48398195
  -Hartree energ DENC   =    -13302.55797797
  -exchange      EXHF   =         0.00000000
  -V(xc)+E(xc)   XCENC  =      1600.46612315
  PAW double counting   =     29771.88967665   -31027.00397701
  entropy T*S    EENTRO =        -0.03118521
  eigenvalues    EBANDS =        46.35842010
  atomic energy  EATOM  =     34890.38139807
  Solvation  Ediel_sol  =         0.00000000
  ---------------------------------------------------
  free energy    TOTEN  =       614.66867298 eV

  energy without entropy =      614.69985819  energy(sigma->0) =      614.68426558


--------------------------------------------------------------------------------------------------------




--------------------------------------- Iteration      1(   3)  ---------------------------------------


     EDDAV:  cpu time   82.4874: real time   82.6832
    --------------------------------------------
      LOOP:  cpu time   82.4879: real time   82.6836

 eigenvalue-minimisations  : 29280
 total energy-change (2. order) :-0.9876211E+03  (-0.8863888E+03)
 number of electron     396.0000000 magnetization      45.0000000
 augmentation part      396.0000000 magnetization      45.0000000

 Free energy of the ion-electron system (eV)
  ---------------------------------------------------
  alpha Z        PSCENC =      1237.65017714
  Ewald energy   TEWEN  =    -22602.48398195
  -Hartree energ DENC   =    -13302.55797797
  -exchange      EXHF   =         0.00000000
  -V(xc)+E(xc)   XCENC  =      1600.46612315
  PAW double counting   =     29771.88967665   -31027.00397701
  entropy T*S    EENTRO =        -0.12889259
  eigenvalues    EBANDS =      -941.16492558
  atomic energy  EATOM  =     34890.38139807
  Solvation  Ediel_sol  =         0.00000000
  ---------------------------------------------------
  free energy    TOTEN  =      -372.95238009 eV

  energy without entropy =     -372.82348750  energy(sigma->0) =     -372.88793379


--------------------------------------------------------------------------------------------------------




--------------------------------------- Iteration      1(   4)  ---------------------------------------


     EDDAV:  cpu time   89.1997: real time   89.4111
    --------------------------------------------
      LOOP:  cpu time   89.1996: real time   89.4110

 eigenvalue-minimisations  : 32512
 total energy-change (2. order) :-0.8757082E+02  (-0.8503574E+02)
 number of electron     396.0000000 magnetization      45.0000000
 augmentation part      396.0000000 magnetization      45.0000000

 Free energy of the ion-electron system (eV)
  ---------------------------------------------------
  alpha Z        PSCENC =      1237.65017714
  Ewald energy   TEWEN  =    -22602.48398195
  -Hartree energ DENC   =    -13302.55797797
  -exchange      EXHF   =         0.00000000
  -V(xc)+E(xc)   XCENC  =      1600.46612315
  PAW double counting   =     29771.88967665   -31027.00397701
  entropy T*S    EENTRO =        -0.15338996
  eigenvalues    EBANDS =     -1028.71124853
  atomic energy  EATOM  =     34890.38139807
  Solvation  Ediel_sol  =         0.00000000
  ---------------------------------------------------
  free energy    TOTEN  =      -460.52320041 eV

  energy without entropy =     -460.36981045  energy(sigma->0) =     -460.44650543


--------------------------------------------------------------------------------------------------------




--------------------------------------- Iteration      1(   5)  ---------------------------------------


     EDDAV:  cpu time   88.7670: real time   88.9773
    CHARGE:  cpu time    3.6520: real time    3.6607
    MIXING:  cpu time    0.0036: real time    0.0036
    --------------------------------------------
      LOOP:  cpu time   92.4197: real time   92.6387

 eigenvalue-minimisations  : 32256
 total energy-change (2. order) :-0.2128496E+01  (-0.2119134E+01)
 number of electron     396.0000007 magnetization      42.3960333
 augmentation part      112.5337206 magnetization      33.0243374

 Broyden mixing:
  rms(total) = 0.13127E+02    rms(broyden)= 0.13126E+02
  rms(prec ) = 0.16057E+02
  weight for this iteration     100.00

 Free energy of the ion-electron system (eV)
  ---------------------------------------------------
  alpha Z        PSCENC =      1237.65017714
  Ewald energy   TEWEN  =    -22602.48398195
  -Hartree energ DENC   =    -13302.55797797
  -exchange      EXHF   =         0.00000000
  -V(xc)+E(xc)   XCENC  =      1600.46612315
  PAW double counting   =     29771.88967665   -31027.00397701
  entropy T*S    EENTRO =        -0.15278167
  eigenvalues    EBANDS =     -1030.84035320
  atomic energy  EATOM  =     34890.38139807
  Solvation  Ediel_sol  =         0.00000000
  ---------------------------------------------------
  free energy    TOTEN  =      -462.65169678 eV

  energy without entropy =     -462.49891511  energy(sigma->0) =     -462.57530595


--------------------------------------------------------------------------------------------------------




--------------------------------------- Iteration      1(   6)  ---------------------------------------


    POTLOK:  cpu time    0.1604: real time    0.1608
    SETDIJ:  cpu time    0.0227: real time    0.0228
     EDDAV:  cpu time  114.5534: real time  114.8246
    CHARGE:  cpu time    3.5575: real time    3.5660
    MIXING:  cpu time    0.0039: real time    0.0039
    --------------------------------------------
      LOOP:  cpu time  118.2978: real time  118.5780

 eigenvalue-minimisations  : 43968
 total energy-change (2. order) :-0.1137458E+03  (-0.1097598E+03)
 number of electron     396.0000001 magnetization      36.4612958
 augmentation part      155.0820098 magnetization      34.2221061

 Broyden mixing:
  rms(total) = 0.22466E+02    rms(broyden)= 0.22465E+02
  rms(prec ) = 0.24841E+02
  weight for this iteration     100.00

 eigenvalues of (default mixing * dielectric matrix)
  average eigenvalue GAMMA=   0.1937
  0.1937

 Free energy of the ion-electron system (eV)
  ---------------------------------------------------
  alpha Z        PSCENC =      1237.65017714
  Ewald energy   TEWEN  =    -22602.48398195
  -Hartree energ DENC   =    -12581.49808983
  -exchange      EXHF   =         0.00000000
  -V(xc)+E(xc)   XCENC  =      1600.78802179
  PAW double counting   =     33012.85623075   -34050.20335025
  entropy T*S    EENTRO =        -0.04163003
  eigenvalues    EBANDS =     -2083.84628243
  atomic energy  EATOM  =     34890.38139807
  Solvation  Ediel_sol  =         0.00000000
  ---------------------------------------------------
  free energy    TOTEN  =      -576.39750673 eV

  energy without entropy =     -576.35587670  energy(sigma->0) =     -576.37669172


--------------------------------------------------------------------------------------------------------




--------------------------------------- Iteration      1(   7)  ---------------------------------------


    POTLOK:  cpu time    0.1608: real time    0.1612
    SETDIJ:  cpu time    0.0229: real time    0.0229
     EDDAV:  cpu time  102.8937: real time  103.1373
    CHARGE:  cpu time    3.4071: real time    3.4151
    MIXING:  cpu time    0.0040: real time    0.0041
    --------------------------------------------
      LOOP:  cpu time  106.4885: real time  106.7406

 eigenvalue-minimisations  : 38480
 total energy-change (2. order) : 0.2163862E+03  (-0.2944650E+02)
 number of electron     396.0000001 magnetization      24.5009951
 augmentation part      140.2987053 magnetization      24.5677320

 Broyden mixing:
  rms(total) = 0.80231E+01    rms(broyden)= 0.80227E+01
  rms(prec ) = 0.95858E+01
  weight for this iteration     100.00

 eigenvalues of (default mixing * dielectric matrix)
  average eigenvalue GAMMA=   0.5618
  0.5618  0.5618

 Free energy of the ion-electron system (eV)
  ---------------------------------------------------
  alpha Z        PSCENC =      1237.65017714
  Ewald energy   TEWEN  =    -22602.48398195
  -Hartree energ DENC   =    -12867.18265348
  -exchange      EXHF   =         0.00000000
  -V(xc)+E(xc)   XCENC  =      1594.91449769
  PAW double counting   =     34548.00490642   -35746.26858803
  entropy T*S    EENTRO =        -0.02569506
  eigenvalues    EBANDS =     -1415.00137474
  atomic energy  EATOM  =     34890.38139807
  Solvation  Ediel_sol  =         0.00000000
  ---------------------------------------------------
  free energy    TOTEN  =      -360.01131393 eV

  energy without entropy =     -359.98561888  energy(sigma->0) =     -359.99846640


--------------------------------------------------------------------------------------------------------




--------------------------------------- Iteration      1(   8)  ---------------------------------------


    POTLOK:  cpu time    0.1541: real time    0.1545
    SETDIJ:  cpu time    0.0219: real time    0.0220
     EDDAV:  cpu time  109.6921: real time  109.9519
    CHARGE:  cpu time    3.4394: real time    3.4476
    MIXING:  cpu time    0.0039: real time    0.0039
    --------------------------------------------
      LOOP:  cpu time  113.3115: real time  113.5799

 eigenvalue-minimisations  : 41584
 total energy-change (2. order) : 0.1710448E+02  (-0.1368810E+02)
 number of electron     396.0000003 magnetization      20.3323096
 augmentation part      128.2036241 magnetization      18.6024929

 Broyden mixing:
  rms(total) = 0.62002E+01    rms(broyden)= 0.61987E+01
  rms(prec ) = 0.84101E+01
  weight for this iteration     100.00

 eigenvalues of (default mixing * dielectric matrix)
  average eigenvalue GAMMA=   0.5275
  0.6362  0.6362  0.3101

 Free energy of the ion-electron system (eV)
  ---------------------------------------------------
  alpha Z        PSCENC =      1237.65017714
  Ewald energy   TEWEN  =    -22602.48398195
  -Hartree energ DENC   =    -12928.88888983
  -exchange      EXHF   =         0.00000000
  -V(xc)+E(xc)   XCENC  =      1586.03567538
  PAW double counting   =     35883.79559461   -37163.78459989
  entropy T*S    EENTRO =        -0.05189131
  eigenvalues    EBANDS =     -1245.56031440
  atomic energy  EATOM  =     34890.38139807
  Solvation  Ediel_sol  =         0.00000000
  ---------------------------------------------------
  free energy    TOTEN  =      -342.90683218 eV

  energy without entropy =     -342.85494087  energy(sigma->0) =     -342.88088652


--------------------------------------------------------------------------------------------------------




--------------------------------------- Iteration      1(   9)  ---------------------------------------


    POTLOK:  cpu time    0.1543: real time    0.1546
    SETDIJ:  cpu time    0.0222: real time    0.0222
     EDDAV:  cpu time  100.8031: real time  101.0418
    CHARGE:  cpu time    3.4094: real time    3.4175
    MIXING:  cpu time    0.0042: real time    0.0042
    --------------------------------------------
      LOOP:  cpu time  104.3932: real time  104.6404

 eigenvalue-minimisations  : 37440
 total energy-change (2. order) :-0.2112584E+01  (-0.1558109E+02)
 number of electron     396.0000013 magnetization      17.1067527
 augmentation part      126.0290365 magnetization      16.3470354

 Broyden mixing:
  rms(total) = 0.73715E+01    rms(broyden)= 0.73710E+01
  rms(prec ) = 0.10087E+02
  weight for this iteration     100.00

 eigenvalues of (default mixing * dielectric matrix)
  average eigenvalue GAMMA=   0.4725
  0.7098  0.6061  0.4482  0.1257

 Free energy of the ion-electron system (eV)
  ---------------------------------------------------
  alpha Z        PSCENC =      1237.65017714
  Ewald energy   TEWEN  =    -22602.48398195
  -Hartree energ DENC   =    -12910.09784867
  -exchange      EXHF   =         0.00000000
  -V(xc)+E(xc)   XCENC  =      1583.76826953
  PAW double counting   =     36550.54134248   -37842.18043054
  entropy T*S    EENTRO =        -0.02652408
  eigenvalues    EBANDS =     -1252.57181772
  atomic energy  EATOM  =     34890.38139807
  Solvation  Ediel_sol  =         0.00000000
  ---------------------------------------------------
  free energy    TOTEN  =      -345.01941573 eV

  energy without entropy =     -344.99289165  energy(sigma->0) =     -345.00615369


--------------------------------------------------------------------------------------------------------




--------------------------------------- Iteration      1(  10)  ---------------------------------------


    POTLOK:  cpu time    0.1553: real time    0.1557
    SETDIJ:  cpu time    0.0224: real time    0.0225
     EDDAV:  cpu time  103.5099: real time  103.7550
    CHARGE:  cpu time    3.5743: real time    3.5828
    MIXING:  cpu time    0.0049: real time    0.0049
    --------------------------------------------
      LOOP:  cpu time  107.2669: real time  107.5209

 eigenvalue-minimisations  : 39120
 total energy-change (2. order) : 0.9309717E+01  (-0.1703317E+02)
 number of electron     396.0000003 magnetization      13.4051976
 augmentation part      127.7984212 magnetization      12.7468820

 Broyden mixing:
  rms(total) = 0.32691E+01    rms(broyden)= 0.32685E+01
  rms(prec ) = 0.42010E+01
  weight for this iteration     100.00

 eigenvalues of (default mixing * dielectric matrix)
  average eigenvalue GAMMA=   0.4774
  1.0427  0.4695  0.4695  0.2929  0.1123

 Free energy of the ion-electron system (eV)
  ---------------------------------------------------
  alpha Z        PSCENC =      1237.65017714
  Ewald energy   TEWEN  =    -22602.48398195
  -Hartree energ DENC   =    -12890.70246384
  -exchange      EXHF   =         0.00000000
  -V(xc)+E(xc)   XCENC  =      1582.75729803
  PAW double counting   =     37029.03762864   -38325.54999563
  entropy T*S    EENTRO =        -0.02217849
  eigenvalues    EBANDS =     -1256.77758103
  atomic energy  EATOM  =     34890.38139807
  Solvation  Ediel_sol  =         0.00000000
  ---------------------------------------------------
  free energy    TOTEN  =      -335.70969906 eV

  energy without entropy =     -335.68752057  energy(sigma->0) =     -335.69860981


--------------------------------------------------------------------------------------------------------




--------------------------------------- Iteration      1(  11)  ---------------------------------------


    POTLOK:  cpu time    0.1623: real time    0.1627
    SETDIJ:  cpu time    0.0230: real time    0.0230
     EDDAV:  cpu time   98.7701: real time   99.0040
    CHARGE:  cpu time    3.4616: real time    3.4699
    MIXING:  cpu time    0.0042: real time    0.0043
    --------------------------------------------
      LOOP:  cpu time  102.4212: real time  102.6638

 eigenvalue-minimisations  : 37248
 total energy-change (2. order) : 0.4590438E+01  (-0.1203285E+01)
 number of electron     396.0000003 magnetization       5.9679549
 augmentation part      128.9189818 magnetization       5.8118579

 Broyden mixing:
  rms(total) = 0.16757E+01    rms(broyden)= 0.16751E+01
  rms(prec ) = 0.19618E+01
  weight for this iteration     100.00

 eigenvalues of (default mixing * dielectric matrix)
  average eigenvalue GAMMA=   0.5404
  1.4896  0.4876  0.4324  0.4324  0.2891  0.1115

 Free energy of the ion-electron system (eV)
  ---------------------------------------------------
  alpha Z        PSCENC =      1237.65017714
  Ewald energy   TEWEN  =    -22602.48398195
  -Hartree energ DENC   =    -12880.76556861
  -exchange      EXHF   =         0.00000000
  -V(xc)+E(xc)   XCENC  =      1582.35201014
  PAW double counting   =     37545.23346838   -38844.74722809
  entropy T*S    EENTRO =        -0.00000000
  eigenvalues    EBANDS =     -1258.73953642
  atomic energy  EATOM  =     34890.38139807
  Solvation  Ediel_sol  =         0.00000000
  ---------------------------------------------------
  free energy    TOTEN  =      -331.11926135 eV

  energy without entropy =     -331.11926135  energy(sigma->0) =     -331.11926135


--------------------------------------------------------------------------------------------------------




--------------------------------------- Iteration      1(  12)  ---------------------------------------


    POTLOK:  cpu time    0.1602: real time    0.1605
    SETDIJ:  cpu time    0.0233: real time    0.0234
     EDDAV:  cpu time  109.5412: real time  109.8005
    CHARGE:  cpu time    3.4360: real time    3.4441
    MIXING:  cpu time    0.0047: real time    0.0047
    --------------------------------------------
      LOOP:  cpu time  113.1653: real time  113.4333

 eigenvalue-minimisations  : 42464
 total energy-change (2. order) :-0.7832509E+00  (-0.6924597E+00)
 number of electron     396.0000003 magnetization       3.3706430
 augmentation part      130.0971482 magnetization       2.7505612

 Broyden mixing:
  rms(total) = 0.96598E+00    rms(broyden)= 0.96566E+00
  rms(prec ) = 0.11306E+01
  weight for this iteration     100.00

 eigenvalues of (default mixing * dielectric matrix)
  average eigenvalue GAMMA=   0.5701
  1.5527  0.5734  0.5734  0.4711  0.4711  0.2370  0.1121

 Free energy of the ion-electron system (eV)
  ---------------------------------------------------
  alpha Z        PSCENC =      1237.65017714
  Ewald energy   TEWEN  =    -22602.48398195
  -Hartree energ DENC   =    -12882.22109110
  -exchange      EXHF   =         0.00000000
  -V(xc)+E(xc)   XCENC  =      1582.76156638
  PAW double counting   =     38528.46118189   -39835.85381543
  entropy T*S    EENTRO =        -0.00000000
  eigenvalues    EBANDS =     -1250.59794723
  atomic energy  EATOM  =     34890.38139807
  Solvation  Ediel_sol  =         0.00000000
  ---------------------------------------------------
  free energy    TOTEN  =      -331.90251224 eV

  energy without entropy =     -331.90251224  energy(sigma->0) =     -331.90251224


--------------------------------------------------------------------------------------------------------




--------------------------------------- Iteration      1(  13)  ---------------------------------------


    POTLOK:  cpu time    0.1570: real time    0.1574
    SETDIJ:  cpu time    0.0219: real time    0.0220
     EDDAV:  cpu time   86.1164: real time   86.3204
    CHARGE:  cpu time    2.5272: real time    2.5332
    MIXING:  cpu time    0.0038: real time    0.0038
    --------------------------------------------
      LOOP:  cpu time   88.8264: real time   89.0368

 eigenvalue-minimisations  : 36256
 total energy-change (2. order) :-0.1220383E+01  (-0.3614586E+00)
 number of electron     396.0000002 magnetization       2.0008428
 augmentation part      129.6858016 magnetization       1.5574946

 Broyden mixing:
  rms(total) = 0.91813E+00    rms(broyden)= 0.91798E+00
  rms(prec ) = 0.11664E+01
  weight for this iteration     100.00

 eigenvalues of (default mixing * dielectric matrix)
  average eigenvalue GAMMA=   0.5807
  1.6743  0.6977  0.6977  0.4416  0.4416  0.3517  0.2286  0.1122

 Free energy of the ion-electron system (eV)
  ---------------------------------------------------
  alpha Z        PSCENC =      1237.65017714
  Ewald energy   TEWEN  =    -22602.48398195
  -Hartree energ DENC   =    -12891.96843489
  -exchange      EXHF   =         0.00000000
  -V(xc)+E(xc)   XCENC  =      1582.69728104
  PAW double counting   =     38954.51771648   -40268.67656802
  entropy T*S    EENTRO =        -0.00000000
  eigenvalues    EBANDS =     -1235.24048319
  atomic energy  EATOM  =     34890.38139807
  Solvation  Ediel_sol  =         0.00000000
  ---------------------------------------------------
  free energy    TOTEN  =      -333.12289531 eV

  energy without entropy =     -333.12289531  energy(sigma->0) =     -333.12289531


--------------------------------------------------------------------------------------------------------




--------------------------------------- Iteration      1(  14)  ---------------------------------------


    POTLOK:  cpu time    0.1268: real time    0.1271
    SETDIJ:  cpu time    0.0188: real time    0.0189
     EDDAV:  cpu time   75.5730: real time   75.7582
    CHARGE:  cpu time    3.4909: real time    3.5338
    MIXING:  cpu time    0.0053: real time    0.0053
    --------------------------------------------
      LOOP:  cpu time   79.2148: real time   79.4432

 eigenvalue-minimisations  : 35056
 total energy-change (2. order) : 0.7187161E-01  (-0.1687069E+00)
 number of electron     396.0000003 magnetization       0.3253562
 augmentation part      129.4262795 magnetization       0.0295095

 Broyden mixing:
  rms(total) = 0.56182E+00    rms(broyden)= 0.56172E+00
  rms(prec ) = 0.67886E+00
  weight for this iteration     100.00

 eigenvalues of (default mixing * dielectric matrix)
  average eigenvalue GAMMA=   0.6604
  2.1120  0.9184  0.9184  0.4838  0.4838  0.4078  0.1122  0.2294  0.2781

 Free energy of the ion-electron system (eV)
  ---------------------------------------------------
  alpha Z        PSCENC =      1237.65017714
  Ewald energy   TEWEN  =    -22602.48398195
  -Hartree energ DENC   =    -12894.74335547
  -exchange      EXHF   =         0.00000000
  -V(xc)+E(xc)   XCENC  =      1582.56047306
  PAW double counting   =     39227.93850836   -40546.45957025
  entropy T*S    EENTRO =        -0.00000000
  eigenvalues    EBANDS =     -1227.89467265
  atomic energy  EATOM  =     34890.38139807
  Solvation  Ediel_sol  =         0.00000000
  ---------------------------------------------------
  free energy    TOTEN  =      -333.05102370 eV

  energy without entropy =     -333.05102370  energy(sigma->0) =     -333.05102370


--------------------------------------------------------------------------------------------------------




--------------------------------------- Iteration      1(  15)  ---------------------------------------


    POTLOK:  cpu time    0.1603: real time    0.1607
    SETDIJ:  cpu time    0.0234: real time    0.0234
     EDDAV:  cpu time  103.1429: real time  103.3874
    CHARGE:  cpu time    3.3511: real time    3.3591
    MIXING:  cpu time    0.0047: real time    0.0047
    --------------------------------------------
      LOOP:  cpu time  106.6824: real time  106.9353

 eigenvalue-minimisations  : 39776
 total energy-change (2. order) :-0.4966759E-01  (-0.5264283E-01)
 number of electron     396.0000003 magnetization      -0.2109067
 augmentation part      129.6503648 magnetization      -0.3770197

 Broyden mixing:
  rms(total) = 0.34204E+00    rms(broyden)= 0.34197E+00
  rms(prec ) = 0.44462E+00
  weight for this iteration     100.00

 eigenvalues of (default mixing * dielectric matrix)
  average eigenvalue GAMMA=   0.6758
  2.2650  1.0187  1.0187  0.4910  0.4910  0.4373  0.4373  0.1122  0.2308  0.2557

 Free energy of the ion-electron system (eV)
  ---------------------------------------------------
  alpha Z        PSCENC =      1237.65017714
  Ewald energy   TEWEN  =    -22602.48398195
  -Hartree energ DENC   =    -12891.30211444
  -exchange      EXHF   =         0.00000000
  -V(xc)+E(xc)   XCENC  =      1582.34555511
  PAW double counting   =     39583.31731006   -40904.49094194
  entropy T*S    EENTRO =        -0.00000000
  eigenvalues    EBANDS =     -1228.51809332
  atomic energy  EATOM  =     34890.38139807
  Solvation  Ediel_sol  =         0.00000000
  ---------------------------------------------------
  free energy    TOTEN  =      -333.10069128 eV

  energy without entropy =     -333.10069128  energy(sigma->0) =     -333.10069128


--------------------------------------------------------------------------------------------------------




--------------------------------------- Iteration      1(  16)  ---------------------------------------


    POTLOK:  cpu time    0.1535: real time    0.1538
    SETDIJ:  cpu time    0.0216: real time    0.0216
     EDDAV:  cpu time  101.8320: real time  102.0816
    CHARGE:  cpu time    3.0923: real time    3.0996
    MIXING:  cpu time    0.0089: real time    0.0554
    --------------------------------------------
      LOOP:  cpu time  105.1082: real time  105.4121

 eigenvalue-minimisations  : 38800
 total energy-change (2. order) : 0.1603893E-01  (-0.2728794E-01)
 number of electron     396.0000002 magnetization      -0.1489727
 augmentation part      129.7189750 magnetization      -0.2180372

 Broyden mixing:
  rms(total) = 0.24046E+00    rms(broyden)= 0.24042E+00
  rms(prec ) = 0.30876E+00
  weight for this iteration     100.00

 eigenvalues of (default mixing * dielectric matrix)
  average eigenvalue GAMMA=   0.6708
  2.2813  1.0887  1.0887  0.4989  0.4989  0.5140  0.5140  0.1122  0.3022  0.2302
  0.2499

 Free energy of the ion-electron system (eV)
  ---------------------------------------------------
  alpha Z        PSCENC =      1237.65017714
  Ewald energy   TEWEN  =    -22602.48398195
  -Hartree energ DENC   =    -12891.73448137
  -exchange      EXHF   =         0.00000000
  -V(xc)+E(xc)   XCENC  =      1582.38569780
  PAW double counting   =     39747.56444237   -41069.47384001
  entropy T*S    EENTRO =        -0.00000000
  eigenvalues    EBANDS =     -1227.37406440
  atomic energy  EATOM  =     34890.38139807
  Solvation  Ediel_sol  =         0.00000000
  ---------------------------------------------------
  free energy    TOTEN  =      -333.08465235 eV

  energy without entropy =     -333.08465235  energy(sigma->0) =     -333.08465235


--------------------------------------------------------------------------------------------------------




--------------------------------------- Iteration      1(  17)  ---------------------------------------


    POTLOK:  cpu time    0.1597: real time    0.1600
    SETDIJ:  cpu time    0.0217: real time    0.0217
     EDDAV:  cpu time   98.1083: real time   98.3407
    CHARGE:  cpu time    3.0953: real time    3.1027
    MIXING:  cpu time    0.0053: real time    0.0053
    --------------------------------------------
      LOOP:  cpu time  101.3902: real time  101.6304

 eigenvalue-minimisations  : 36160
 total energy-change (2. order) : 0.1258948E-01  (-0.1140903E-01)
 number of electron     396.0000002 magnetization      -0.0007987
 augmentation part      129.7195884 magnetization      -0.0168379

 Broyden mixing:
  rms(total) = 0.16682E+00    rms(broyden)= 0.16679E+00
  rms(prec ) = 0.21669E+00
  weight for this iteration     100.00

 eigenvalues of (default mixing * dielectric matrix)
  average eigenvalue GAMMA=   0.6693
  2.2971  1.1440  1.1440  0.6171  0.6171  0.4871  0.4871  0.1122  0.3696  0.2778
  0.2291  0.2499

 Free energy of the ion-electron system (eV)
  ---------------------------------------------------
  alpha Z        PSCENC =      1237.65017714
  Ewald energy   TEWEN  =    -22602.48398195
  -Hartree energ DENC   =    -12893.54239608
  -exchange      EXHF   =         0.00000000
  -V(xc)+E(xc)   XCENC  =      1582.47448376
  PAW double counting   =     39785.67683619   -41107.48912610
  entropy T*S    EENTRO =        -0.00000000
  eigenvalues    EBANDS =     -1225.73945389
  atomic energy  EATOM  =     34890.38139807
  Solvation  Ediel_sol  =         0.00000000
  ---------------------------------------------------
  free energy    TOTEN  =      -333.07206287 eV

  energy without entropy =     -333.07206287  energy(sigma->0) =     -333.07206287


--------------------------------------------------------------------------------------------------------




--------------------------------------- Iteration      1(  18)  ---------------------------------------


    POTLOK:  cpu time    0.1547: real time    0.1550
    SETDIJ:  cpu time    0.0222: real time    0.0222
     EDDAV:  cpu time   90.7584: real time   90.9733
    CHARGE:  cpu time    3.3048: real time    3.3126
    MIXING:  cpu time    0.0059: real time    0.0059
    --------------------------------------------
      LOOP:  cpu time   94.2458: real time   94.4690

 eigenvalue-minimisations  : 33184
 total energy-change (2. order) : 0.8126648E-02  (-0.3789573E-02)
 number of electron     396.0000002 magnetization       0.0030879
 augmentation part      129.7363211 magnetization       0.0154004

 Broyden mixing:
  rms(total) = 0.11990E+00    rms(broyden)= 0.11990E+00
  rms(prec ) = 0.15279E+00
  weight for this iteration     100.00

 eigenvalues of (default mixing * dielectric matrix)
  average eigenvalue GAMMA=   0.6950
  2.3921  1.3529  1.0648  0.7827  0.7827  0.4869  0.4869  0.4187  0.4187  0.1122
  0.2686  0.2303  0.2371

 Free energy of the ion-electron system (eV)
  ---------------------------------------------------
  alpha Z        PSCENC =      1237.65017714
  Ewald energy   TEWEN  =    -22602.48398195
  -Hartree energ DENC   =    -12895.36498210
  -exchange      EXHF   =         0.00000000
  -V(xc)+E(xc)   XCENC  =      1582.57064498
  PAW double counting   =     39802.68000774   -41124.06349205
  entropy T*S    EENTRO =        -0.00000000
  eigenvalues    EBANDS =     -1224.43370805
  atomic energy  EATOM  =     34890.38139807
  Solvation  Ediel_sol  =         0.00000000
  ---------------------------------------------------
  free energy    TOTEN  =      -333.06393622 eV

  energy without entropy =     -333.06393622  energy(sigma->0) =     -333.06393622


--------------------------------------------------------------------------------------------------------




--------------------------------------- Iteration      1(  19)  ---------------------------------------


    POTLOK:  cpu time    0.1620: real time    0.1623
    SETDIJ:  cpu time    0.0232: real time    0.0232
     EDDAV:  cpu time  100.6689: real time  100.9073
    CHARGE:  cpu time    3.2768: real time    3.2846
    MIXING:  cpu time    0.0061: real time    0.0061
    --------------------------------------------
      LOOP:  cpu time  104.1369: real time  104.3836

 eigenvalue-minimisations  : 36640
 total energy-change (2. order) : 0.2807336E-02  (-0.1197722E-02)
 number of electron     396.0000002 magnetization      -0.0057449
 augmentation part      129.7601957 magnetization       0.0087901

 Broyden mixing:
  rms(total) = 0.88723E-01    rms(broyden)= 0.88715E-01
  rms(prec ) = 0.11595E+00
  weight for this iteration     100.00

 eigenvalues of (default mixing * dielectric matrix)
  average eigenvalue GAMMA=   0.7305
  2.5489  1.7470  0.9442  0.9442  0.9313  0.4865  0.4865  0.5368  0.4333  0.1122
  0.3253  0.2643  0.2294  0.2378

 Free energy of the ion-electron system (eV)
  ---------------------------------------------------
  alpha Z        PSCENC =      1237.65017714
  Ewald energy   TEWEN  =    -22602.48398195
  -Hartree energ DENC   =    -12896.42167881
  -exchange      EXHF   =         0.00000000
  -V(xc)+E(xc)   XCENC  =      1582.63476461
  PAW double counting   =     39820.45268224   -41141.54053297
  entropy T*S    EENTRO =        -0.00000000
  eigenvalues    EBANDS =     -1223.73395722
  atomic energy  EATOM  =     34890.38139807
  Solvation  Ediel_sol  =         0.00000000
  ---------------------------------------------------
  free energy    TOTEN  =      -333.06112888 eV

  energy without entropy =     -333.06112888  energy(sigma->0) =     -333.06112888


--------------------------------------------------------------------------------------------------------




--------------------------------------- Iteration      1(  20)  ---------------------------------------


    POTLOK:  cpu time    0.1617: real time    0.1621
    SETDIJ:  cpu time    0.0226: real time    0.0227
     EDDAV:  cpu time  104.2859: real time  104.5328
    CHARGE:  cpu time    3.2847: real time    3.2925
    MIXING:  cpu time    0.0069: real time    0.0069
    --------------------------------------------
      LOOP:  cpu time  107.7618: real time  108.0170

 eigenvalue-minimisations  : 38848
 total energy-change (2. order) : 0.2363441E-02  (-0.7940513E-03)
 number of electron     396.0000002 magnetization       0.0041007
 augmentation part      129.7767340 magnetization       0.0128667

 Broyden mixing:
  rms(total) = 0.60540E-01    rms(broyden)= 0.60534E-01
  rms(prec ) = 0.80827E-01
  weight for this iteration     100.00

 eigenvalues of (default mixing * dielectric matrix)
  average eigenvalue GAMMA=   0.7529
  2.6988  2.0730  1.0739  1.0739  0.7125  0.7125  0.4859  0.4859  0.4760  0.1122
  0.3748  0.2880  0.2613  0.2298  0.2357

 Free energy of the ion-electron system (eV)
  ---------------------------------------------------
  alpha Z        PSCENC =      1237.65017714
  Ewald energy   TEWEN  =    -22602.48398195
  -Hartree energ DENC   =    -12897.54747682
  -exchange      EXHF   =         0.00000000
  -V(xc)+E(xc)   XCENC  =      1582.69679930
  PAW double counting   =     39837.76106682   -41158.44461190
  entropy T*S    EENTRO =        -0.00000000
  eigenvalues    EBANDS =     -1223.07213610
  atomic energy  EATOM  =     34890.38139807
  Solvation  Ediel_sol  =         0.00000000
  ---------------------------------------------------
  free energy    TOTEN  =      -333.05876544 eV

  energy without entropy =     -333.05876544  energy(sigma->0) =     -333.05876544


--------------------------------------------------------------------------------------------------------




--------------------------------------- Iteration      1(  21)  ---------------------------------------


    POTLOK:  cpu time    0.1594: real time    0.1598
    SETDIJ:  cpu time    0.0228: real time    0.0229
     EDDAV:  cpu time  109.7337: real time  109.9936
    CHARGE:  cpu time    3.3154: real time    3.3232
    MIXING:  cpu time    0.0056: real time    0.0056
    --------------------------------------------
      LOOP:  cpu time  113.2370: real time  113.5051

 eigenvalue-minimisations  : 41264
 total energy-change (2. order) : 0.9294984E-03  (-0.3249792E-03)
 number of electron     396.0000002 magnetization       0.0108197
 augmentation part      129.7783339 magnetization       0.0161353

 Broyden mixing:
  rms(total) = 0.45920E-01    rms(broyden)= 0.45917E-01
  rms(prec ) = 0.62149E-01
  weight for this iteration     100.00

 eigenvalues of (default mixing * dielectric matrix)
  average eigenvalue GAMMA=   0.7520
  2.7808  2.1751  1.1423  1.1423  0.7401  0.7401  0.4863  0.4863  0.5043  0.1122
  0.3866  0.3408  0.2736  0.2561  0.2289  0.2368

 Free energy of the ion-electron system (eV)
  ---------------------------------------------------
  alpha Z        PSCENC =      1237.65017714
  Ewald energy   TEWEN  =    -22602.48398195
  -Hartree energ DENC   =    -12897.99653699
  -exchange      EXHF   =         0.00000000
  -V(xc)+E(xc)   XCENC  =      1582.71378742
  PAW double counting   =     39840.44149741   -41160.88442593
  entropy T*S    EENTRO =        -0.00000000
  eigenvalues    EBANDS =     -1222.87975112
  atomic energy  EATOM  =     34890.38139807
  Solvation  Ediel_sol  =         0.00000000
  ---------------------------------------------------
  free energy    TOTEN  =      -333.05783594 eV

  energy without entropy =     -333.05783594  energy(sigma->0) =     -333.05783594


--------------------------------------------------------------------------------------------------------




--------------------------------------- Iteration      1(  22)  ---------------------------------------


    POTLOK:  cpu time    0.1553: real time    0.1557
    SETDIJ:  cpu time    0.0215: real time    0.0216
     EDDAV:  cpu time  113.3855: real time  113.6540
    CHARGE:  cpu time    3.4113: real time    3.4194
    MIXING:  cpu time    0.0067: real time    0.0067
    --------------------------------------------
      LOOP:  cpu time  116.9804: real time  117.2574

 eigenvalue-minimisations  : 42656
 total energy-change (2. order) : 0.6890484E-03  (-0.1370861E-03)
 number of electron     396.0000002 magnetization       0.0049573
 augmentation part      129.7734616 magnetization       0.0077614

 Broyden mixing:
  rms(total) = 0.35078E-01    rms(broyden)= 0.35077E-01
  rms(prec ) = 0.48573E-01
  weight for this iteration     100.00

 eigenvalues of (default mixing * dielectric matrix)
  average eigenvalue GAMMA=   0.7752
  2.9516  2.2001  1.3123  1.1941  0.8086  0.8086  0.6428  0.4874  0.4874  0.4772
  0.1122  0.3962  0.3236  0.2666  0.2456  0.2298  0.2339

 Free energy of the ion-electron system (eV)
  ---------------------------------------------------
  alpha Z        PSCENC =      1237.65017714
  Ewald energy   TEWEN  =    -22602.48398195
  -Hartree energ DENC   =    -12898.13302188
  -exchange      EXHF   =         0.00000000
  -V(xc)+E(xc)   XCENC  =      1582.71213044
  PAW double counting   =     39838.80704932   -41159.09067615
  entropy T*S    EENTRO =        -0.00000000
  eigenvalues    EBANDS =     -1222.90022188
  atomic energy  EATOM  =     34890.38139807
  Solvation  Ediel_sol  =         0.00000000
  ---------------------------------------------------
  free energy    TOTEN  =      -333.05714690 eV

  energy without entropy =     -333.05714690  energy(sigma->0) =     -333.05714690


--------------------------------------------------------------------------------------------------------




--------------------------------------- Iteration      1(  23)  ---------------------------------------


    POTLOK:  cpu time    0.1611: real time    0.1615
    SETDIJ:  cpu time    0.0225: real time    0.0226
     EDDAV:  cpu time  114.8568: real time  115.1288
    CHARGE:  cpu time    3.4545: real time    3.4627
    MIXING:  cpu time    0.0071: real time    0.0071
    --------------------------------------------
      LOOP:  cpu time  118.5020: real time  118.7827

 eigenvalue-minimisations  : 42944
 total energy-change (2. order) : 0.5146184E-03  (-0.4191077E-04)
 number of electron     396.0000002 magnetization      -0.0036952
 augmentation part      129.7728052 magnetization      -0.0032401

 Broyden mixing:
  rms(total) = 0.27570E-01    rms(broyden)= 0.27570E-01
  rms(prec ) = 0.38798E-01
  weight for this iteration     100.00

 eigenvalues of (default mixing * dielectric matrix)
  average eigenvalue GAMMA=   0.7991
  3.1347  2.2540  1.7668  0.9910  0.9910  0.7848  0.7848  0.4871  0.4871  0.1122
  0.4904  0.4371  0.3757  0.3131  0.2653  0.2447  0.2294  0.2341

 Free energy of the ion-electron system (eV)
  ---------------------------------------------------
  alpha Z        PSCENC =      1237.65017714
  Ewald energy   TEWEN  =    -22602.48398195
  -Hartree energ DENC   =    -12898.06428660
  -exchange      EXHF   =         0.00000000
  -V(xc)+E(xc)   XCENC  =      1582.70254647
  PAW double counting   =     39836.71907191   -41156.88514443
  entropy T*S    EENTRO =        -0.00000000
  eigenvalues    EBANDS =     -1223.07641289
  atomic energy  EATOM  =     34890.38139807
  Solvation  Ediel_sol  =         0.00000000
  ---------------------------------------------------
  free energy    TOTEN  =      -333.05663228 eV

  energy without entropy =     -333.05663228  energy(sigma->0) =     -333.05663228


--------------------------------------------------------------------------------------------------------




--------------------------------------- Iteration      1(  24)  ---------------------------------------


    POTLOK:  cpu time    0.1606: real time    0.1610
    SETDIJ:  cpu time    0.0228: real time    0.0229
     EDDAV:  cpu time  114.6475: real time  114.9190
    CHARGE:  cpu time    3.5814: real time    3.5899
    MIXING:  cpu time    0.0075: real time    0.0075
    --------------------------------------------
      LOOP:  cpu time  118.4198: real time  118.7003

 eigenvalue-minimisations  : 43456
 total energy-change (2. order) : 0.4230355E-03  (-0.2754293E-04)
 number of electron     396.0000002 magnetization      -0.0037094
 augmentation part      129.7705249 magnetization      -0.0046463

 Broyden mixing:
  rms(total) = 0.20040E-01    rms(broyden)= 0.20040E-01
  rms(prec ) = 0.28453E-01
  weight for this iteration     100.00

 eigenvalues of (default mixing * dielectric matrix)
  average eigenvalue GAMMA=   0.8250
  3.3096  2.4637  1.9789  1.0964  1.0964  0.7930  0.7930  0.4871  0.4871  0.5687
  0.4890  0.1122  0.3893  0.3392  0.2999  0.2649  0.2438  0.2295  0.2338

 Free energy of the ion-electron system (eV)
  ---------------------------------------------------
  alpha Z        PSCENC =      1237.65017714
  Ewald energy   TEWEN  =    -22602.48398195
  -Hartree energ DENC   =    -12897.95448266
  -exchange      EXHF   =         0.00000000
  -V(xc)+E(xc)   XCENC  =      1582.69181734
  PAW double counting   =     39833.80216526   -41153.89107418
  entropy T*S    EENTRO =        -0.00000000
  eigenvalues    EBANDS =     -1223.25222827
  atomic energy  EATOM  =     34890.38139807
  Solvation  Ediel_sol  =         0.00000000
  ---------------------------------------------------
  free energy    TOTEN  =      -333.05620924 eV

  energy without entropy =     -333.05620924  energy(sigma->0) =     -333.05620924


--------------------------------------------------------------------------------------------------------




--------------------------------------- Iteration      1(  25)  ---------------------------------------


    POTLOK:  cpu time    0.1551: real time    0.1554
    SETDIJ:  cpu time    0.0213: real time    0.0214
     EDDAV:  cpu time  113.0287: real time  113.2963
    CHARGE:  cpu time    3.3713: real time    3.3793
    MIXING:  cpu time    0.0074: real time    0.0074
    --------------------------------------------
      LOOP:  cpu time  116.5838: real time  116.8598

 eigenvalue-minimisations  : 43008
 total energy-change (2. order) : 0.2383127E-03  (-0.2967066E-04)
 number of electron     396.0000002 magnetization      -0.0014219
 augmentation part      129.7676601 magnetization      -0.0021095

 Broyden mixing:
  rms(total) = 0.14272E-01    rms(broyden)= 0.14271E-01
  rms(prec ) = 0.20491E-01
  weight for this iteration     100.00

 eigenvalues of (default mixing * dielectric matrix)
  average eigenvalue GAMMA=   0.8293
  3.5855  2.5487  1.9830  1.1502  1.1502  0.8168  0.8168  0.4873  0.4873  0.5704
  0.5300  0.1122  0.3960  0.3960  0.3179  0.2714  0.2617  0.2293  0.2417  0.2335

 Free energy of the ion-electron system (eV)
  ---------------------------------------------------
  alpha Z        PSCENC =      1237.65017714
  Ewald energy   TEWEN  =    -22602.48398195
  -Hartree energ DENC   =    -12897.94256260
  -exchange      EXHF   =         0.00000000
  -V(xc)+E(xc)   XCENC  =      1582.68825122
  PAW double counting   =     39831.00525537   -41151.06995019
[...]
  in kB       14.2676626     20.5123955     -1.4128952     -1.8146854     14.4582964      9.1140803
  external PRESSURE =      11.1223876 kB  Pullay stress =       0.0000000 kB


 VOLUME and BASIS-vectors are now :
 -----------------------------------------------------------------------------
  energy-cutoff  :      500.00
  volume of cell :      560.48
      direct lattice vectors                 reciprocal lattice vectors
     8.362870000  0.000000000  0.000000000     0.119576174  0.069037336  0.000000000
    -4.181435000  7.242457870  0.000000000     0.000000000  0.138074673  0.000000000
     0.000000000  0.000000000  9.253790000     0.000000000  0.000000000  0.108063831

  length of vectors
     8.362870000  8.362870001  9.253790000     0.138074673  0.138074673  0.108063831


 FORCES acting on ions
    electron-ion (+dipol)            ewald-force                    non-local-force                 convergence-correction
 -----------------------------------------------------------------------------------------------
   0.289E+01 -.640E+02 0.197E+02   -.289E+01 0.666E+02 -.199E+02   -.115E+00 -.387E+00 0.110E+00   -.149E-02 -.602E-02 0.246E-02
   0.119E+02 -.106E+02 0.495E+01   -.127E+02 0.120E+02 -.527E+01   0.285E+00 0.197E+00 -.634E-01   0.448E-02 -.252E-02 -.288E-02
   -.792E+02 0.636E+02 -.360E+01   0.824E+02 -.680E+02 0.402E+01   -.456E+00 -.232E+00 -.513E+00   -.344E-02 -.234E-03 0.143E-02
   0.489E+01 -.987E+00 0.346E+02   -.477E+01 0.113E+00 -.346E+02   0.320E+00 0.569E-01 0.164E+00   -.224E-03 0.258E-02 -.184E-02
   -.578E+02 -.261E+02 0.366E+02   0.583E+02 0.289E+02 -.352E+02   -.255E+00 -.570E+00 0.375E+00   -.465E-02 0.341E-02 -.474E-03
   0.338E+02 0.640E+02 0.839E+01   -.368E+02 -.673E+02 -.708E+01   -.515E+00 -.970E-01 0.559E+00   0.209E-02 0.271E-02 -.153E-02
   0.468E+02 -.290E+01 -.443E+02   -.484E+02 0.341E+01 0.451E+02   0.236E+00 -.538E+00 0.599E-01   0.484E-03 -.129E-02 0.355E-02
   -.416E+02 0.347E+02 0.211E+02   0.426E+02 -.362E+02 -.218E+02   -.247E+00 -.602E+00 -.201E+00   0.261E-03 -.169E-02 -.307E-02
   -.733E+01 0.123E+02 -.951E+01   0.831E+01 -.128E+02 0.982E+01   -.136E+00 0.569E+00 -.474E+00   0.155E-02 -.374E-03 0.412E-02
   0.223E+02 -.361E+02 0.776E+01   -.236E+02 0.373E+02 -.856E+01   0.280E+00 0.185E+00 -.816E+00   0.300E-02 -.923E-03 -.410E-02
   -.214E+02 -.174E+02 -.291E+02   0.228E+02 0.190E+02 0.298E+02   0.357E+00 0.307E+00 0.673E+00   0.786E-03 0.302E-02 0.312E-02
   0.342E+02 -.534E+01 -.206E+02   -.346E+02 0.456E+01 0.207E+02   0.919E-02 0.331E+00 -.307E+00   -.189E-02 0.354E-02 -.382E-02
   -.492E+01 -.403E+02 -.151E+01   0.430E+01 0.421E+02 0.214E+00   -.374E+00 0.104E+00 -.270E+00   0.264E-02 -.318E-02 0.262E-02
   -.344E+02 -.681E+02 0.279E+02   0.362E+02 0.726E+02 -.268E+02   0.435E+00 -.300E+00 0.338E+00   -.428E-02 -.272E-02 -.403E-02
   0.107E+03 0.339E+02 -.421E+02   -.112E+03 -.366E+02 0.437E+02   0.804E+00 -.182E-01 0.400E+00   0.186E-02 0.148E-02 -.889E-03
   -.169E+02 0.375E+02 0.434E+02   0.182E+02 -.385E+02 -.422E+02   -.662E+00 -.643E+00 0.152E+01   -.261E-02 -.118E-02 -.262E-02
   0.275E+02 0.379E+02 -.321E+02   -.275E+02 -.396E+02 0.314E+02   0.627E+00 0.539E+00 -.649E+00   0.224E-02 0.548E-02 0.103E-02
   -.987E+01 0.183E+02 -.220E+02   0.110E+02 -.190E+02 0.234E+02   -.435E+00 0.260E+00 -.248E+00   -.578E-03 -.716E-03 -.514E-02
   0.214E+02 -.358E+01 -.343E+03   -.241E+02 0.360E+01 0.368E+03   0.236E+01 0.527E+00 -.257E+02   -.952E-03 -.704E-02 0.291E-02
   0.535E+01 0.722E+00 0.400E+03   -.646E+01 -.986E+00 -.429E+03   0.133E+01 -.249E+00 0.292E+02   0.383E-02 0.274E-02 -.186E-02
   0.198E+02 -.202E+02 -.367E+03   -.214E+02 0.211E+02 0.394E+03   0.174E+01 -.374E+00 -.270E+02   0.212E-02 0.414E-02 0.301E-03
   0.310E+02 -.442E+01 0.346E+03   -.327E+02 0.412E+01 -.372E+03   0.641E+00 0.222E+00 0.273E+02   -.438E-02 -.430E-02 -.192E-02
   -.160E+02 -.195E+02 -.393E+03   0.158E+02 0.221E+02 0.422E+03   0.107E+00 -.198E+01 -.303E+02   -.352E-02 0.191E-02 0.425E-02
   0.255E+01 -.132E+02 0.368E+03   -.184E+01 0.132E+02 -.395E+03   -.112E+01 -.552E-01 0.269E+02   0.154E-02 0.263E-02 0.118E-02
   -.160E+02 -.223E+02 -.361E+03   0.154E+02 0.237E+02 0.388E+03   0.145E+01 0.645E+00 -.276E+02   -.572E-03 0.403E-02 -.339E-02
   -.191E+01 0.249E+02 0.364E+03   0.260E+01 -.274E+02 -.392E+03   -.164E+01 0.195E+01 0.279E+02   -.792E-03 -.255E-03 -.421E-02
   -.278E+02 -.104E+02 -.365E+03   0.304E+02 0.956E+01 0.392E+03   -.155E+01 0.494E+00 -.268E+02   -.613E-02 -.618E-03 0.549E-03
   -.623E+02 -.827E+01 0.382E+03   0.685E+02 0.112E+02 -.411E+03   -.365E+01 -.193E+01 0.286E+02   -.363E-03 -.213E-02 0.258E-02
   -.882E+00 0.135E+02 -.384E+03   0.514E+00 -.134E+02 0.413E+03   0.180E+00 0.167E+00 -.290E+02   0.368E-02 -.521E-02 -.624E-03
   0.177E+02 0.171E+02 0.359E+03   -.191E+02 -.172E+02 -.387E+03   0.373E+00 -.135E+01 0.268E+02   -.388E-02 -.812E-03 -.302E-02
   -.134E+02 -.251E+02 -.360E+03   0.157E+02 0.271E+02 0.386E+03   -.188E+01 -.110E+01 -.268E+02   0.210E-03 -.773E-03 0.673E-02
   -.193E+02 -.182E+01 0.370E+03   0.196E+02 0.137E+01 -.397E+03   -.150E+00 0.885E+00 0.272E+02   -.232E-03 -.863E-03 -.445E-03
   -.537E+02 -.329E+02 -.374E+03   0.596E+02 0.364E+02 0.404E+03   -.420E+01 -.232E+01 -.291E+02   -.840E-03 0.104E-02 -.307E-02
   -.206E+02 -.148E+02 0.355E+03   0.230E+02 0.160E+02 -.382E+03   -.103E+01 -.425E+00 0.269E+02   0.904E-03 -.571E-03 -.368E-02
   0.163E+02 0.860E+01 -.374E+03   -.180E+02 -.928E+01 0.402E+03   0.110E+01 0.843E+00 -.276E+02   0.181E-02 0.201E-02 0.613E-02
   0.264E+02 -.469E+01 0.375E+03   -.314E+02 0.551E+01 -.403E+03   0.432E+01 -.657E+00 0.275E+02   -.128E-02 -.266E-02 -.852E-03
   0.163E+02 -.103E+02 -.358E+03   -.162E+02 0.110E+02 0.386E+03   -.392E+00 -.120E-01 -.261E+02   -.304E-02 -.810E-03 -.287E-02
   0.196E+02 0.799E+01 0.342E+03   -.207E+02 -.759E+01 -.368E+03   0.113E+01 -.356E+00 0.273E+02   0.115E-02 0.224E-02 -.416E-02
   0.102E+01 0.292E+02 -.386E+03   -.111E+01 -.318E+02 0.414E+03   0.141E+00 0.105E+01 -.270E+02   0.959E-03 0.432E-03 0.562E-02
   0.242E+02 0.303E+02 0.383E+03   -.249E+02 -.349E+02 -.413E+03   -.601E+00 0.252E+01 0.281E+02   -.433E-02 0.215E-03 -.113E-02
   0.186E+02 0.201E+02 -.364E+03   -.212E+02 -.203E+02 0.392E+03   0.147E+01 -.972E+00 -.282E+02   -.360E-03 -.246E-02 -.329E-02
   0.172E+02 0.154E+02 0.371E+03   -.183E+02 -.165E+02 -.399E+03   0.370E+00 0.394E+00 0.281E+02   0.269E-02 0.945E-03 -.236E-02
   -.103E+02 0.285E+02 -.378E+03   0.104E+02 -.310E+02 0.407E+03   0.294E+00 0.260E+01 -.275E+02   0.793E-03 -.141E-02 0.436E-02
   0.275E+02 0.876E+01 0.370E+03   -.282E+02 -.107E+02 -.396E+03   -.341E+00 0.808E+00 0.264E+02   -.336E-02 0.103E-02 -.337E-02
   0.877E+01 0.815E+01 -.342E+03   -.102E+02 -.851E+01 0.367E+03   0.131E+01 0.356E+00 -.270E+02   -.133E-02 -.241E-03 -.958E-03
   -.145E+02 -.254E+02 0.341E+03   0.148E+02 0.280E+02 -.367E+03   -.473E+00 -.244E+01 0.260E+02   0.391E-02 -.415E-02 0.285E-03
   0.265E+01 0.213E+02 -.384E+03   -.122E+01 -.217E+02 0.412E+03   -.875E+00 -.932E+00 -.284E+02   0.179E-02 0.400E-02 0.234E-02
   -.704E+01 -.342E+01 0.363E+03   0.823E+01 0.508E+01 -.390E+03   -.112E+01 -.134E+01 0.274E+02   -.299E-03 0.299E-02 0.680E-03
   -.181E+02 -.494E+01 -.349E+03   0.206E+02 0.517E+01 0.374E+03   -.236E+01 0.399E+00 -.271E+02   0.302E-02 0.461E-03 -.814E-03
   -.294E+02 -.985E+01 0.405E+03   0.321E+02 0.108E+02 -.439E+03   -.786E+00 0.119E+01 0.321E+02   0.171E-03 0.423E-02 -.289E-02
   -.132E+02 -.279E+02 -.390E+03   0.157E+02 0.299E+02 0.419E+03   -.143E+01 -.151E+01 -.291E+02   0.467E-02 0.116E-02 0.111E-02
   -.477E+01 0.201E+02 0.378E+03   0.480E+01 -.217E+02 -.406E+03   0.102E+01 0.106E+01 0.282E+02   0.379E-02 -.398E-02 -.323E-02
   0.270E+02 -.104E+02 -.371E+03   -.296E+02 0.117E+02 0.398E+03   0.165E+01 -.127E+01 -.276E+02   -.336E-02 -.110E-02 0.245E-02
   0.844E+01 -.900E+01 0.372E+03   -.113E+02 0.802E+01 -.401E+03   0.219E+01 0.134E+01 0.274E+02   0.215E-02 0.396E-02 0.181E-02
 -----------------------------------------------------------------------------------------------
   0.272E+00 0.268E+01 -.182E+01   0.163E-12 -.355E-14 0.398E-12   -.273E+00 -.265E+01 0.183E+01   0.404E-03 0.217E-02 -.169E-01
 
 
 POSITION                                       TOTAL-FORCE (eV/Angst)
 -----------------------------------------------------------------------------------
      4.18783      7.16603      9.22407        -0.118109      2.194100     -0.153773
      4.18737      7.20461      4.65156        -0.483643      1.541106     -0.386651
     -1.44781      2.54238      9.24278         2.694920     -4.576707     -0.087488
      6.94085      2.42114      4.60997         0.442834     -0.814778      0.155509
      5.58691      4.77439      9.19469         0.256783      2.223999      1.721716
     -2.71049      4.91205      4.59493        -3.515962     -3.328964      1.868761
      2.83896      0.03176      9.24520        -1.323925     -0.037180      0.889318
      2.74422      0.07767      4.65365         0.708272     -2.096021     -0.880013
      1.40198      2.38082      9.25226         0.843405      0.095886     -0.160663
      1.38855      2.36255      4.67257        -1.016825      1.424841     -1.624495
     -0.01635      4.80086      9.24361         1.768070      1.928931      1.367538
      0.00593      4.84564      4.68034        -0.398304     -0.452369     -0.230732
      1.44096      7.22156      0.00637        -0.992534      1.916982     -1.568821
      1.34955      7.19016      4.61464         2.219997      4.168841      1.458156
      4.26768      2.50716      9.21362        -4.959445     -2.750119      1.995990
      4.18053      2.47712      4.53054         0.620694     -1.707986      2.778379
      2.75386      4.84048      0.06256         0.564854     -1.171877     -1.347188
      2.81122      4.82791      4.66216         0.662219     -0.439077      1.061167
      0.00332      1.54764      0.90384        -0.272096      0.539733     -0.345331
      1.34935      0.82965      3.65264         0.218919     -0.511016      0.634273
     -0.04197      1.55867      5.54468         0.156722      0.535669      0.560677
      1.48802      0.79116      8.24629        -1.064009     -0.079520      0.903498
     -1.39831      4.03744      1.01552        -0.132672      0.590532     -1.044021
      0.03580      3.25177      3.70252        -0.408839     -0.070285      0.394913
     -1.46408      3.89929      5.62548         0.848819      2.000020     -0.766851
      0.05399      3.25126      8.34670        -0.945779     -0.513598     -0.616912
     -2.82280      6.40582      0.89281         1.034668     -0.298702      0.081652
     -1.46075      5.66202      3.71881         2.617867      0.985373     -0.783800
     -2.76020      6.43359      5.57726        -0.183898      0.271658      0.350916
     -1.29332      5.71677      8.34404        -1.086455     -1.467134     -1.067928
      2.77654      1.57295      1.01097         0.437134      0.950984     -1.335819
      4.13442      0.78288      3.68191         0.178815      0.432925     -0.263335
      2.67490      1.55913      5.60540         1.632309      1.163729      0.208336
      4.15478      0.81295      8.33158         1.383379      0.743002     -0.429515
      1.39886      3.98176      0.95202        -0.589095      0.157998     -0.077823
      2.79302      3.23514      3.72805        -0.702405      0.165293     -0.814598
      1.41922      3.97120      5.50814        -0.306967      0.636635      1.528784
      2.80776      3.25134      8.23843        -0.034709      0.050538      1.647874
      0.02737      6.52803      0.89385         0.051503     -1.547345      0.968064
      1.47353      5.68812      3.80620        -1.318019     -1.994030     -1.973547
      0.02287      6.52899      5.58760        -1.123964     -1.130412      0.302442
      1.44948      5.66332      8.28536        -0.680939     -0.752203      0.569691
      5.57313      1.64044      0.87293         0.440273      0.067462      0.842471
      7.03450      0.85024      3.70056        -1.005115     -1.118212     -0.203161
      5.53818      1.61092      5.58244        -0.158897     -0.007400     -1.465572
      7.00046      0.81026      8.26879        -0.204345      0.128542      0.748500
      4.16478      4.13638      1.00885         0.554231     -1.297959     -0.720399
      5.58630      3.25501      3.62392         0.068362      0.321565      0.392867
      4.21026      3.97226      5.65236         0.147870      0.631470     -1.852969
      5.51911      3.15824      8.28774         1.890371      2.101782     -1.682832
      2.72415      6.41640      0.95759         1.127172      0.435288      0.428242
      4.13083      5.66616      3.71407         1.049131     -0.534373     -0.253367
      2.85463      6.43380      5.62348        -0.932282     -0.064466     -0.225770
      4.19254      5.55448      8.38686        -0.660360      0.356847     -1.496359
 -----------------------------------------------------------------------------------
    total drift:                               -0.000720      0.031916     -0.007657


--------------------------------------------------------------------------------------------------------



  FREE ENERGIE OF THE ION-ELECTRON SYSTEM (eV)
  ---------------------------------------------------
  free  energy   TOTEN  =      -333.0557118275 eV

  energy  without entropy=     -333.0557118275  energy(sigma->0) =     -333.05571183
 


--------------------------------------------------------------------------------------------------------


    POTLOK:  cpu time    0.1819: real time    0.1824


--------------------------------------------------------------------------------------------------------


     LOOP+:  cpu time 3236.1879: real time 3244.1522
    4ORBIT:  cpu time    0.0000: real time    0.0000

volume of typ            1:    20.5 %

volume of typ            2:    10.5 %
 
total charge     
 
# of ion       s       p       d       tot
------------------------------------------
    1        0.300   0.409   7.813   8.522
    2        0.317   0.453   7.828   8.597
    3        0.300   0.407   7.828   8.535
    4        0.308   0.434   7.814   8.556
    5        0.299   0.411   7.832   8.542
    6        0.310   0.423   7.830   8.564
    7        0.322   0.465   7.826   8.613
    8        0.314   0.442   7.830   8.586
    9        0.297   0.406   7.806   8.509
   10        0.315   0.447   7.828   8.590
   11        0.301   0.409   7.822   8.532
   12        0.283   0.367   7.814   8.464
   13        0.312   0.439   7.823   8.574
   14        0.313   0.432   7.830   8.575
   15        0.309   0.422   7.836   8.567
   16        0.298   0.399   7.814   8.512
   17        0.312   0.442   7.824   8.578
   18        0.312   0.439   7.826   8.577
   19        1.287   2.702   0.007   3.996
   20        1.288   2.718   0.008   4.015
   21        1.285   2.730   0.008   4.023
   22        1.289   2.701   0.007   3.997
   23        1.288   2.718   0.009   4.014
   24        1.287   2.709   0.007   4.004
   25        1.289   2.706   0.008   4.003
   26        1.283   2.739   0.009   4.031
   27        1.287   2.718   0.008   4.013
   28        1.283   2.745   0.010   4.038
   29        1.284   2.740   0.009   4.033
   30        1.282   2.740   0.009   4.030
   31        1.289   2.697   0.007   3.992
   32        1.284   2.723   0.008   4.015
   33        1.288   2.729   0.010   4.027
   34        1.288   2.715   0.008   4.012
   35        1.284   2.725   0.008   4.017
   36        1.283   2.740   0.009   4.033
   37        1.281   2.746   0.009   4.036
   38        1.289   2.692   0.006   3.987
   39        1.283   2.738   0.009   4.030
   40        1.282   2.762   0.011   4.055
   41        1.286   2.725   0.009   4.019
   42        1.288   2.712   0.008   4.008
   43        1.283   2.738   0.009   4.030
   44        1.284   2.721   0.008   4.013
   45        1.289   2.697   0.007   3.993
   46        1.287   2.697   0.006   3.991
   47        1.290   2.704   0.008   4.002
   48        1.286   2.711   0.008   4.005
   49        1.291   2.687   0.006   3.985
   50        1.284   2.768   0.013   4.065
   51        1.286   2.732   0.009   4.028
   52        1.284   2.736   0.009   4.029
   53        1.289   2.710   0.008   4.007
   54        1.281   2.753   0.010   4.044
--------------------------------------------------
tot          51.82  105.67  141.13  298.61
 
magnetization (x)
 
# of ion       s       p       d       tot
------------------------------------------
    1       -0.000  -0.000   0.000  -0.000
    2       -0.000  -0.000   0.000   0.000
    3       -0.000  -0.000   0.000  -0.000
    4       -0.000  -0.000  -0.000  -0.000
    5       -0.000  -0.000   0.000   0.000
    6       -0.000  -0.000   0.000  -0.000
    7       -0.000  -0.000  -0.000  -0.000
    8       -0.000  -0.000   0.000   0.000
    9       -0.000  -0.000  -0.000  -0.000
   10       -0.000  -0.000   0.000  -0.000
   11       -0.000  -0.000   0.000   0.000
   12       -0.000  -0.000   0.000   0.000
   13       -0.000  -0.000   0.000   0.000
   14       -0.000  -0.000   0.000   0.000
   15       -0.000  -0.000   0.000  -0.000
   16       -0.000  -0.000  -0.000  -0.000
   17       -0.000  -0.000   0.000   0.000
   18       -0.000  -0.000   0.000   0.000
   19        0.000   0.000  -0.000   0.000
   20        0.000   0.000  -0.000   0.000
   21        0.000   0.000  -0.000   0.000
   22        0.000   0.000  -0.000   0.000
   23        0.000  -0.000  -0.000  -0.000
   24        0.000   0.000  -0.000   0.000
   25        0.000   0.000  -0.000   0.000
   26        0.000   0.000  -0.000   0.000
   27        0.000   0.000  -0.000   0.000
   28        0.000  -0.000  -0.000  -0.000
   29        0.000  -0.000  -0.000  -0.000
   30        0.000   0.000  -0.000   0.000
   31        0.000   0.000   0.000   0.000
   32        0.000   0.000  -0.000   0.000
   33        0.000   0.000  -0.000   0.000
   34        0.000   0.000  -0.000   0.000
   35        0.000   0.000  -0.000   0.000
   36        0.000   0.000  -0.000   0.000
   37        0.000   0.000  -0.000   0.000
   38        0.000   0.000  -0.000   0.000
   39        0.000   0.000  -0.000   0.000
   40        0.000  -0.000  -0.000  -0.000
   41        0.000  -0.000  -0.000  -0.000
   42        0.000   0.000  -0.000   0.000
   43        0.000   0.000  -0.000   0.000
   44        0.000   0.000  -0.000   0.000
   45        0.000   0.000  -0.000   0.000
   46        0.000   0.000  -0.000   0.000
   47        0.000  -0.000  -0.000  -0.000
   48        0.000   0.000  -0.000   0.000
   49        0.000   0.000  -0.000   0.000
   50        0.000  -0.000  -0.000   0.000
   51        0.000  -0.000  -0.000   0.000
   52        0.000   0.000  -0.000   0.000
   53        0.000   0.000  -0.000   0.000
   54        0.000   0.000  -0.000   0.000
--------------------------------------------------
tot           0.00    0.00    0.00    0.00
 

 total amount of memory used by VASP MPI-rank0   315179. kBytes
=======================================================================

   base      :      30000. kBytes
   nonlr-proj:      32312. kBytes
   fftplans  :       6058. kBytes
   grid      :      34668. kBytes
   one-center:       1679. kBytes
   wavefun   :     210462. kBytes
 
  
  
 General timing and accounting informations for this job:
 ========================================================
  
                  Total CPU time used (sec):     3289.325
                            User time (sec):     3281.810
                          System time (sec):        7.515
                         Elapsed time (sec):     3301.481
  
                   Maximum memory used (kb):      393868.
                   Average memory used (kb):           0.
  
                          Minor page faults:        41574
                          Major page faults:           26
                 Voluntary context switches:         1183
