 vasp.5.4.4.18Apr17-6-g9f103f2a35 (build May 12 2020 04:58:55) complex          
  
 MD_VERSION_INFO: Compiled 2020-05-12T11:58:55-UTC in devlin.sd.materialsdesign.
 com:/home/medea2/data/build/wwolf/vasp-gpu5.4.4/13047/x86_64/src/src/build/std 
 from svn 13047
 
 This VASP executable licensed from Materials Design, Inc.
 
 executed on                        Lin64 date 2023.03.24  23:59:27
 running on   16 total cores
 distrk:  each k-point on   16 cores,    1 groups
 distr:  one band on NCORES_PER_BAND=   1 cores,   16 groups


--------------------------------------------------------------------------------------------------------


 INCAR:
 POTCAR:    PAW_PBE Ni 02Aug2007                  
 POTCAR:    PAW_PBE O 08Apr2002                   

 ----------------------------------------------------------------------------- 
|                                                                             |
|           W    W    AA    RRRRR   N    N  II  N    N   GGGG   !!!           |
|           W    W   A  A   R    R  NN   N  II  NN   N  G    G  !!!           |
|           W    W  A    A  R    R  N N  N  II  N N  N  G       !!!           |
|           W WW W  AAAAAA  RRRRR   N  N N  II  N  N N  G  GGG   !            |
|           WW  WW  A    A  R   R   N   NN  II  N   NN  G    G                |
|           W    W  A    A  R    R  N    N  II  N    N   GGGG   !!!           |
|                                                                             |
|      For optimal performance we recommend to set                            |
|        NCORE= 4 - approx SQRT( number of cores)                             |
|      NCORE specifies how many cores store one orbital (NPAR=cpu/NCORE).     |
|      This setting can  greatly improve the performance of VASP for DFT.     |
|      The default,   NCORE=1            might be grossly inefficient         |
|      on modern multi-core architectures or massively parallel machines.     |
|      Do your own testing !!!!                                               |
|      Unfortunately you need to use the default for GW and RPA calculations. |
|      (for HF NCORE is supported but not extensively tested yet)             |
|                                                                             |
 ----------------------------------------------------------------------------- 

 POTCAR:    PAW_PBE Ni 02Aug2007                  
  local pseudopotential read in
  partial core-charges read in
  partial kinetic energy density read in
  atomic valenz-charges read in
  non local Contribution for L=           2  read in
    real space projection operators read in
  non local Contribution for L=           2  read in
    real space projection operators read in
  non local Contribution for L=           0  read in
    real space projection operators read in
  non local Contribution for L=           0  read in
    real space projection operators read in
  non local Contribution for L=           1  read in
    real space projection operators read in
  non local Contribution for L=           1  read in
    real space projection operators read in
    PAW grid and wavefunctions read in
 
   number of l-projection  operators is LMAX  =           6
   number of lm-projection operators is LMMAX =          18
 
 POTCAR:    PAW_PBE O 08Apr2002                   
  local pseudopotential read in
  partial core-charges read in
  partial kinetic energy density read in
  kinetic energy density of atom read in
  atomic valenz-charges read in
  non local Contribution for L=           0  read in
    real space projection operators read in
  non local Contribution for L=           0  read in
    real space projection operators read in
  non local Contribution for L=           1  read in
    real space projection operators read in
  non local Contribution for L=           1  read in
    real space projection operators read in
    PAW grid and wavefunctions read in
 
   number of l-projection  operators is LMAX  =           4
   number of lm-projection operators is LMMAX =           8
 
 Optimization of the real space projectors (new method)

 maximal supplied QI-value         = 16.25
 optimisation between [QCUT,QGAM] = [ 11.38, 22.75] = [ 36.24,144.96] Ry 
 Optimized for a Real-space Cutoff    1.47 Angstroem

   l    n(q)    QCUT    max X(q) W(low)/X(q) W(high)/X(q)  e(spline) 
   2      9    11.376    60.317    0.17E-03    0.16E-04    0.16E-06
   2      9    11.376    55.921    0.17E-03    0.16E-04    0.17E-06
   0     10    11.376    51.690    0.45E-04    0.60E-04    0.21E-06
   0     10    11.376    30.015    0.37E-04    0.55E-04    0.19E-06
   1     10    11.376    18.849    0.83E-04    0.11E-03    0.92E-07
   1     10    11.376    14.624    0.69E-04    0.92E-04    0.82E-07
 Optimization of the real space projectors (new method)

 maximal supplied QI-value         = 24.76
 optimisation between [QCUT,QGAM] = [ 11.39, 22.77] = [ 36.31,145.25] Ry 
 Optimized for a Real-space Cutoff    1.10 Angstroem

   l    n(q)    QCUT    max X(q) W(low)/X(q) W(high)/X(q)  e(spline) 
   0      7    11.387    20.381    0.22E-03    0.48E-03    0.18E-06
   0      7    11.387    15.268    0.22E-03    0.52E-03    0.19E-06
   1      7    11.387     5.964    0.22E-03    0.73E-03    0.24E-06
   1      7    11.387     5.382    0.19E-03    0.60E-03    0.21E-06

 ----------------------------------------------------------------------------- 
|                                                                             |
|  ADVICE TO THIS USER RUNNING 'VASP/VAMP'   (HEAR YOUR MASTER'S VOICE ...):  |
|                                                                             |
|      You enforced a specific xc-type in the INCAR file,                     |
|      a different type was found on the POTCAR file                          |
|          I HOPE YOU KNOW, WHAT YOU ARE  DOING                               |
|                                                                             |
 ----------------------------------------------------------------------------- 

  PAW_PBE Ni 02Aug2007                  :
 energy of atom  1       EATOM=-1077.6739
 kinetic energy error for atom=    0.0030 (will be added to EATOM!!)
  PAW_PBE O 08Apr2002                   :
 energy of atom  2       EATOM= -432.3788
 kinetic energy error for atom=    0.0224 (will be added to EATOM!!)
 
 
 POSCAR: NiO2_C2_m_scale_0_975_disp_0_10_round_2 
  positions in direct lattice
  No initial velocities read in
 exchange correlation table for  LEXCH =       14
   RHO(1)=    0.500       N(1)  =     2000
   RHO(2)=  100.500       N(2)  =     4000
 


--------------------------------------------------------------------------------------------------------


 ion  position               nearest neighbor table
   1  0.997  0.011  1.000-  46 1.54  54 1.64  22 1.74  51 1.79  27 1.88  19 1.94   3 2.66  13 2.69
                            17 2.76   9 2.78   5 2.83   7 3.00
   2  0.982  0.989  0.499-  44 1.59  52 1.62  53 1.75  29 1.82  20 2.01  21 2.03  14 2.46  18 2.55
                             6 2.65  10 2.79   8 2.83   4 2.94
   3  0.007  0.341  0.989-  50 1.51  26 1.63  46 1.83  19 1.88  23 1.94  43 2.05  15 2.61   1 2.66
                             5 2.67   9 2.68  11 2.76  13 2.80
   4  0.006  0.362  0.495-  48 1.53  45 1.82  24 1.83  25 1.96  44 2.00  21 2.13   6 2.58  12 2.59
                            16 2.69  10 2.72  14 2.79   2 2.94
   5  0.994  0.662  0.992-  50 1.71  54 1.73  30 1.75  47 1.79  23 1.82  27 2.06  11 2.58  15 2.64
                             3 2.67   1 2.83  17 2.84   7 3.04
   6  0.992  0.670  0.513-  49 1.65  52 1.69  25 1.77  28 1.79  48 1.79  29 2.03   4 2.58   2 2.65
                            18 2.65  16 2.73  12 2.76   8 2.78
   7  0.373  0.029  0.999-  39 1.64  22 1.69  31 1.70  34 1.73  30 1.85  27 2.12  13 2.48  15 2.49
                            11 2.55   9 2.76   1 3.00   5 3.04
   8  0.336  0.006  0.523-  41 1.68  20 1.70  28 1.73  33 1.78  29 1.80  32 2.00  16 2.65  10 2.71
                            12 2.72   6 2.78   2 2.83  14 2.89
   9  0.340  0.350  0.991-  26 1.69  22 1.70  38 1.82  35 1.83  19 1.84  31 1.96  17 2.62   3 2.68
                             7 2.76   1 2.78  15 2.88  11 2.90
  10  0.322  0.331  0.521-  20 1.70  21 1.72  37 1.83  33 1.92  36 1.94  24 1.96   8 2.71   4 2.72
                            12 2.74  16 2.79   2 2.79  18 2.85
  11  0.324  0.696  0.019-  23 1.49  30 1.69  39 1.82  26 1.87  42 1.91  35 2.06   7 2.55   5 2.58
                            13 2.64   3 2.76  17 2.77   9 2.90
  12  0.331  0.671  0.505-  25 1.70  28 1.77  24 1.81  37 1.84  41 1.93  40 1.93   4 2.59   8 2.72
                            10 2.74   6 2.76  18 2.77  14 2.82
  13  0.662  0.001  0.001-  34 1.46  39 1.61  42 1.70  51 1.81  46 1.82  43 1.88   7 2.48  17 2.60
                            15 2.60  11 2.64   1 2.69   3 2.80
  14  0.688  0.002  0.522-  53 1.65  40 1.89  45 1.91  44 1.92  41 1.93  32 2.05   2 2.46  18 2.59
                            16 2.78   4 2.79  12 2.82   8 2.89
  15  0.683  0.330  0.010-  43 1.65  31 1.73  47 1.84  34 1.84  38 1.84  50 1.86   7 2.49  13 2.60
                             3 2.61   5 2.64   9 2.88  17 2.97
  16  0.662  0.329  0.505-  36 1.74  33 1.84  32 1.90  45 1.96  49 1.96  48 2.00   8 2.65   4 2.69
                             6 2.73  14 2.78  10 2.79  18 2.82
  17  0.654  0.678  0.008-  42 1.55  35 1.68  38 1.76  47 1.83  51 1.93  54 2.07  13 2.60   9 2.62
                             1 2.76  11 2.77   5 2.84  15 2.97
  18  0.673  0.678  0.539-  37 1.53  53 1.74  49 1.92  36 1.95  40 1.99  52 2.05   2 2.55  14 2.59
                             6 2.65  12 2.77  16 2.82  10 2.85
  19  0.129  0.247  0.110-   9 1.84   3 1.88   1 1.94
  20  0.251  0.126  0.426-   8 1.70  10 1.70   2 2.01
  21  0.119  0.224  0.627-  10 1.72   2 2.03   4 2.13
  22  0.233  0.116  0.946-   7 1.69   9 1.70   1 1.74
  23  0.135  0.583  0.092-  11 1.49   5 1.82   3 1.94
  24  0.228  0.459  0.391-  12 1.81   4 1.83  10 1.96
  25  0.133  0.597  0.610-  12 1.70   6 1.77   4 1.96
  26  0.224  0.459  0.928-   3 1.63   9 1.69  11 1.87
  27  0.113  0.907  0.116-   1 1.88   5 2.06   7 2.12
  28  0.221  0.792  0.430-   8 1.73  12 1.77   6 1.79
  29  0.116  0.922  0.621-   8 1.80   2 1.82   6 2.03
  30  0.221  0.792  0.916-  11 1.69   5 1.75   7 1.85
  31  0.465  0.233  0.098-   7 1.70  15 1.73   9 1.96
  32  0.560  0.107  0.388-  16 1.90   8 2.00  14 2.05
  33  0.451  0.223  0.624-   8 1.78  16 1.84  10 1.92
  34  0.588  0.101  0.913-  13 1.46   7 1.73  15 1.84
  35  0.456  0.560  0.110-  17 1.68   9 1.83  11 2.06
  36  0.563  0.450  0.418-  16 1.74  10 1.94  18 1.95
  37  0.467  0.573  0.592-  18 1.53  10 1.83  12 1.84
  38  0.581  0.461  0.918-  17 1.76   9 1.82  15 1.84
  39  0.471  0.931  0.096-  13 1.61   7 1.64  11 1.82
  40  0.567  0.789  0.397-  14 1.89  12 1.93  18 1.99
  41  0.443  0.906  0.613-   8 1.68  12 1.93  14 1.93
  42  0.563  0.780  0.926-  17 1.55  13 1.70  11 1.91
  43  0.767  0.223  0.116-  15 1.65  13 1.88   3 2.05
  44  0.914  0.107  0.403-   2 1.59  14 1.92   4 2.00
  45  0.806  0.241  0.621-   4 1.82  14 1.91  16 1.96
  46  0.895  0.100  0.916-   1 1.54  13 1.82   3 1.83
  47  0.777  0.566  0.093-   5 1.79  17 1.83  15 1.84
  48  0.916  0.458  0.408-   4 1.53   6 1.79  16 2.00
  49  0.805  0.561  0.622-   6 1.65  18 1.92  16 1.96
  50  0.917  0.444  0.916-   3 1.51   5 1.71  15 1.86
  51  0.789  0.917  0.112-   1 1.79  13 1.81  17 1.93
  52  0.913  0.792  0.412-   2 1.62   6 1.69  18 2.05
  53  0.787  0.902  0.618-  14 1.65  18 1.74   2 1.75
  54  0.920  0.808  0.914-   1 1.64   5 1.73  17 2.07
 
  LATTYP: Found a hexagonal cell.
 ALAT       =     8.1537982509
 C/A-ratio  =     1.1065328050
  
  Lattice vectors:
  
 A1 = (   8.1537982500,   0.0000000000,   0.0000000000)
 A2 = (  -4.0768991200,   7.0613964200,   0.0000000000)
 A3 = (   0.0000000000,   0.0000000000,   9.0224452500)


Analysis of symmetry for initial positions (statically):
=====================================================================
 Subroutine PRICEL returns:
 Original cell was already a primitive cell.
 

 Routine SETGRP: Setting up the symmetry group for a 
 hexagonal supercell.


 Subroutine GETGRP returns: Found  1 space group operations
 (whereof  1 operations were pure point group operations)
 out of a pool of 24 trial point group operations.


The static configuration has the point symmetry C_1 .


Analysis of symmetry for dynamics (positions and initial velocities):
=====================================================================
 Subroutine PRICEL returns:
 Original cell was already a primitive cell.
 

 Routine SETGRP: Setting up the symmetry group for a 
 hexagonal supercell.


 Subroutine GETGRP returns: Found  1 space group operations
 (whereof  1 operations were pure point group operations)
 out of a pool of 24 trial point group operations.


The dynamic configuration has the point symmetry C_1 .


Analysis of structural, dynamic, and magnetic symmetry:
=====================================================================
 Subroutine PRICEL returns:
 Original cell was already a primitive cell.
 

 Routine SETGRP: Setting up the symmetry group for a 
 hexagonal supercell.


 Subroutine GETGRP returns: Found  1 space group operations
 (whereof  1 operations were pure point group operations)
 out of a pool of 24 trial point group operations.


The magnetic configuration has the point symmetry C_1 .


 Subroutine INISYM returns: Found  1 space group operations
 (whereof  1 operations are pure point group operations),
 and found     1 'primitive' translations

 
 
 KPOINTS: Automatic mesh                          

Automatic generation of k-mesh.
Space group operators:
 irot       det(A)        alpha          n_x          n_y          n_z        tau_x        tau_y        tau_z
    1     1.000000     0.000001     1.000000     0.000000     0.000000     0.000000     0.000000     0.000000
 
 Subroutine IBZKPT returns following result:
 ===========================================
 
 Found     26 irreducible k-points:
 
 Following reciprocal coordinates:
            Coordinates               Weight
  0.000000  0.000000  0.000000      1.000000
  0.250000 -0.000000  0.000000      2.000000
  0.500000 -0.000000  0.000000      1.000000
  0.000000  0.250000  0.000000      2.000000
  0.250000  0.250000  0.000000      2.000000
  0.500000  0.250000  0.000000      2.000000
 -0.250000  0.250000  0.000000      2.000000
  0.000000  0.500000  0.000000      1.000000
  0.250000  0.500000  0.000000      2.000000
  0.500000  0.500000  0.000000      1.000000
  0.000000  0.000000  0.333333      2.000000
  0.250000 -0.000000  0.333333      2.000000
  0.500000 -0.000000  0.333333      2.000000
 -0.250000  0.000000  0.333333      2.000000
  0.000000  0.250000  0.333333      2.000000
  0.250000  0.250000  0.333333      2.000000
  0.500000  0.250000  0.333333      2.000000
 -0.250000  0.250000  0.333333      2.000000
  0.000000  0.500000  0.333333      2.000000
  0.250000  0.500000  0.333333      2.000000
  0.500000  0.500000  0.333333      2.000000
 -0.250000  0.500000  0.333333      2.000000
  0.000000 -0.250000  0.333333      2.000000
  0.250000 -0.250000  0.333333      2.000000
  0.500000 -0.250000  0.333333      2.000000
 -0.250000 -0.250000  0.333333      2.000000
 
 Following cartesian coordinates:
            Coordinates               Weight
  0.000000  0.000000  0.000000      1.000000
  0.030661  0.017702  0.000000      2.000000
  0.061321  0.035404  0.000000      1.000000
  0.000000  0.035404  0.000000      2.000000
  0.030661  0.053106  0.000000      2.000000
  0.061321  0.070808  0.000000      2.000000
 -0.030661  0.017702  0.000000      2.000000
  0.000000  0.070808  0.000000      1.000000
  0.030661  0.088509  0.000000      2.000000
  0.061321  0.106211  0.000000      1.000000
  0.000000  0.000000  0.036945      2.000000
  0.030661  0.017702  0.036945      2.000000
  0.061321  0.035404  0.036945      2.000000
 -0.030661 -0.017702  0.036945      2.000000
  0.000000  0.035404  0.036945      2.000000
  0.030661  0.053106  0.036945      2.000000
  0.061321  0.070808  0.036945      2.000000
 -0.030661  0.017702  0.036945      2.000000
  0.000000  0.070808  0.036945      2.000000
  0.030661  0.088509  0.036945      2.000000
  0.061321  0.106211  0.036945      2.000000
 -0.030661  0.053106  0.036945      2.000000
  0.000000 -0.035404  0.036945      2.000000
  0.030661 -0.017702  0.036945      2.000000
  0.061321 -0.000000  0.036945      2.000000
 -0.030661 -0.053106  0.036945      2.000000
 


--------------------------------------------------------------------------------------------------------




 Dimension of arrays:
   k-points           NKPTS =     26   k-points in BZ     NKDIM =     26   number of bands    NBANDS=    272
   number of dos      NEDOS =    301   number of ions     NIONS =     54
   non local maximal  LDIM  =      6   non local SUM 2l+1 LMDIM =     18
   total plane-waves  NPLWV = 252000
   max r-space proj   IRMAX =   6562   max aug-charges    IRDMAX=  15922
   dimension x,y,z NGX =    60 NGY =   60 NGZ =   70
   dimension x,y,z NGXF=   120 NGYF=  120 NGZF=  140
   support grid    NGXF=   120 NGYF=  120 NGZF=  140
   ions per type =              18  36
   NGX,Y,Z   is equivalent  to a cutoff of  12.23, 12.23, 12.90 a.u.
   NGXF,Y,Z  is equivalent  to a cutoff of  24.47, 24.47, 25.80 a.u.

 SYSTEM =  unknown system                          
 POSCAR =  NiO2_C2_m_scale_0_975_disp_0_10_round_2 

 Startparameter for this run:
   NWRITE =      1    write-flag & timer
   PREC   = accura    normal or accurate (medium, high low for compatibility)
   ISTART =      0    job   : 0-new  1-cont  2-samecut
   ICHARG =      2    charge: 1-file 2-atom 10-const
   ISPIN  =      2    spin polarized calculation?
   LNONCOLLINEAR =      F non collinear calculations
   LSORBIT =      F    spin-orbit coupling
   INIWAV =      1    electr: 0-lowe 1-rand  2-diag
   LASPH  =      F    aspherical Exc in radial PAW
   METAGGA=      F    non-selfconsistent MetaGGA calc.

 Electronic Relaxation 1
   ENCUT  =  500.0 eV  36.75 Ry    6.06 a.u.  14.87 14.87 16.45*2*pi/ulx,y,z
   ENINI  =  500.0     initial cutoff
   ENAUG  =  605.4 eV  augmentation charge cutoff
   NELM   =     80;   NELMIN=  2; NELMDL= -5     # of ELM steps 
   EDIFF  = 0.1E-04   stopping-criterion for ELM
   LREAL  =      T    real-space projection
   NLSPLINE    = F    spline interpolate recip. space projectors
   LCOMPAT=      F    compatible to vasp.4.4
   GGA_COMPAT  = T    GGA compatible to vasp.4.4-vasp.4.6
   LMAXPAW     = -100 max onsite density
   LMAXMIX     =    2 max onsite mixed and CHGCAR
   VOSKOWN=      1    Vosko Wilk Nusair interpolation
   ROPT   =   -0.00025  -0.00025
 Ionic relaxation
   EDIFFG = 0.1E-03   stopping-criterion for IOM
   NSW    =      0    number of steps for IOM
   NBLOCK =      1;   KBLOCK =      1    inner block; outer block 
   IBRION =     -1    ionic relax: 0-MD 1-quasi-New 2-CG
   NFREE  =      0    steps in history (QN), initial steepest desc. (CG)
   ISIF   =      2    stress and relaxation
   IWAVPR =     10    prediction:  0-non 1-charg 2-wave 3-comb
   ISYM   =      2    0-nonsym 1-usesym 2-fastsym
   LCORR  =      T    Harris-Foulkes like correction to forces

   POTIM  = 0.5000    time-step for ionic-motion
   TEIN   =    0.0    initial temperature
   TEBEG  =    0.0;   TEEND  =   0.0 temperature during run
   SMASS  =  -3.00    Nose mass-parameter (am)
   estimated Nose-frequenzy (Omega)   =  0.10E-29 period in steps =****** mass=  -0.152E-26a.u.
   SCALEE = 1.0000    scale energy and forces
   NPACO  =    256;   APACO  = 16.0  distance and # of slots for P.C.
   PSTRESS=    0.0 pullay stress

  Mass of Ions in am
   POMASS =  58.69 16.00
  Ionic Valenz
   ZVAL   =  10.00  6.00
  Atomic Wigner-Seitz radii
   RWIGS  =   1.15  0.73
  virtual crystal weights 
   VCA    =   1.00  1.00
   NELECT =     396.0000    total number of electrons
   NUPDOWN=      -1.0000    fix difference up-down

 DOS related values:
   EMIN   =  10.00;   EMAX   =-10.00  energy-range for DOS
   EFERMI =   0.00
   ISMEAR =     0;   SIGMA  =   0.05  broadening in eV -4-tet -1-fermi 0-gaus

 Electronic relaxation 2 (details)
   IALGO  =     38    algorithm
   LDIAG  =      T    sub-space diagonalisation (order eigenvalues)
   LSUBROT=      F    optimize rotation matrix (better conditioning)
   TURBO    =      0    0=normal 1=particle mesh
   IRESTART =      0    0=no restart 2=restart with 2 vectors
   NREBOOT  =      0    no. of reboots
   NMIN     =      0    reboot dimension
   EREF     =   0.00    reference energy to select bands
   IMIX   =      4    mixing-type and parameters
     AMIX     =   0.40;   BMIX     =  1.00
     AMIX_MAG =   1.60;   BMIX_MAG =  1.00
     AMIN     =   0.10
     WC   =   100.;   INIMIX=   1;  MIXPRE=   1;  MAXMIX= -45

 Intra band minimization:
   WEIMIN = 0.0000     energy-eigenvalue tresh-hold
   EBREAK =  0.92E-08  absolut break condition
   DEPER  =   0.30     relativ break condition  

   TIME   =   0.40     timestep for ELM

  volume/ion in A,a.u.               =       9.62        64.92
  Fermi-wavevector in a.u.,A,eV,Ry     =   1.495483  2.826054 30.429034  2.236471
  Thomas-Fermi vector in A             =   2.607622
 
 Write flags
   LWAVE        =      F    write WAVECAR
   LDOWNSAMPLE  =      F    k-point downsampling of WAVECAR
   LCHARG       =      T    write CHGCAR
   LVTOT        =      F    write LOCPOT, total local potential
   LVHAR        =      F    write LOCPOT, Hartree potential only
   LELF         =      F    write electronic localiz. function (ELF)
   LORBIT       =      0    0 simple, 1 ext, 2 COOP (PROOUT), +10 PAW based schemes


 Dipole corrections
   LMONO  =      F    monopole corrections only (constant potential shift)
   LDIPOL =      F    correct potential (dipole corrections)
   IDIPOL =      0    1-x, 2-y, 3-z, 4-all directions 
   EPSILON=  1.0000000 bulk dielectric constant

 Exchange correlation treatment:
   GGA     =    PS    GGA type
   LEXCH   =    14    internal setting for exchange type
   VOSKOWN=      1    Vosko Wilk Nusair interpolation
   LHFCALC =     F    Hartree Fock is set to
   LHFONE  =     F    Hartree Fock one center treatment
   AEXX    =    0.0000 exact exchange contribution

 Linear response parameters
   LEPSILON=     F    determine dielectric tensor
   LRPA    =     F    only Hartree local field effects (RPA)
   LNABLA  =     F    use nabla operator in PAW spheres
   LVEL    =     F    velocity operator in full k-point grid
   LINTERFAST=   F  fast interpolation
   KINTER  =     0    interpolate to denser k-point grid
   CSHIFT  =0.1000    complex shift for real part using Kramers Kronig
   OMEGAMAX=  -1.0    maximum frequency
   DEG_THRESHOLD= 0.2000000E-02 threshold for treating states as degnerate
   RTIME   =   -0.100 relaxation time in fs
  (WPLASMAI=    0.000 imaginary part of plasma frequency in eV, 0.658/RTIME)
   DFIELD  = 0.0000000 0.0000000 0.0000000 field for delta impulse in time
 
 Orbital magnetization related:
   ORBITALMAG=     F  switch on orbital magnetization
   LCHIMAG   =     F  perturbation theory with respect to B field
   DQ        =  0.001000  dq finite difference perturbation B field
   LLRAUG    =     F  two centre corrections for induced B field



--------------------------------------------------------------------------------------------------------


 Static calculation
 charge density and potential will be updated during run
 spin polarized calculation
 Variant of blocked Davidson
 Davidson routine will perform the subspace rotation
 perform sub-space diagonalisation
    after iterative eigenvector-optimisation
 modified Broyden-mixing scheme, WC =      100.0
 initial mixing is a Kerker type mixing with AMIX =  0.4000 and BMIX =      1.0000
 Hartree-type preconditioning will be used
 using additional bands           74
 real space projection scheme for non local part
 use partial core corrections
 calculate Harris-corrections to forces 
   (improved forces if not selfconsistent)
 use gradient corrections 
 use of overlap-Matrix (Vanderbilt PP)
 Gauss-broadening in eV      SIGMA  =   0.05


--------------------------------------------------------------------------------------------------------


  energy-cutoff  :      500.00
  volume of cell :      519.49
      direct lattice vectors                 reciprocal lattice vectors
     8.153798250  0.000000000  0.000000000     0.122642230  0.070807524  0.000000000
    -4.076899120  7.061396420  0.000000000     0.000000000  0.141615049  0.000000000
     0.000000000  0.000000000  9.022445250     0.000000000  0.000000000  0.110834699

  length of vectors
     8.153798250  8.153798246  9.022445250     0.141615049  0.141615049  0.110834699


 
 k-points in units of 2pi/SCALE and weight: Automatic mesh                          
   0.00000000  0.00000000  0.00000000       0.021
   0.03066056  0.01770188  0.00000000       0.042
   0.06132111  0.03540376  0.00000000       0.021
   0.00000000  0.03540376  0.00000000       0.042
   0.03066056  0.05310564  0.00000000       0.042
   0.06132111  0.07080752  0.00000000       0.042
  -0.03066056  0.01770188  0.00000000       0.042
   0.00000000  0.07080752  0.00000000       0.021
   0.03066056  0.08850941  0.00000000       0.042
   0.06132111  0.10621129  0.00000000       0.021
   0.00000000  0.00000000  0.03694490       0.042
   0.03066056  0.01770188  0.03694490       0.042
   0.06132111  0.03540376  0.03694490       0.042
  -0.03066056 -0.01770188  0.03694490       0.042
   0.00000000  0.03540376  0.03694490       0.042
   0.03066056  0.05310564  0.03694490       0.042
   0.06132111  0.07080752  0.03694490       0.042
  -0.03066056  0.01770188  0.03694490       0.042
   0.00000000  0.07080752  0.03694490       0.042
   0.03066056  0.08850941  0.03694490       0.042
   0.06132111  0.10621129  0.03694490       0.042
  -0.03066056  0.05310564  0.03694490       0.042
   0.00000000 -0.03540376  0.03694490       0.042
   0.03066056 -0.01770188  0.03694490       0.042
   0.06132111 -0.00000000  0.03694490       0.042
  -0.03066056 -0.05310564  0.03694490       0.042
 
 k-points in reciprocal lattice and weights: Automatic mesh                          
   0.00000000  0.00000000  0.00000000       0.021
   0.25000000 -0.00000000  0.00000000       0.042
   0.50000000 -0.00000000  0.00000000       0.021
   0.00000000  0.25000000  0.00000000       0.042
   0.25000000  0.25000000  0.00000000       0.042
   0.50000000  0.25000000  0.00000000       0.042
  -0.25000000  0.25000000  0.00000000       0.042
   0.00000000  0.50000000  0.00000000       0.021
   0.25000000  0.50000000  0.00000000       0.042
   0.50000000  0.50000000  0.00000000       0.021
   0.00000000  0.00000000  0.33333333       0.042
   0.25000000 -0.00000000  0.33333333       0.042
   0.50000000 -0.00000000  0.33333333       0.042
  -0.25000000  0.00000000  0.33333333       0.042
   0.00000000  0.25000000  0.33333333       0.042
   0.25000000  0.25000000  0.33333333       0.042
   0.50000000  0.25000000  0.33333333       0.042
  -0.25000000  0.25000000  0.33333333       0.042
   0.00000000  0.50000000  0.33333333       0.042
   0.25000000  0.50000000  0.33333333       0.042
   0.50000000  0.50000000  0.33333333       0.042
  -0.25000000  0.50000000  0.33333333       0.042
   0.00000000 -0.25000000  0.33333333       0.042
   0.25000000 -0.25000000  0.33333333       0.042
   0.50000000 -0.25000000  0.33333333       0.042
  -0.25000000 -0.25000000  0.33333333       0.042
 
 position of ions in fractional coordinates (direct lattice) 
   0.99660032  0.01067447  0.99950675
   0.98159263  0.98882673  0.49883754
   0.00724610  0.34149780  0.98909208
   0.00649656  0.36169224  0.49491951
   0.99415977  0.66233994  0.99153185
   0.99205753  0.66988194  0.51279403
   0.37270666  0.02853856  0.99936234
   0.33579833  0.00642197  0.52304329
   0.34039535  0.34963627  0.99053313
   0.32189622  0.33099201  0.52090220
   0.32390166  0.69553098  0.01938767
   0.33117305  0.67085809  0.50455075
   0.66185692  0.00078869  0.00089628
   0.68843747  0.00218377  0.52187909
   0.68263131  0.32958757  0.00988417
   0.66234655  0.32937953  0.50549841
   0.65384414  0.67805519  0.00790612
   0.67251247  0.67782675  0.53927394
   0.12902443  0.24696661  0.10952066
   0.25057498  0.12615502  0.42558897
   0.11913892  0.22447208  0.62656844
   0.23271141  0.11576178  0.94585422
   0.13530881  0.58329864  0.09157077
   0.22782126  0.45920432  0.39103316
   0.13338118  0.59660921  0.60955842
   0.22389275  0.45891534  0.92772106
   0.11295449  0.90718909  0.11623719
   0.22134665  0.79248168  0.42970013
   0.11614269  0.92175052  0.62146360
   0.22111569  0.79227858  0.91614264
   0.46530670  0.23300947  0.09794616
   0.55998045  0.10714203  0.38787364
   0.45063112  0.22259436  0.62353316
   0.58841877  0.10081235  0.91343459
   0.45644161  0.55959469  0.10985232
   0.56289964  0.44974791  0.41823298
   0.46670058  0.57274789  0.59220020
   0.58112889  0.46077473  0.91826745
   0.47140160  0.93052134  0.09633294
   0.56746338  0.78850314  0.39678090
   0.44344946  0.90581984  0.61320674
   0.56252782  0.78005892  0.92553587
   0.76685655  0.22308716  0.11569979
   0.91370746  0.10695896  0.40314203
   0.80589543  0.24073654  0.62088188
   0.89510376  0.09955670  0.91617964
   0.77697658  0.56606299  0.09328674
   0.91648784  0.45777305  0.40751864
   0.80534226  0.56068799  0.62199570
   0.91698543  0.44387684  0.91629653
   0.78860122  0.91665786  0.11236061
   0.91299477  0.79151749  0.41173075
   0.78662957  0.90196391  0.61815789
   0.92043338  0.80841084  0.91359835
 
 position of ions in cartesian coordinates  (Angst):
   8.08255921  0.07537666  9.01799493
   3.97236144  6.98249753  4.50073439
  -1.33316884  2.41145134  8.92402914
  -1.42161114  2.55405229  4.46538418
   5.40588507  4.67704488  8.94604183
   5.35799586  4.73030193  4.62665606
   2.92262608  0.20152209  9.01669200
   2.71185011  0.04534808  4.71912945
   1.35008321  2.46892031  8.93703093
   1.27525580  2.33726579  4.69981158
  -0.19458085  4.91141997  0.17492419
  -0.03470252  4.73719492  4.55228152
   5.39343239  0.00556925  0.00808664
   5.60447723  0.01542047  4.70862552
   4.22234271  2.32734849  0.08917938
   4.05779302  2.32587943  4.56083173
   2.56695060  4.78801649  0.07133253
   2.72009972  4.78640339  4.86556960
   0.04518122  1.74392914  0.98814416
   1.52881654  0.89083061  3.83985318
   0.05628469  1.58508634  5.65317945
   1.42553279  0.81743982  8.53391791
  -1.27476897  4.11890293  0.82619226
  -0.01452110  3.24262374  3.52807528
  -1.34475233  4.21289414  5.49970747
  -0.04537523  3.24058314  8.37031247
  -2.77751028  6.40602179  1.04874368
  -1.42605194  5.59602730  3.87694590
  -2.81087982  6.50884582  5.60712131
  -1.42710712  5.59459313  8.26584681
   2.84406085  1.64537224  0.88371387
   4.12916037  0.75657235  3.49956868
   2.76686049  1.57182702  5.62579380
   4.38684616  0.71187597  8.24141358
   1.44032170  3.95151994  0.99113654
   2.75619324  3.17584828  3.77348416
   1.47034700  4.04439990  5.34309388
   2.85987564  3.25371303  8.28501779
   0.05007191  6.57078006  0.86915868
   1.41233416  5.56793325  3.57993395
  -0.07713868  6.39635298  5.53262424
   1.40651683  5.50830527  8.35059671
   5.34328975  1.57530687  1.04389502
   7.01412540  0.75527962  3.63732689
   5.58965016  1.69993614  5.60187277
   6.89261285  0.70300932  8.26618064
   4.02752857  3.99719517  0.84167450
   5.60656240  3.23251698  3.67681462
   4.28072994  3.95924017  5.61192215
   5.66727310  3.13439033  8.26723527
   2.69297362  6.47288453  1.01376745
   4.21743820  5.58921877  3.71481815
   2.73680294  6.36912473  5.57729572
   4.20921864  5.70850941  8.24289109
 


--------------------------------------------------------------------------------------------------------


 k-point  1 :   0.0000 0.0000 0.0000  plane waves:   13143
 k-point  2 :   0.2500-0.0000 0.0000  plane waves:   13176
 k-point  3 :   0.5000-0.0000 0.0000  plane waves:   13192
 k-point  4 :   0.0000 0.2500 0.0000  plane waves:   13176
 k-point  5 :   0.2500 0.2500 0.0000  plane waves:   13219
 k-point  6 :   0.5000 0.2500 0.0000  plane waves:   13219
 k-point  7 :  -0.2500 0.2500 0.0000  plane waves:   13176
 k-point  8 :   0.0000 0.5000 0.0000  plane waves:   13192
 k-point  9 :   0.2500 0.5000 0.0000  plane waves:   13219
 k-point 10 :   0.5000 0.5000 0.0000  plane waves:   13192
 k-point 11 :   0.0000 0.0000 0.3333  plane waves:   13173
 k-point 12 :   0.2500-0.0000 0.3333  plane waves:   13192
 k-point 13 :   0.5000-0.0000 0.3333  plane waves:   13188
 k-point 14 :  -0.2500 0.0000 0.3333  plane waves:   13192
 k-point 15 :   0.0000 0.2500 0.3333  plane waves:   13192
 k-point 16 :   0.2500 0.2500 0.3333  plane waves:   13183
 k-point 17 :   0.5000 0.2500 0.3333  plane waves:   13183
 k-point 18 :  -0.2500 0.2500 0.3333  plane waves:   13192
 k-point 19 :   0.0000 0.5000 0.3333  plane waves:   13188
 k-point 20 :   0.2500 0.5000 0.3333  plane waves:   13183
 k-point 21 :   0.5000 0.5000 0.3333  plane waves:   13188
 k-point 22 :  -0.2500 0.5000 0.3333  plane waves:   13183
 k-point 23 :   0.0000-0.2500 0.3333  plane waves:   13192
 k-point 24 :   0.2500-0.2500 0.3333  plane waves:   13192
 k-point 25 :   0.5000-0.2500 0.3333  plane waves:   13183
 k-point 26 :  -0.2500-0.2500 0.3333  plane waves:   13183

 maximum and minimum number of plane-waves per node :     13219    13143

 maximum number of plane-waves:     13219
 maximum index in each direction: 
   IXMAX=   15   IYMAX=   15   IZMAX=   16
   IXMIN=  -15   IYMIN=  -15   IZMIN=  -16

 The following grids will avoid any aliasing or wrap around errors in the Hartre
 e energy
  - symmetry arguments have not been applied
  - exchange correlation energies might require even more grid points
  - we recommend to set PREC=Normal or Accurate and rely on VASP defaults
 WARNING: aliasing errors must be expected set NGX to    64 to avoid them
 WARNING: aliasing errors must be expected set NGY to    64 to avoid them
 NGZ is ok and might be reduce to    70

 serial   3D FFT for wavefunctions
 parallel 3D FFT for charge:
    minimum data exchange during FFTs selected (reduces bandwidth)


 total amount of memory used by VASP MPI-rank0   294955. kBytes
=======================================================================

   base      :      30000. kBytes
   nonlr-proj:      30618. kBytes
   fftplans  :       5529. kBytes
   grid      :      31150. kBytes
   one-center:       1679. kBytes
   wavefun   :     195979. kBytes
 
     INWAV:  cpu time    0.0000: real time    0.0000
 Broyden mixing: mesh for mixing (old mesh)
   NGX = 29   NGY = 29   NGZ = 33
  (NGX  =120   NGY  =120   NGZ  =140)
  gives a total of  27753 points

 initial charge density was supplied:
 charge density of overlapping atoms calculated
 number of electron     396.0000000 magnetization      45.0000000
 keeping initial charge density in first step


--------------------------------------------------------------------------------------------------------


 Maximum index for non-local projection operator         6333
 Maximum index for augmentation-charges         1298 (set IRDMAX)


--------------------------------------------------------------------------------------------------------


 First call to EWALD:  gamma=   0.220
 Maximum number of real-space cells 3x 3x 3
 Maximum number of reciprocal cells 3x 3x 3

    FEWALD:  cpu time    0.0026: real time    0.0026


--------------------------------------- Iteration      1(   1)  ---------------------------------------


    POTLOK:  cpu time    0.1607: real time    0.1720
    SETDIJ:  cpu time    0.0235: real time    0.0269
     EDDAV:  cpu time   69.4995: real time   69.6646
    --------------------------------------------
      LOOP:  cpu time   69.6866: real time   69.8680

 eigenvalue-minimisations  : 28288
 total energy-change (2. order) : 0.5311495E+04  (-0.1706100E+05)
 number of electron     396.0000000 magnetization      45.0000000
 augmentation part      396.0000000 magnetization      45.0000000

 Free energy of the ion-electron system (eV)
  ---------------------------------------------------
  alpha Z        PSCENC =      1335.31602646
  Ewald energy   TEWEN  =    -22403.55823954
  -Hartree energ DENC   =    -13704.84184149
  -exchange      EXHF   =         0.00000000
  -V(xc)+E(xc)   XCENC  =      1615.45364931
  PAW double counting   =     29771.88967665   -31027.00397701
  entropy T*S    EENTRO =        -0.01028471
  eigenvalues    EBANDS =      4833.86820577
  atomic energy  EATOM  =     34890.38139807
  Solvation  Ediel_sol  =         0.00000000
  ---------------------------------------------------
  free energy    TOTEN  =      5311.49461350 eV

  energy without entropy =     5311.50489822  energy(sigma->0) =     5311.49975586


--------------------------------------------------------------------------------------------------------




--------------------------------------- Iteration      1(   2)  ---------------------------------------


     EDDAV:  cpu time   69.8906: real time   70.0584
    --------------------------------------------
      LOOP:  cpu time   69.8905: real time   70.0566

 eigenvalue-minimisations  : 28896
 total energy-change (2. order) :-0.4614956E+04  (-0.4131600E+04)
 number of electron     396.0000000 magnetization      45.0000000
 augmentation part      396.0000000 magnetization      45.0000000

 Free energy of the ion-electron system (eV)
  ---------------------------------------------------
  alpha Z        PSCENC =      1335.31602646
  Ewald energy   TEWEN  =    -22403.55823954
  -Hartree energ DENC   =    -13704.84184149
  -exchange      EXHF   =         0.00000000
  -V(xc)+E(xc)   XCENC  =      1615.45364931
  PAW double counting   =     29771.88967665   -31027.00397701
  entropy T*S    EENTRO =        -0.02414993
  eigenvalues    EBANDS =       218.92573783
  atomic energy  EATOM  =     34890.38139807
  Solvation  Ediel_sol  =         0.00000000
  ---------------------------------------------------
  free energy    TOTEN  =       696.53828035 eV

  energy without entropy =      696.56243028  energy(sigma->0) =      696.55035531


--------------------------------------------------------------------------------------------------------




--------------------------------------- Iteration      1(   3)  ---------------------------------------


     EDDAV:  cpu time   69.8971: real time   70.0632
    --------------------------------------------
      LOOP:  cpu time   69.8972: real time   70.0633

 eigenvalue-minimisations  : 29232
 total energy-change (2. order) :-0.1035786E+04  (-0.9250423E+03)
 number of electron     396.0000000 magnetization      45.0000000
 augmentation part      396.0000000 magnetization      45.0000000

 Free energy of the ion-electron system (eV)
  ---------------------------------------------------
  alpha Z        PSCENC =      1335.31602646
  Ewald energy   TEWEN  =    -22403.55823954
  -Hartree energ DENC   =    -13704.84184149
  -exchange      EXHF   =         0.00000000
  -V(xc)+E(xc)   XCENC  =      1615.45364931
  PAW double counting   =     29771.88967665   -31027.00397701
  entropy T*S    EENTRO =        -0.07012801
  eigenvalues    EBANDS =      -816.81388758
  atomic energy  EATOM  =     34890.38139807
  Solvation  Ediel_sol  =         0.00000000
  ---------------------------------------------------
  free energy    TOTEN  =      -339.24732315 eV

  energy without entropy =     -339.17719514  energy(sigma->0) =     -339.21225914


--------------------------------------------------------------------------------------------------------




--------------------------------------- Iteration      1(   4)  ---------------------------------------


     EDDAV:  cpu time   80.3423: real time   80.5334
    --------------------------------------------
      LOOP:  cpu time   80.3425: real time   80.5335

 eigenvalue-minimisations  : 32464
 total energy-change (2. order) :-0.9377338E+02  (-0.9134589E+02)
 number of electron     396.0000000 magnetization      45.0000000
 augmentation part      396.0000000 magnetization      45.0000000

 Free energy of the ion-electron system (eV)
  ---------------------------------------------------
  alpha Z        PSCENC =      1335.31602646
  Ewald energy   TEWEN  =    -22403.55823954
  -Hartree energ DENC   =    -13704.84184149
  -exchange      EXHF   =         0.00000000
  -V(xc)+E(xc)   XCENC  =      1615.45364931
  PAW double counting   =     29771.88967665   -31027.00397701
  entropy T*S    EENTRO =        -0.07662535
  eigenvalues    EBANDS =      -910.58077341
  atomic energy  EATOM  =     34890.38139807
  Solvation  Ediel_sol  =         0.00000000
  ---------------------------------------------------
  free energy    TOTEN  =      -433.02070631 eV

  energy without entropy =     -432.94408096  energy(sigma->0) =     -432.98239363


--------------------------------------------------------------------------------------------------------




--------------------------------------- Iteration      1(   5)  ---------------------------------------


     EDDAV:  cpu time   75.7322: real time   75.9340
    CHARGE:  cpu time    2.7013: real time    2.7108
    MIXING:  cpu time    0.0040: real time    0.2360
    --------------------------------------------
      LOOP:  cpu time   78.4345: real time   78.8779

 eigenvalue-minimisations  : 32048
 total energy-change (2. order) :-0.2128812E+01  (-0.2120971E+01)
 number of electron     396.0000036 magnetization      37.2142009
 augmentation part      114.1340080 magnetization      30.2261723

 Broyden mixing:
  rms(total) = 0.15904E+02    rms(broyden)= 0.15902E+02
  rms(prec ) = 0.18296E+02
  weight for this iteration     100.00

 Free energy of the ion-electron system (eV)
  ---------------------------------------------------
  alpha Z        PSCENC =      1335.31602646
  Ewald energy   TEWEN  =    -22403.55823954
  -Hartree energ DENC   =    -13704.84184149
  -exchange      EXHF   =         0.00000000
  -V(xc)+E(xc)   XCENC  =      1615.45364931
  PAW double counting   =     29771.88967665   -31027.00397701
  entropy T*S    EENTRO =        -0.07710400
  eigenvalues    EBANDS =      -912.70910692
  atomic energy  EATOM  =     34890.38139807
  Solvation  Ediel_sol  =         0.00000000
  ---------------------------------------------------
  free energy    TOTEN  =      -435.14951847 eV

  energy without entropy =     -435.07241447  energy(sigma->0) =     -435.11096647


--------------------------------------------------------------------------------------------------------




--------------------------------------- Iteration      1(   6)  ---------------------------------------


    POTLOK:  cpu time    0.1433: real time    0.1436
    SETDIJ:  cpu time    0.0221: real time    0.0222
     EDDAV:  cpu time   98.1370: real time   98.3701
    CHARGE:  cpu time    2.5276: real time    2.5336
    MIXING:  cpu time    0.0039: real time    0.0173
    --------------------------------------------
      LOOP:  cpu time  100.8338: real time  101.0869

 eigenvalue-minimisations  : 44304
 total energy-change (2. order) :-0.7550112E+02  (-0.9990713E+02)
 number of electron     396.0000060 magnetization      31.7731662
 augmentation part      154.0436007 magnetization      28.3842521

 Broyden mixing:
  rms(total) = 0.22605E+02    rms(broyden)= 0.22604E+02
  rms(prec ) = 0.25027E+02
  weight for this iteration     100.00

 eigenvalues of (default mixing * dielectric matrix)
  average eigenvalue GAMMA=   0.2205
  0.2205

 Free energy of the ion-electron system (eV)
  ---------------------------------------------------
  alpha Z        PSCENC =      1335.31602646
  Ewald energy   TEWEN  =    -22403.55823954
  -Hartree energ DENC   =    -13056.25414674
  -exchange      EXHF   =         0.00000000
  -V(xc)+E(xc)   XCENC  =      1611.44023971
  PAW double counting   =     34868.61220799   -35932.90716529
  entropy T*S    EENTRO =        -0.03861322
  eigenvalues    EBANDS =     -1823.64234281
  atomic energy  EATOM  =     34890.38139807
  Solvation  Ediel_sol  =         0.00000000
  ---------------------------------------------------
  free energy    TOTEN  =      -510.65063537 eV

  energy without entropy =     -510.61202215  energy(sigma->0) =     -510.63132876


--------------------------------------------------------------------------------------------------------




--------------------------------------- Iteration      1(   7)  ---------------------------------------


    POTLOK:  cpu time    0.1383: real time    0.1386
    SETDIJ:  cpu time    0.0220: real time    0.0221
     EDDAV:  cpu time   85.4802: real time   85.6833
    CHARGE:  cpu time    2.5747: real time    2.5808
    MIXING:  cpu time    0.0038: real time    0.0088
    --------------------------------------------
      LOOP:  cpu time   88.2189: real time   88.4335

 eigenvalue-minimisations  : 37984
 total energy-change (2. order) : 0.1861356E+03  (-0.2956415E+02)
 number of electron     396.0000046 magnetization      20.8987387
 augmentation part      137.1197333 magnetization      18.7227209

 Broyden mixing:
  rms(total) = 0.72989E+01    rms(broyden)= 0.72976E+01
  rms(prec ) = 0.86998E+01
  weight for this iteration     100.00

 eigenvalues of (default mixing * dielectric matrix)
  average eigenvalue GAMMA=   0.6132
  0.6132  0.6132

 Free energy of the ion-electron system (eV)
  ---------------------------------------------------
  alpha Z        PSCENC =      1335.31602646
  Ewald energy   TEWEN  =    -22403.55823954
  -Hartree energ DENC   =    -13354.54716469
  -exchange      EXHF   =         0.00000000
  -V(xc)+E(xc)   XCENC  =      1610.68531712
  PAW double counting   =     36802.37733846   -38028.64434708
  entropy T*S    EENTRO =        -0.03532879
  eigenvalues    EBANDS =     -1176.49007163
  atomic energy  EATOM  =     34890.38139807
  Solvation  Ediel_sol  =         0.00000000
  ---------------------------------------------------
  free energy    TOTEN  =      -324.51507163 eV

  energy without entropy =     -324.47974284  energy(sigma->0) =     -324.49740723


--------------------------------------------------------------------------------------------------------




--------------------------------------- Iteration      1(   8)  ---------------------------------------


    POTLOK:  cpu time    0.1426: real time    0.1429
    SETDIJ:  cpu time    0.0221: real time    0.0222
     EDDAV:  cpu time   94.6603: real time   94.8854
    CHARGE:  cpu time    2.5618: real time    2.5889
    MIXING:  cpu time    0.0041: real time    0.0079
    --------------------------------------------
      LOOP:  cpu time   97.3909: real time   97.6474

 eigenvalue-minimisations  : 42480
 total energy-change (2. order) :-0.4506724E+02  (-0.1882696E+02)
 number of electron     396.0000047 magnetization      16.6401713
 augmentation part      129.7542745 magnetization      14.6528878

 Broyden mixing:
  rms(total) = 0.13445E+02    rms(broyden)= 0.13444E+02
  rms(prec ) = 0.17630E+02
  weight for this iteration     100.00

 eigenvalues of (default mixing * dielectric matrix)
  average eigenvalue GAMMA=   0.5149
  0.8144  0.5493  0.1810

 Free energy of the ion-electron system (eV)
  ---------------------------------------------------
  alpha Z        PSCENC =      1335.31602646
  Ewald energy   TEWEN  =    -22403.55823954
  -Hartree energ DENC   =    -13359.68460376
  -exchange      EXHF   =         0.00000000
  -V(xc)+E(xc)   XCENC  =      1603.50113271
  PAW double counting   =     39077.83518513   -40390.53118887
  entropy T*S    EENTRO =        -0.03292999
  eigenvalues    EBANDS =     -1122.80909632
  atomic energy  EATOM  =     34890.38139807
  Solvation  Ediel_sol  =         0.00000000
  ---------------------------------------------------
  free energy    TOTEN  =      -369.58231611 eV

  energy without entropy =     -369.54938613  energy(sigma->0) =     -369.56585112


--------------------------------------------------------------------------------------------------------




--------------------------------------- Iteration      1(   9)  ---------------------------------------


    POTLOK:  cpu time    0.1453: real time    0.1457
    SETDIJ:  cpu time    0.0227: real time    0.0227
     EDDAV:  cpu time   85.5948: real time   85.7982
    CHARGE:  cpu time    2.4565: real time    2.4623
    MIXING:  cpu time    0.0048: real time    0.2426
    --------------------------------------------
      LOOP:  cpu time   88.2241: real time   88.6716

 eigenvalue-minimisations  : 36096
 total energy-change (2. order) : 0.2820943E+02  (-0.3001904E+02)
 number of electron     396.0000047 magnetization      12.1174000
 augmentation part      127.2985442 magnetization       9.7118468

 Broyden mixing:
  rms(total) = 0.78806E+01    rms(broyden)= 0.78797E+01
  rms(prec ) = 0.10217E+02
  weight for this iteration     100.00

 eigenvalues of (default mixing * dielectric matrix)
  average eigenvalue GAMMA=   0.5305
  1.1617  0.4523  0.3086  0.1996

 Free energy of the ion-electron system (eV)
  ---------------------------------------------------
  alpha Z        PSCENC =      1335.31602646
  Ewald energy   TEWEN  =    -22403.55823954
  -Hartree energ DENC   =    -13365.24826658
  -exchange      EXHF   =         0.00000000
  -V(xc)+E(xc)   XCENC  =      1601.78870303
  PAW double counting   =     40246.51359508   -41583.81493891
  entropy T*S    EENTRO =        -0.05533125
  eigenvalues    EBANDS =     -1062.69583038
  atomic energy  EATOM  =     34890.38139807
  Solvation  Ediel_sol  =         0.00000000
  ---------------------------------------------------
  free energy    TOTEN  =      -341.37288403 eV

  energy without entropy =     -341.31755277  energy(sigma->0) =     -341.34521840


--------------------------------------------------------------------------------------------------------




--------------------------------------- Iteration      1(  10)  ---------------------------------------


    POTLOK:  cpu time    0.1519: real time    0.1523
    SETDIJ:  cpu time    0.0225: real time    0.0226
     EDDAV:  cpu time   87.9738: real time   88.1827
    CHARGE:  cpu time    2.4559: real time    2.4833
    MIXING:  cpu time    0.0037: real time    0.0037
    --------------------------------------------
      LOOP:  cpu time   90.6078: real time   90.8446

 eigenvalue-minimisations  : 37984
 total energy-change (2. order) : 0.2267080E+02  (-0.1220057E+02)
 number of electron     396.0000051 magnetization       9.6727040
 augmentation part      127.8897621 magnetization       8.1804648

 Broyden mixing:
  rms(total) = 0.53344E+01    rms(broyden)= 0.53335E+01
  rms(prec ) = 0.70680E+01
  weight for this iteration     100.00

 eigenvalues of (default mixing * dielectric matrix)
  average eigenvalue GAMMA=   0.5289
  1.3381  0.4199  0.3690  0.3690  0.1486

 Free energy of the ion-electron system (eV)
  ---------------------------------------------------
  alpha Z        PSCENC =      1335.31602646
  Ewald energy   TEWEN  =    -22403.55823954
  -Hartree energ DENC   =    -13337.11473665
  -exchange      EXHF   =         0.00000000
  -V(xc)+E(xc)   XCENC  =      1600.32834493
  PAW double counting   =     41568.55908318   -42917.38632713
  entropy T*S    EENTRO =        -0.03620705
  eigenvalues    EBANDS =     -1055.19142307
  atomic energy  EATOM  =     34890.38139807
  Solvation  Ediel_sol  =         0.00000000
  ---------------------------------------------------
  free energy    TOTEN  =      -318.70208080 eV

  energy without entropy =     -318.66587375  energy(sigma->0) =     -318.68397728


--------------------------------------------------------------------------------------------------------




--------------------------------------- Iteration      1(  11)  ---------------------------------------


    POTLOK:  cpu time    0.1430: real time    0.1434
    SETDIJ:  cpu time    0.0226: real time    0.0226
     EDDAV:  cpu time   80.7179: real time   80.9097
    CHARGE:  cpu time    2.5765: real time    2.5827
    MIXING:  cpu time    0.0037: real time    0.0037
    --------------------------------------------
      LOOP:  cpu time   83.4637: real time   83.6620

 eigenvalue-minimisations  : 35856
 total energy-change (2. order) : 0.6119413E+01  (-0.7434182E+01)
 number of electron     396.0000045 magnetization       7.2523260
 augmentation part      128.3246559 magnetization       6.1522488

 Broyden mixing:
  rms(total) = 0.46855E+01    rms(broyden)= 0.46849E+01
  rms(prec ) = 0.61945E+01
  weight for this iteration     100.00

 eigenvalues of (default mixing * dielectric matrix)
  average eigenvalue GAMMA=   0.5319
  1.4730  0.5043  0.5043  0.4074  0.1513  0.1513

 Free energy of the ion-electron system (eV)
  ---------------------------------------------------
  alpha Z        PSCENC =      1335.31602646
  Ewald energy   TEWEN  =    -22403.55823954
  -Hartree energ DENC   =    -13321.68545488
  -exchange      EXHF   =         0.00000000
  -V(xc)+E(xc)   XCENC  =      1599.98303307
  PAW double counting   =     42224.07506087   -43573.89477237
  entropy T*S    EENTRO =        -0.03376113
  eigenvalues    EBANDS =     -1063.16595823
  atomic energy  EATOM  =     34890.38139807
  Solvation  Ediel_sol  =         0.00000000
  ---------------------------------------------------
  free energy    TOTEN  =      -312.58266768 eV

  energy without entropy =     -312.54890654  energy(sigma->0) =     -312.56578711


--------------------------------------------------------------------------------------------------------




--------------------------------------- Iteration      1(  12)  ---------------------------------------


    POTLOK:  cpu time    0.1398: real time    0.1401
    SETDIJ:  cpu time    0.0225: real time    0.0226
     EDDAV:  cpu time   89.4344: real time   89.6471
    CHARGE:  cpu time    2.5409: real time    2.5470
    MIXING:  cpu time    0.0041: real time    0.0041
    --------------------------------------------
      LOOP:  cpu time   92.1417: real time   92.3608

 eigenvalue-minimisations  : 40688
 total energy-change (2. order) : 0.3446778E+01  (-0.5913560E+01)
 number of electron     396.0000048 magnetization       5.3823370
 augmentation part      129.2916691 magnetization       4.4993271

 Broyden mixing:
  rms(total) = 0.25331E+01    rms(broyden)= 0.25323E+01
  rms(prec ) = 0.33761E+01
  weight for this iteration     100.00

 eigenvalues of (default mixing * dielectric matrix)
  average eigenvalue GAMMA=   0.5320
  1.5773  0.5672  0.5672  0.3994  0.2964  0.1734  0.1431

 Free energy of the ion-electron system (eV)
  ---------------------------------------------------
  alpha Z        PSCENC =      1335.31602646
  Ewald energy   TEWEN  =    -22403.55823954
  -Hartree energ DENC   =    -13321.32326972
  -exchange      EXHF   =         0.00000000
  -V(xc)+E(xc)   XCENC  =      1600.30942962
  PAW double counting   =     42853.78113380   -44206.06248216
  entropy T*S    EENTRO =        -0.02621495
  eigenvalues    EBANDS =     -1057.95367151
  atomic energy  EATOM  =     34890.38139807
  Solvation  Ediel_sol  =         0.00000000
  ---------------------------------------------------
  free energy    TOTEN  =      -309.13588992 eV

  energy without entropy =     -309.10967497  energy(sigma->0) =     -309.12278245


--------------------------------------------------------------------------------------------------------




--------------------------------------- Iteration      1(  13)  ---------------------------------------


    POTLOK:  cpu time    0.1424: real time    0.1427
    SETDIJ:  cpu time    0.0226: real time    0.0227
     EDDAV:  cpu time   89.0520: real time   89.2636
    CHARGE:  cpu time    2.5711: real time    2.6118
    MIXING:  cpu time    0.0042: real time    0.0042
    --------------------------------------------
      LOOP:  cpu time   91.7923: real time   92.0450

 eigenvalue-minimisations  : 40160
 total energy-change (2. order) : 0.1365667E+01  (-0.1477021E+01)
 number of electron     396.0000046 magnetization       3.5424210
 augmentation part      129.5458222 magnetization       3.1557027

 Broyden mixing:
  rms(total) = 0.19136E+01    rms(broyden)= 0.19132E+01
  rms(prec ) = 0.24241E+01
  weight for this iteration     100.00

 eigenvalues of (default mixing * dielectric matrix)
  average eigenvalue GAMMA=   0.5333
  1.7317  0.5921  0.5921  0.4148  0.4148  0.2181  0.1513  0.1513

 Free energy of the ion-electron system (eV)
  ---------------------------------------------------
  alpha Z        PSCENC =      1335.31602646
  Ewald energy   TEWEN  =    -22403.55823954
  -Hartree energ DENC   =    -13325.65743231
  -exchange      EXHF   =         0.00000000
  -V(xc)+E(xc)   XCENC  =      1600.62286006
  PAW double counting   =     43326.00409714   -44680.23377362
  entropy T*S    EENTRO =        -0.00071709
  eigenvalues    EBANDS =     -1050.64444171
  atomic energy  EATOM  =     34890.38139807
  Solvation  Ediel_sol  =         0.00000000
  ---------------------------------------------------
  free energy    TOTEN  =      -307.77022254 eV

  energy without entropy =     -307.76950545  energy(sigma->0) =     -307.76986400


--------------------------------------------------------------------------------------------------------




--------------------------------------- Iteration      1(  14)  ---------------------------------------


    POTLOK:  cpu time    0.1427: real time    0.1431
    SETDIJ:  cpu time    0.0223: real time    0.0223
     EDDAV:  cpu time   89.1512: real time   89.3630
    CHARGE:  cpu time    2.3965: real time    2.4021
    MIXING:  cpu time    0.0042: real time    0.0043
    --------------------------------------------
      LOOP:  cpu time   91.7170: real time   91.9349

 eigenvalue-minimisations  : 40256
 total energy-change (2. order) : 0.1063028E+01  (-0.4817752E+00)
 number of electron     396.0000046 magnetization       1.9043027
 augmentation part      129.7734815 magnetization       1.5670833

 Broyden mixing:
  rms(total) = 0.10389E+01    rms(broyden)= 0.10387E+01
  rms(prec ) = 0.12624E+01
  weight for this iteration     100.00

 eigenvalues of (default mixing * dielectric matrix)
  average eigenvalue GAMMA=   0.5735
  1.8573  0.7228  0.7228  0.4980  0.4980  0.3424  0.2117  0.1545  0.1545

 Free energy of the ion-electron system (eV)
  ---------------------------------------------------
  alpha Z        PSCENC =      1335.31602646
  Ewald energy   TEWEN  =    -22403.55823954
  -Hartree energ DENC   =    -13328.25608121
  -exchange      EXHF   =         0.00000000
  -V(xc)+E(xc)   XCENC  =      1600.73817945
  PAW double counting   =     43785.17367745   -45141.96581158
  entropy T*S    EENTRO =        -0.00145214
  eigenvalues    EBANDS =     -1044.53489187
  atomic energy  EATOM  =     34890.38139807
  Solvation  Ediel_sol  =         0.00000000
  ---------------------------------------------------
  free energy    TOTEN  =      -306.70719491 eV

  energy without entropy =     -306.70574277  energy(sigma->0) =     -306.70646884


--------------------------------------------------------------------------------------------------------




--------------------------------------- Iteration      1(  15)  ---------------------------------------


    POTLOK:  cpu time    0.1378: real time    0.1382
    SETDIJ:  cpu time    0.0225: real time    0.0225
     EDDAV:  cpu time   92.0027: real time   92.2214
    CHARGE:  cpu time    2.5341: real time    2.5401
    MIXING:  cpu time    0.0044: real time    0.0044
    --------------------------------------------
      LOOP:  cpu time   94.7016: real time   94.9266

 eigenvalue-minimisations  : 40320
 total energy-change (2. order) :-0.3849485E-01  (-0.1585105E+00)
 number of electron     396.0000046 magnetization       0.8710600
 augmentation part      129.7805714 magnetization       0.6311465

 Broyden mixing:
  rms(total) = 0.89889E+00    rms(broyden)= 0.89881E+00
  rms(prec ) = 0.10823E+01
  weight for this iteration     100.00

 eigenvalues of (default mixing * dielectric matrix)
  average eigenvalue GAMMA=   0.6001
  1.9720  0.8838  0.8838  0.5347  0.5347  0.3623  0.3131  0.2096  0.1534  0.1534

 Free energy of the ion-electron system (eV)
  ---------------------------------------------------
  alpha Z        PSCENC =      1335.31602646
  Ewald energy   TEWEN  =    -22403.55823954
  -Hartree energ DENC   =    -13328.88941585
  -exchange      EXHF   =         0.00000000
  -V(xc)+E(xc)   XCENC  =      1600.72396967
  PAW double counting   =     44223.53683443   -45583.13916652
  entropy T*S    EENTRO =        -0.00011423
  eigenvalues    EBANDS =     -1041.11698226
  atomic energy  EATOM  =     34890.38139807
  Solvation  Ediel_sol  =         0.00000000
  ---------------------------------------------------
  free energy    TOTEN  =      -306.74568976 eV

  energy without entropy =     -306.74557553  energy(sigma->0) =     -306.74563264


--------------------------------------------------------------------------------------------------------




--------------------------------------- Iteration      1(  16)  ---------------------------------------


    POTLOK:  cpu time    0.1384: real time    0.1387
    SETDIJ:  cpu time    0.0214: real time    0.0215
     EDDAV:  cpu time   79.4953: real time   79.6842
    CHARGE:  cpu time    2.5280: real time    2.5341
    MIXING:  cpu time    0.0094: real time    0.0625
    --------------------------------------------
      LOOP:  cpu time   82.1926: real time   82.4410

 eigenvalue-minimisations  : 34400
 total energy-change (2. order) : 0.1065080E+00  (-0.7913674E-01)
 number of electron     396.0000046 magnetization       0.1856746
 augmentation part      129.7902458 magnetization       0.0298932

 Broyden mixing:
  rms(total) = 0.64029E+00    rms(broyden)= 0.64022E+00
  rms(prec ) = 0.77374E+00
  weight for this iteration     100.00

 eigenvalues of (default mixing * dielectric matrix)
  average eigenvalue GAMMA=   0.6442
  2.1183  1.1006  1.1006  0.5748  0.5748  0.4137  0.4137  0.2748  0.2075  0.1539
  0.1539

 Free energy of the ion-electron system (eV)
  ---------------------------------------------------
  alpha Z        PSCENC =      1335.31602646
  Ewald energy   TEWEN  =    -22403.55823954
  -Hartree energ DENC   =    -13330.81646374
  -exchange      EXHF   =         0.00000000
  -V(xc)+E(xc)   XCENC  =      1600.70166251
  PAW double counting   =     44533.64803721   -45895.12817059
  entropy T*S    EENTRO =        -0.00040565
  eigenvalues    EBANDS =     -1037.18302654
  atomic energy  EATOM  =     34890.38139807
  Solvation  Ediel_sol  =         0.00000000
  ---------------------------------------------------
  free energy    TOTEN  =      -306.63918181 eV

  energy without entropy =     -306.63877616  energy(sigma->0) =     -306.63897898


--------------------------------------------------------------------------------------------------------




--------------------------------------- Iteration      1(  17)  ---------------------------------------


    POTLOK:  cpu time    0.1449: real time    0.1453
    SETDIJ:  cpu time    0.0211: real time    0.0211
     EDDAV:  cpu time   82.5892: real time   82.7854
    CHARGE:  cpu time    2.5292: real time    2.5352
    MIXING:  cpu time    0.0047: real time    0.0048
    --------------------------------------------
      LOOP:  cpu time   85.2891: real time   85.4917

 eigenvalue-minimisations  : 36368
 total energy-change (2. order) :-0.4654202E-02  (-0.5363617E-01)
 number of electron     396.0000046 magnetization      -0.0854510
 augmentation part      129.8421289 magnetization      -0.1469030

 Broyden mixing:
  rms(total) = 0.52538E+00    rms(broyden)= 0.52531E+00
  rms(prec ) = 0.67604E+00
  weight for this iteration     100.00

 eigenvalues of (default mixing * dielectric matrix)
  average eigenvalue GAMMA=   0.6554
  2.3186  1.1452  1.1452  0.6188  0.6188  0.4725  0.4725  0.3093  0.1538  0.1538
  0.2077  0.2487

 Free energy of the ion-electron system (eV)
  ---------------------------------------------------
  alpha Z        PSCENC =      1335.31602646
  Ewald energy   TEWEN  =    -22403.55823954
  -Hartree energ DENC   =    -13332.08935321
  -exchange      EXHF   =         0.00000000
  -V(xc)+E(xc)   XCENC  =      1600.65428123
  PAW double counting   =     44785.09605565   -46146.88383342
  entropy T*S    EENTRO =        -0.00003270
  eigenvalues    EBANDS =     -1035.56013854
  atomic energy  EATOM  =     34890.38139807
  Solvation  Ediel_sol  =         0.00000000
  ---------------------------------------------------
  free energy    TOTEN  =      -306.64383601 eV

  energy without entropy =     -306.64380330  energy(sigma->0) =     -306.64381966


--------------------------------------------------------------------------------------------------------




--------------------------------------- Iteration      1(  18)  ---------------------------------------


    POTLOK:  cpu time    0.1375: real time    0.1378
    SETDIJ:  cpu time    0.0215: real time    0.0215
     EDDAV:  cpu time   89.4576: real time   89.6702
    CHARGE:  cpu time    2.5776: real time    2.5837
    MIXING:  cpu time    0.0050: real time    0.0050
    --------------------------------------------
      LOOP:  cpu time   92.1992: real time   92.4182

 eigenvalue-minimisations  : 38416
 total energy-change (2. order) : 0.7756706E-01  (-0.3945927E-01)
 number of electron     396.0000046 magnetization      -0.1191630
 augmentation part      129.8595507 magnetization      -0.1302297

 Broyden mixing:
  rms(total) = 0.34236E+00    rms(broyden)= 0.34228E+00
  rms(prec ) = 0.43700E+00
  weight for this iteration     100.00

 eigenvalues of (default mixing * dielectric matrix)
  average eigenvalue GAMMA=   0.6590
  2.4697  1.4410  0.8769  0.6782  0.6782  0.5232  0.5232  0.3457  0.2888  0.1538
  0.1538  0.2080  0.2259

 Free energy of the ion-electron system (eV)
  ---------------------------------------------------
  alpha Z        PSCENC =      1335.31602646
  Ewald energy   TEWEN  =    -22403.55823954
  -Hartree energ DENC   =    -13333.63046518
  -exchange      EXHF   =         0.00000000
  -V(xc)+E(xc)   XCENC  =      1600.68912704
  PAW double counting   =     44904.65107817   -46266.03803768
  entropy T*S    EENTRO =        -0.00017984
  eigenvalues    EBANDS =     -1034.37697646
  atomic energy  EATOM  =     34890.38139807
  Solvation  Ediel_sol  =         0.00000000
  ---------------------------------------------------
  free energy    TOTEN  =      -306.56626895 eV

  energy without entropy =     -306.56608911  energy(sigma->0) =     -306.56617903


--------------------------------------------------------------------------------------------------------




--------------------------------------- Iteration      1(  19)  ---------------------------------------


    POTLOK:  cpu time    0.1412: real time    0.1415
    SETDIJ:  cpu time    0.0221: real time    0.0222
     EDDAV:  cpu time   88.3435: real time   88.5533
    CHARGE:  cpu time    2.6027: real time    2.6088
    MIXING:  cpu time    0.0052: real time    0.0052
    --------------------------------------------
      LOOP:  cpu time   91.1147: real time   91.3310

 eigenvalue-minimisations  : 40240
 total energy-change (2. order) : 0.4233571E-01  (-0.1516790E-01)
 number of electron     396.0000046 magnetization      -0.0579010
 augmentation part      129.9072384 magnetization      -0.0503055

 Broyden mixing:
  rms(total) = 0.23804E+00    rms(broyden)= 0.23800E+00
  rms(prec ) = 0.28896E+00
  weight for this iteration     100.00

 eigenvalues of (default mixing * dielectric matrix)
  average eigenvalue GAMMA=   0.6701
  2.4734  1.7181  0.8092  0.8092  0.6033  0.6033  0.5712  0.3934  0.3934  0.2731
  0.1538  0.1538  0.2081  0.2181

 Free energy of the ion-electron system (eV)
  ---------------------------------------------------
  alpha Z        PSCENC =      1335.31602646
  Ewald energy   TEWEN  =    -22403.55823954
  -Hartree energ DENC   =    -13335.09013883
  -exchange      EXHF   =         0.00000000
  -V(xc)+E(xc)   XCENC  =      1600.73740371
  PAW double counting   =     44941.19268441   -46301.97970390
  entropy T*S    EENTRO =        -0.00014108
  eigenvalues    EBANDS =     -1033.52322254
  atomic energy  EATOM  =     34890.38139807
  Solvation  Ediel_sol  =         0.00000000
  ---------------------------------------------------
  free energy    TOTEN  =      -306.52393324 eV

  energy without entropy =     -306.52379215  energy(sigma->0) =     -306.52386270


--------------------------------------------------------------------------------------------------------




--------------------------------------- Iteration      1(  20)  ---------------------------------------


    POTLOK:  cpu time    0.1414: real time    0.1418
    SETDIJ:  cpu time    0.0222: real time    0.0223
     EDDAV:  cpu time   87.7827: real time   87.9912
    CHARGE:  cpu time    2.6009: real time    2.6072
    MIXING:  cpu time    0.0054: real time    0.0054
    --------------------------------------------
      LOOP:  cpu time   90.5527: real time   90.7679

 eigenvalue-minimisations  : 39728
 total energy-change (2. order) : 0.9378188E-02  (-0.6793588E-02)
 number of electron     396.0000046 magnetization      -0.0139201
 augmentation part      129.9222144 magnetization      -0.0048083

 Broyden mixing:
  rms(total) = 0.17618E+00    rms(broyden)= 0.17617E+00
  rms(prec ) = 0.21491E+00
  weight for this iteration     100.00

 eigenvalues of (default mixing * dielectric matrix)
  average eigenvalue GAMMA=   0.6852
  2.2980  2.1369  0.9455  0.9455  0.6332  0.6332  0.4949  0.4949  0.4163  0.2934
  0.1538  0.1538  0.2604  0.2094  0.2094

 Free energy of the ion-electron system (eV)
  ---------------------------------------------------
  alpha Z        PSCENC =      1335.31602646
  Ewald energy   TEWEN  =    -22403.55823954
  -Hartree energ DENC   =    -13336.09126532
  -exchange      EXHF   =         0.00000000
  -V(xc)+E(xc)   XCENC  =      1600.78754223
  PAW double counting   =     44932.12587065   -46292.29869848
  entropy T*S    EENTRO =        -0.00006238
  eigenvalues    EBANDS =     -1033.17712675
  atomic energy  EATOM  =     34890.38139807
  Solvation  Ediel_sol  =         0.00000000
  ---------------------------------------------------
  free energy    TOTEN  =      -306.51455505 eV

  energy without entropy =     -306.51449267  energy(sigma->0) =     -306.51452386


--------------------------------------------------------------------------------------------------------




--------------------------------------- Iteration      1(  21)  ---------------------------------------


    POTLOK:  cpu time    0.1413: real time    0.1416
    SETDIJ:  cpu time    0.0222: real time    0.0222
     EDDAV:  cpu time   86.2399: real time   86.4447
    CHARGE:  cpu time    2.5919: real time    2.5980
    MIXING:  cpu time    0.0056: real time    0.0056
    --------------------------------------------
      LOOP:  cpu time   89.0008: real time   89.2121

 eigenvalue-minimisations  : 38784
 total energy-change (2. order) : 0.7154626E-02  (-0.2243729E-02)
 number of electron     396.0000046 magnetization      -0.0260693
 augmentation part      129.9307560 magnetization      -0.0209409

 Broyden mixing:
  rms(total) = 0.12893E+00    rms(broyden)= 0.12893E+00
  rms(prec ) = 0.15852E+00
  weight for this iteration     100.00

 eigenvalues of (default mixing * dielectric matrix)
  average eigenvalue GAMMA=   0.7051
  2.4161  2.2361  1.0756  1.0756  0.6570  0.6570  0.5164  0.5164  0.5178  0.3491
  0.2895  0.1538  0.1538  0.2507  0.2087  0.2087

 Free energy of the ion-electron system (eV)
  ---------------------------------------------------
  alpha Z        PSCENC =      1335.31602646
  Ewald energy   TEWEN  =    -22403.55823954
  -Hartree energ DENC   =    -13336.79049624
  -exchange      EXHF   =         0.00000000
  -V(xc)+E(xc)   XCENC  =      1600.82323785
  PAW double counting   =     44922.12476486   -46281.90141149
  entropy T*S    EENTRO =        -0.00009519
  eigenvalues    EBANDS =     -1032.90258521
  atomic energy  EATOM  =     34890.38139807
  Solvation  Ediel_sol  =         0.00000000
  ---------------------------------------------------
  free energy    TOTEN  =      -306.50740042 eV

  energy without entropy =     -306.50730523  energy(sigma->0) =     -306.50735283


--------------------------------------------------------------------------------------------------------




--------------------------------------- Iteration      1(  22)  ---------------------------------------


    POTLOK:  cpu time    0.1414: real time    0.1418
    SETDIJ:  cpu time    0.0221: real time    0.0222
     EDDAV:  cpu time   91.5046: real time   91.7221
    CHARGE:  cpu time    2.5670: real time    2.5731
    MIXING:  cpu time    0.0056: real time    0.0056
    --------------------------------------------
      LOOP:  cpu time   94.2407: real time   94.4647

 eigenvalue-minimisations  : 41712
 total energy-change (2. order) : 0.3779498E-02  (-0.8967742E-03)
 number of electron     396.0000046 magnetization      -0.0188667
 augmentation part      129.9420116 magnetization      -0.0181254

 Broyden mixing:
  rms(total) = 0.96132E-01    rms(broyden)= 0.96128E-01
  rms(prec ) = 0.11978E+00
  weight for this iteration     100.00

 eigenvalues of (default mixing * dielectric matrix)
  average eigenvalue GAMMA=   0.7033
  2.3423  2.3423  1.1526  1.1526  0.6909  0.6909  0.5517  0.5517  0.5015  0.3706
  0.3614  0.1538  0.1538  0.2790  0.2444  0.2088  0.2088

 Free energy of the ion-electron system (eV)
  ---------------------------------------------------
  alpha Z        PSCENC =      1335.31602646
  Ewald energy   TEWEN  =    -22403.55823954
  -Hartree energ DENC   =    -13337.13449688
  -exchange      EXHF   =         0.00000000
  -V(xc)+E(xc)   XCENC  =      1600.83981145
  PAW double counting   =     44923.73718682   -46283.32603483
  entropy T*S    EENTRO =        -0.00007548
  eigenvalues    EBANDS =     -1032.75919699
  atomic energy  EATOM  =     34890.38139807
  Solvation  Ediel_sol  =         0.00000000
  ---------------------------------------------------
  free energy    TOTEN  =      -306.50362093 eV

  energy without entropy =     -306.50354544  energy(sigma->0) =     -306.50358318


--------------------------------------------------------------------------------------------------------




--------------------------------------- Iteration      1(  23)  ---------------------------------------


    POTLOK:  cpu time    0.1384: real time    0.1387
    SETDIJ:  cpu time    0.0220: real time    0.0220
     EDDAV:  cpu time   93.5485: real time   93.7707
    CHARGE:  cpu time    2.5814: real time    2.5875
    MIXING:  cpu time    0.0060: real time    0.0060
    --------------------------------------------
      LOOP:  cpu time   96.2963: real time   96.5250

 eigenvalue-minimisations  : 42896
 total energy-change (2. order) : 0.2405819E-02  (-0.4197103E-03)
 number of electron     396.0000046 magnetization      -0.0127717
 augmentation part      129.9402999 magnetization      -0.0131882

 Broyden mixing:
  rms(total) = 0.78808E-01    rms(broyden)= 0.78806E-01
  rms(prec ) = 0.97977E-01
  weight for this iteration     100.00

 eigenvalues of (default mixing * dielectric matrix)
  average eigenvalue GAMMA=   0.7143
  2.4748  2.2268  1.2925  1.2925  0.7707  0.7707  0.5783  0.5783  0.4701  0.4701
  0.3815  0.1538  0.1538  0.2907  0.2907  0.2457  0.2083  0.2083

 Free energy of the ion-electron system (eV)
  ---------------------------------------------------
  alpha Z        PSCENC =      1335.31602646
  Ewald energy   TEWEN  =    -22403.55823954
  -Hartree energ DENC   =    -13337.06905760
  -exchange      EXHF   =         0.00000000
  -V(xc)+E(xc)   XCENC  =      1600.83104279
  PAW double counting   =     44919.89999432   -46279.40389235
  entropy T*S    EENTRO =        -0.00008267
  eigenvalues    EBANDS =     -1032.89840459
  atomic energy  EATOM  =     34890.38139807
  Solvation  Ediel_sol  =         0.00000000
  ---------------------------------------------------
  free energy    TOTEN  =      -306.50121511 eV

  energy without entropy =     -306.50113244  energy(sigma->0) =     -306.50117377


--------------------------------------------------------------------------------------------------------




--------------------------------------- Iteration      1(  24)  ---------------------------------------


    POTLOK:  cpu time    0.1409: real time    0.1412
    SETDIJ:  cpu time    0.0222: real time    0.0223
     EDDAV:  cpu time   93.4922: real time   93.7143
    CHARGE:  cpu time    2.5863: real time    2.5925
    MIXING:  cpu time    0.0063: real time    0.0063
    --------------------------------------------
      LOOP:  cpu time   96.2478: real time   96.4765

 eigenvalue-minimisations  : 42848
 total energy-change (2. order) : 0.1536891E-02  (-0.2338064E-03)
 number of electron     396.0000046 magnetization      -0.0031735
 augmentation part      129.9379576 magnetization      -0.0035808

 Broyden mixing:
  rms(total) = 0.62036E-01    rms(broyden)= 0.62034E-01
  rms(prec ) = 0.78427E-01
  weight for this iteration     100.00

 eigenvalues of (default mixing * dielectric matrix)
  average eigenvalue GAMMA=   0.7460
  2.7546  1.9853  1.9853  1.1827  0.8652  0.8652  0.6122  0.6122  0.4954  0.4954
  0.4700  0.3399  0.2954  0.1538  0.1538  0.2540  0.2375  0.2082  0.2082

 Free energy of the ion-electron system (eV)
  ---------------------------------------------------
  alpha Z        PSCENC =      1335.31602646
  Ewald energy   TEWEN  =    -22403.55823954
  -Hartree energ DENC   =    -13337.01474584
  -exchange      EXHF   =         0.00000000
  -V(xc)+E(xc)   XCENC  =      1600.81925999
  PAW double counting   =     44917.08776807   -46276.54412988
  entropy T*S    EENTRO =        -0.00007945
  eigenvalues    EBANDS =     -1032.98693610
  atomic energy  EATOM  =     34890.38139807
  Solvation  Ediel_sol  =         0.00000000
  ---------------------------------------------------
  free energy    TOTEN  =      -306.49967822 eV

  energy without entropy =     -306.49959877  energy(sigma->0) =     -306.49963849


--------------------------------------------------------------------------------------------------------




--------------------------------------- Iteration      1(  25)  ---------------------------------------


    POTLOK:  cpu time    0.1415: real time    0.1419
    SETDIJ:  cpu time    0.0223: real time    0.0224
     EDDAV:  cpu time   92.8243: real time   93.0447
    CHARGE:  cpu time    2.5019: real time    2.5078
    MIXING:  cpu time    0.0063: real time    0.0063
    --------------------------------------------
      LOOP:  cpu time   95.4964: real time   95.7231

 eigenvalue-minimisations  : 42416
 total energy-change (2. order) : 0.1285577E-02  (-0.1487968E-03)
 number of electron     396.0000046 magnetization       0.0124913
 augmentation part      129.9358915 magnetization       0.0122503

 Broyden mixing:
  rms(total) = 0.43535E-01    rms(broyden)= 0.43534E-01
  rms(prec ) = 0.56705E-01
  weight for this iteration     100.00

 eigenvalues of (default mixing * dielectric matrix)
  average eigenvalue GAMMA=   0.7608
  3.0815  2.0923  2.0923  0.9643  0.9643  0.9180  0.6638  0.6638  0.5470  0.5470
  0.4632  0.3606  0.3606  0.1538  0.1538  0.2832  0.2083  0.2083  0.2534  0.2375

 Free energy of the ion-electron system (eV)
  ---------------------------------------------------
  alpha Z        PSCENC =      1335.31602646
  Ewald energy   TEWEN  =    -22403.55823954
  -Hartree energ DENC   =    -13336.83739830
  -exchange      EXHF   =         0.00000000
  -V(xc)+E(xc)   XCENC  =      1600.79816298
[...]
  in kB      537.5098562    422.3238590    270.3635879    -59.5108105   -113.0428140     81.3118064
  external PRESSURE =     410.0657677 kB  Pullay stress =       0.0000000 kB


 VOLUME and BASIS-vectors are now :
 -----------------------------------------------------------------------------
  energy-cutoff  :      500.00
  volume of cell :      519.49
      direct lattice vectors                 reciprocal lattice vectors
     8.153798250  0.000000000  0.000000000     0.122642230  0.070807524  0.000000000
    -4.076899120  7.061396420  0.000000000     0.000000000  0.141615049  0.000000000
     0.000000000  0.000000000  9.022445250     0.000000000  0.000000000  0.110834699

  length of vectors
     8.153798250  8.153798246  9.022445250     0.141615049  0.141615049  0.110834699


 FORCES acting on ions
    electron-ion (+dipol)            ewald-force                    non-local-force                 convergence-correction
 -----------------------------------------------------------------------------------------------
   -.960E+02 -.839E+00 -.716E+02   0.104E+03 -.281E+00 0.806E+02   -.580E+00 0.294E+00 0.104E+01   0.241E-01 0.335E-02 0.208E-01
   -.695E+02 -.955E+02 0.875E+02   0.783E+02 0.101E+03 -.832E+02   -.941E+00 0.196E+00 0.209E+01   -.119E-02 0.266E-01 -.116E-01
   -.306E+02 0.896E+02 -.289E+02   0.363E+02 -.983E+02 0.366E+02   -.789E+00 0.205E+01 0.271E+01   0.121E-01 0.633E-02 0.111E-01
   -.105E+03 0.116E+03 0.270E+02   0.114E+03 -.123E+03 -.212E+02   -.303E-01 0.920E+00 0.866E+00   -.188E-01 0.694E-02 -.903E-02
   0.772E+02 -.436E+02 -.118E+02   -.799E+02 0.485E+02 0.144E+02   0.196E+01 0.266E+00 0.224E+01   0.117E-01 0.135E-01 0.151E-01
   0.198E+02 -.290E+00 0.431E+02   -.166E+02 0.356E+01 -.429E+02   0.115E+01 0.313E+00 0.632E+00   0.425E-01 -.229E-01 -.155E-01
   0.177E+03 0.384E+02 0.588E+02   -.186E+03 -.412E+02 -.593E+02   0.171E+01 -.353E+00 0.140E+01   -.709E-02 -.649E-02 0.127E-01
   -.641E+02 -.391E+02 0.155E+02   0.650E+02 0.400E+02 -.158E+02   -.448E+00 0.374E+00 -.908E+00   0.300E-01 -.639E-02 -.180E-01
   -.491E+02 -.158E+02 0.986E+02   0.522E+02 0.155E+02 -.959E+02   -.852E+00 0.234E+00 0.252E+01   0.170E-02 -.396E-02 0.122E-01
   0.143E+02 -.849E+02 -.866E+01   -.127E+02 0.870E+02 0.823E+01   0.166E+01 0.893E+00 -.819E+00   -.111E-01 -.663E-02 -.123E-01
   -.143E+03 0.135E+02 -.966E+02   0.157E+03 -.996E+01 0.927E+02   -.754E+00 -.146E+01 -.441E+00   -.333E-03 0.590E-02 0.987E-02
   -.110E+03 -.746E+01 0.647E+02   0.114E+03 0.105E+02 -.666E+02   -.768E+00 0.443E+00 0.101E+01   -.444E-01 -.265E-02 -.614E-03
   -.177E+03 0.314E+02 -.176E+02   0.196E+03 -.345E+02 0.256E+02   -.323E+01 0.132E+01 0.201E+00   -.175E-01 -.758E-02 0.624E-02
   0.136E+03 -.749E+02 0.166E+02   -.144E+03 0.786E+02 -.199E+02   0.169E+01 -.543E+00 -.889E+00   -.248E-01 0.436E-01 -.883E-02
   0.490E+02 -.131E+03 0.131E+02   -.519E+02 0.137E+03 -.131E+02   0.355E-01 -.115E+01 -.260E+01   -.138E-01 -.563E-02 0.931E-02
   -.313E+02 0.156E+02 0.731E+02   0.325E+02 -.167E+02 -.727E+02   0.136E+01 0.151E+01 0.101E+01   0.295E-01 -.283E-01 -.176E-01
   -.133E+03 0.962E+01 -.459E+02   0.144E+03 -.113E+02 0.501E+02   -.236E+00 0.560E+00 -.546E+00   -.110E-01 -.923E-02 0.845E-02
   -.628E+02 0.539E+02 -.390E+02   0.703E+02 -.538E+02 0.339E+02   -.464E+00 0.677E+00 -.284E+01   0.375E-02 -.737E-02 -.635E-02
   -.971E+01 0.413E+01 -.434E+03   0.100E+02 -.529E+01 0.461E+03   -.111E+01 0.506E+00 -.267E+02   0.137E-01 0.337E-04 0.206E-01
   0.242E+02 -.117E+02 0.413E+03   -.271E+02 0.997E+01 -.443E+03   -.129E+00 0.482E+00 0.266E+02   0.122E-01 -.591E-02 -.151E-04
   0.580E+02 -.248E+02 -.335E+03   -.663E+02 0.193E+02 0.359E+03   0.584E+01 0.539E+01 -.254E+02   -.130E-01 0.828E-02 -.188E-01
   0.693E+01 0.923E+01 0.295E+03   -.923E+01 -.137E+02 -.312E+03   0.149E+01 0.509E+01 0.105E+02   0.606E-02 0.120E-02 0.639E-02
   0.846E+02 0.701E+02 -.473E+03   -.995E+02 -.856E+02 0.508E+03   0.557E+01 0.884E+01 -.273E+02   0.161E-01 0.196E-01 0.142E-01
   -.577E+02 0.279E+02 0.379E+03   0.636E+02 -.300E+02 -.408E+03   -.541E+01 0.139E+01 0.298E+02   -.242E-01 -.439E-02 0.138E-01
   -.301E+02 0.523E+02 -.397E+03   0.286E+02 -.551E+02 0.429E+03   0.938E+00 -.847E+00 -.294E+02   0.614E-02 -.906E-02 -.241E-01
   -.638E+02 -.551E+02 0.375E+03   0.680E+02 0.673E+02 -.403E+03   -.181E+01 -.878E+01 0.220E+02   0.135E-01 0.153E-01 -.113E-02
   -.243E+02 0.263E+02 -.404E+03   0.282E+02 -.271E+02 0.423E+03   -.321E+01 -.357E+00 -.194E+02   0.919E-02 0.422E-02 0.159E-01
   -.908E+01 -.169E+02 0.410E+03   0.723E+01 0.175E+02 -.440E+03   0.171E+01 -.728E+00 0.257E+02   0.109E-01 0.397E-02 0.716E-02
   0.455E+01 0.968E+01 -.367E+03   -.733E+01 -.107E+02 0.395E+03   0.272E+01 -.137E+01 -.267E+02   0.166E-01 0.484E-02 -.125E-01
   0.316E+02 -.407E+02 0.388E+03   -.352E+02 0.461E+02 -.419E+03   0.410E+01 -.384E+01 0.271E+02   0.143E-01 0.581E-03 0.292E-02
   0.890E+02 -.650E+02 -.437E+03   -.985E+02 0.713E+02 0.468E+03   0.865E+01 -.455E+01 -.283E+02   -.284E-02 -.387E-02 0.120E-01
   -.136E+02 0.919E+01 0.331E+03   0.142E+02 -.138E+02 -.355E+03   -.251E+00 0.477E+01 0.262E+02   -.420E-02 0.111E-01 0.171E-01
   -.171E+02 -.590E+02 -.364E+03   0.175E+02 0.626E+02 0.392E+03   -.420E+00 -.218E+01 -.278E+02   0.183E-01 -.885E-02 -.202E-01
   0.708E+02 -.931E+02 0.502E+03   -.810E+02 0.107E+03 -.547E+03   0.403E+00 -.522E+01 0.322E+02   -.829E-02 -.720E-03 -.860E-02
   0.325E+02 0.314E+02 -.435E+03   -.390E+02 -.362E+02 0.465E+03   0.380E+01 0.458E+01 -.277E+02   -.125E-01 -.465E-02 0.723E-02
   0.179E+02 -.311E+02 0.379E+03   -.237E+02 0.366E+02 -.406E+03   0.490E+01 -.475E+01 0.258E+02   0.169E-01 -.267E-01 -.125E-02
   0.831E+02 0.573E+02 -.329E+03   -.984E+02 -.655E+02 0.359E+03   0.661E+01 0.391E+01 -.228E+02   -.251E-01 -.118E-01 -.275E-02
   -.135E+02 0.116E+02 0.377E+03   0.189E+02 -.133E+02 -.403E+03   -.612E+01 0.700E+00 0.219E+02   -.256E-02 -.977E-02 -.258E-02
   0.384E+02 0.781E+02 -.502E+03   -.402E+02 -.817E+02 0.542E+03   -.769E-01 -.800E+00 -.328E+02   -.106E-01 -.101E-01 0.961E-02
   -.172E+01 0.211E+02 0.375E+03   0.409E+01 -.227E+02 -.400E+03   -.200E+01 0.128E+01 0.270E+02   -.194E-01 0.951E-02 -.587E-03
   -.734E+02 0.157E+02 -.335E+03   0.790E+02 -.197E+02 0.363E+03   -.202E+01 0.186E+01 -.257E+02   -.147E-01 0.647E-02 -.184E-01
   0.502E+02 0.638E+02 0.412E+03   -.620E+02 -.665E+02 -.445E+03   0.520E+01 0.374E+01 0.268E+02   -.186E-01 -.314E-02 -.145E-02
   -.929E+02 -.402E+02 -.467E+03   0.103E+03 0.367E+02 0.498E+03   -.563E+01 0.262E+01 -.293E+02   -.109E-01 -.608E-03 0.238E-01
   0.553E+02 -.901E+02 0.397E+03   -.645E+02 0.991E+02 -.431E+03   0.346E+01 -.589E+01 0.299E+02   -.613E-02 0.215E-01 0.865E-02
   0.181E+02 0.599E+00 -.318E+03   -.188E+02 0.968E+00 0.345E+03   -.509E+00 -.226E+01 -.282E+02   -.187E-02 0.129E-01 -.334E-01
   0.294E+02 -.459E+02 0.393E+03   -.409E+02 0.503E+02 -.427E+03   0.502E+01 -.184E+00 0.260E+02   -.890E-03 -.459E-02 -.116E-01
   0.175E+01 -.244E+02 -.409E+03   -.361E+01 0.262E+02 0.436E+03   0.290E+01 -.199E+01 -.250E+02   0.212E-02 -.569E-02 0.152E-01
   0.107E+03 -.759E+00 0.435E+03   -.121E+03 0.583E+01 -.471E+03   0.576E+01 -.260E+01 0.310E+02   0.156E-01 -.232E-01 0.203E-01
   0.531E+02 0.688E+02 -.363E+03   -.553E+02 -.764E+02 0.393E+03   -.169E+01 0.539E+01 -.282E+02   0.161E-01 -.262E-01 -.115E-01
   0.883E+02 -.246E+02 0.400E+03   -.103E+03 0.278E+02 -.436E+03   0.531E+01 -.123E+01 0.279E+02   -.108E-01 0.449E-02 -.147E-01
   -.413E+02 0.400E+02 -.449E+03   0.429E+02 -.408E+02 0.479E+03   -.173E+01 -.122E+01 -.284E+02   0.822E-03 0.240E-02 0.163E-01
   0.377E+02 0.786E+02 0.448E+03   -.430E+02 -.880E+02 -.484E+03   0.249E+01 0.520E+01 0.320E+02   0.130E-01 0.699E-02 -.775E-02
   -.571E+00 -.382E+00 -.404E+03   0.631E+01 0.295E+01 0.441E+03   -.429E+01 -.365E+01 -.331E+02   -.311E-02 0.223E-01 -.585E-02
   0.232E+02 0.616E+02 0.347E+03   -.275E+02 -.682E+02 -.377E+03   0.145E+01 0.263E+01 0.256E+02   0.620E-02 0.202E-02 -.347E-02
 -----------------------------------------------------------------------------------------------
   -.424E+02 -.125E+02 0.116E+02   0.114E-12 -.156E-12 -.114E-12   0.424E+02 0.125E+02 -.116E+02   0.232E-01 -.233E-02 0.165E-01
 
 
 POSITION                                       TOTAL-FORCE (eV/Angst)
 -----------------------------------------------------------------------------------
      8.08256      0.07538      9.01799         7.817872     -0.822892     10.040989
      3.97236      6.98250      4.50073         7.898538      5.798725      6.382850
     -1.33317      2.41145      8.92403         4.944640     -6.636485     10.404405
     -1.42161      2.55405      4.46538         8.671305     -6.320488      6.675282
      5.40589      4.67704      8.94604        -0.739425      5.254473      4.910906
      5.35800      4.73030      4.62666         4.351535      3.562921      0.827305
      2.92263      0.20152      9.01669        -7.935980     -3.191789      0.918407
      2.71185      0.04535      4.71913         0.422639      1.244299     -1.239311
      1.35008      2.46892      8.93703         2.182637     -0.049214      5.232965
      1.27526      2.33727      4.69981         3.274800      2.974365     -1.256904
     -0.19458      4.91142      0.17492        13.137819      2.091190     -4.334644
     -0.03470      4.73719      4.55228         3.088020      3.517335     -0.989959
      5.39343      0.00557      0.00809        16.045625     -1.823401      8.136834
      5.60448      0.01542      4.70863        -6.380116      3.186498     -4.217456
      4.22234      2.32735      0.08918        -2.872120      4.595826     -2.616527
      4.05779      2.32588      4.56083         2.624998      0.374596      1.359947
      2.56695      4.78802      0.07133        10.360548     -1.124352      3.650867
      2.72010      4.78640      4.86557         6.992817      0.784302     -7.894023
      0.04518      1.74393      0.98814        -0.767074     -0.653600     -0.191589
      1.52882      0.89083      3.83985        -2.996159     -1.211177     -3.445687
      0.05628      1.58509      5.65318        -2.469474     -0.114674     -0.695662
      1.42553      0.81744      8.53392        -0.800977      0.579180     -6.894057
     -1.27477      4.11890      0.82619        -9.386156     -6.640847      8.108336
     -0.01452      3.24262      3.52808         0.441544     -0.726042      0.570714
     -1.34475      4.21289      5.49971        -0.467299     -3.643333      2.860904
     -0.04538      3.24058      8.37031         2.383837      3.402067     -6.290656
     -2.77751      6.40602      1.04874         0.715722     -1.161960     -0.294985
     -1.42605      5.59603      3.87695        -0.131245     -0.157403     -4.139520
     -2.81088      6.50885      5.60712        -0.048092     -2.382579      1.168118
     -1.42711      5.59459      8.26585         0.558284      1.500177     -4.233114
      2.84406      1.64537      0.88371        -0.777055      1.725471      2.728175
      4.12916      0.75657      3.49957         0.338522      0.207879      2.434080
      2.76686      1.57183      5.62579         0.013369      1.419640      0.507487
      4.38685      0.71188      8.24141        -9.752202      8.540210    -12.190429
      1.44032      3.95152      0.99114        -2.672776     -0.306388      1.793039
      2.75619      3.17585      3.77348        -0.810594      0.751620     -0.609127
      1.47035      4.04440      5.34309        -8.682103     -4.268355      6.295628
      2.85988      3.25371      8.28502        -0.748992     -0.989004     -4.355779
      0.05007      6.57078      0.86916        -1.834853     -4.415600      7.162361
      1.41233      5.56793      3.57993         0.347942     -0.281771      1.575147
     -0.07714      6.39635      5.53262         3.634405     -2.081194      2.154252
      1.40652      5.50831      8.35060        -6.570580      1.031848     -6.736363
      5.34329      1.57531      1.04390         4.269219     -0.928244      1.866368
      7.01413      0.75528      3.63733        -5.758195      3.139898     -3.499281
      5.58965      1.69994      5.60187        -1.221905     -0.681802     -0.960079
      6.89261      0.70301      8.26618        -6.418662      4.235211     -7.322611
      4.02753      3.99720      0.84167         1.047755     -0.211099      2.285785
      5.60656      3.23252      3.67681        -7.963995      2.453388     -5.747879
      4.28073      3.95924      5.61192        -3.823322     -2.291951      1.976715
      5.66727      3.13439      8.26724        -9.090876      2.003570     -8.474017
      2.69297      6.47288      1.01377        -0.150568     -2.042529      1.185802
      4.21744      5.58922      3.71482        -2.813115     -4.207449     -4.036955
      2.73680      6.36912      5.57730         1.442795     -1.052274      4.049013
      4.20922      5.70851      8.24289        -2.923279     -3.956789     -4.596067
 -----------------------------------------------------------------------------------
    total drift:                               -0.015766      0.001821      0.002578


--------------------------------------------------------------------------------------------------------



  FREE ENERGIE OF THE ION-ELECTRON SYSTEM (eV)
  ---------------------------------------------------
  free  energy   TOTEN  =      -306.4969512229 eV

  energy  without entropy=     -306.4968539765  energy(sigma->0) =     -306.49690260
 


--------------------------------------------------------------------------------------------------------


    POTLOK:  cpu time    0.1620: real time    0.1624


--------------------------------------------------------------------------------------------------------


     LOOP+:  cpu time 2907.6056: real time 2915.3757
    4ORBIT:  cpu time    0.0000: real time    0.0000

volume of typ            1:    22.1 %

volume of typ            2:    11.3 %
 
total charge     
 
# of ion       s       p       d       tot
------------------------------------------
    1        0.399   0.633   7.929   8.961
    2        0.384   0.586   7.930   8.900
    3        0.387   0.578   7.966   8.932
    4        0.346   0.481   7.909   8.736
    5        0.348   0.518   7.893   8.759
    6        0.366   0.569   7.909   8.845
    7        0.374   0.581   7.941   8.896
    8        0.365   0.575   7.881   8.821
    9        0.344   0.506   7.879   8.729
   10        0.326   0.463   7.856   8.645
   11        0.385   0.569   7.975   8.929
   12        0.331   0.478   7.870   8.679
   13        0.440   0.735   8.032   9.207
   14        0.310   0.428   7.863   8.601
   15        0.351   0.524   7.916   8.791
   16        0.298   0.397   7.838   8.533
   17        0.376   0.563   7.924   8.863
   18        0.353   0.490   7.920   8.762
   19        1.296   2.718   0.008   4.022
   20        1.286   2.784   0.013   4.084
   21        1.291   2.711   0.008   4.010
   22        1.266   2.872   0.016   4.154
   23        1.297   2.833   0.021   4.151
   24        1.288   2.723   0.009   4.020
   25        1.289   2.768   0.012   4.069
   26        1.278   2.836   0.017   4.131
   27        1.304   2.662   0.005   3.970
   28        1.278   2.809   0.013   4.100
   29        1.292   2.726   0.009   4.027
   30        1.278   2.814   0.013   4.105
   31        1.294   2.772   0.013   4.078
   32        1.297   2.666   0.006   3.968
   33        1.288   2.735   0.009   4.033
   34        1.285   2.896   0.026   4.208
   35        1.293   2.744   0.011   4.049
   36        1.291   2.725   0.009   4.025
   37        1.272   2.857   0.019   4.148
   38        1.275   2.789   0.011   4.075
   39        1.287   2.860   0.020   4.167
   40        1.295   2.684   0.006   3.986
   41        1.282   2.761   0.010   4.053
   42        1.276   2.874   0.019   4.168
   43        1.291   2.763   0.011   4.066
   44        1.289   2.767   0.014   4.069
   45        1.286   2.718   0.008   4.012
   46        1.276   2.859   0.018   4.154
   47        1.284   2.765   0.010   4.059
   48        1.287   2.808   0.018   4.114
   49        1.286   2.758   0.011   4.056
   50        1.275   2.890   0.022   4.187
   51        1.289   2.754   0.009   4.053
   52        1.284   2.815   0.016   4.114
   53        1.283   2.819   0.017   4.119
   54        1.280   2.802   0.013   4.095
--------------------------------------------------
tot          52.77  109.81  142.90  305.48
 
magnetization (x)
 
# of ion       s       p       d       tot
------------------------------------------
    1       -0.000  -0.000  -0.000  -0.000
    2       -0.000  -0.000  -0.000  -0.000
    3        0.000   0.000   0.000   0.000
    4       -0.000  -0.000  -0.000  -0.000
    5       -0.000  -0.000  -0.000  -0.000
    6        0.000   0.000   0.000   0.000
    7       -0.000  -0.000  -0.000  -0.000
    8       -0.000  -0.000  -0.000  -0.000
    9       -0.000  -0.000  -0.000  -0.000
   10       -0.000   0.000   0.000   0.000
   11       -0.000  -0.000  -0.000  -0.000
   12        0.000   0.000  -0.000  -0.000
   13        0.000   0.000  -0.000   0.000
   14       -0.000  -0.000  -0.000  -0.000
   15       -0.000  -0.000  -0.000  -0.000
   16       -0.000  -0.000  -0.000  -0.000
   17       -0.000  -0.000  -0.000  -0.000
   18        0.000   0.000   0.000   0.000
   19       -0.000   0.000   0.000   0.000
   20        0.000   0.000  -0.000   0.000
   21        0.000   0.000  -0.000   0.000
   22        0.000   0.000  -0.000   0.000
   23       -0.000  -0.000   0.000  -0.000
   24       -0.000  -0.000   0.000  -0.000
   25       -0.000   0.000   0.000   0.000
   26       -0.000   0.000   0.000   0.000
   27        0.000   0.000  -0.000   0.000
   28       -0.000   0.000  -0.000  -0.000
   29       -0.000  -0.000   0.000  -0.000
   30       -0.000  -0.000  -0.000  -0.000
   31       -0.000   0.000  -0.000   0.000
   32        0.000   0.000  -0.000   0.000
   33       -0.000   0.000   0.000   0.000
   34       -0.000  -0.000  -0.000  -0.000
   35       -0.000  -0.000   0.000  -0.000
   36       -0.000  -0.000   0.000  -0.000
   37       -0.000   0.000   0.000   0.000
   38       -0.000   0.000   0.000   0.000
   39       -0.000  -0.000  -0.000  -0.000
   40       -0.000  -0.000   0.000  -0.000
   41       -0.000   0.000  -0.000   0.000
   42       -0.000  -0.000  -0.000  -0.000
   43       -0.000  -0.000   0.000  -0.000
   44       -0.000  -0.000  -0.000  -0.000
   45       -0.000   0.000   0.000   0.000
   46       -0.000  -0.000   0.000  -0.000
   47        0.000   0.000  -0.000   0.000
   48       -0.000  -0.000   0.000  -0.000
   49       -0.000   0.000   0.000   0.000
   50       -0.000  -0.000   0.000  -0.000
   51       -0.000  -0.000  -0.000  -0.000
   52        0.000   0.000  -0.000   0.000
   53       -0.000  -0.000   0.000  -0.000
   54       -0.000   0.000  -0.000   0.000
--------------------------------------------------
tot          -0.00    0.00   -0.00   -0.00
 

 total amount of memory used by VASP MPI-rank0   294955. kBytes
=======================================================================

   base      :      30000. kBytes
   nonlr-proj:      30618. kBytes
   fftplans  :       5529. kBytes
   grid      :      31150. kBytes
   one-center:       1679. kBytes
   wavefun   :     195979. kBytes
 
  
  
 General timing and accounting informations for this job:
 ========================================================
  
                  Total CPU time used (sec):     2953.390
                            User time (sec):     2948.181
                          System time (sec):        5.209
                         Elapsed time (sec):     2965.340
  
                   Maximum memory used (kb):      369536.
                   Average memory used (kb):           0.
  
                          Minor page faults:        43830
                          Major page faults:           47
                 Voluntary context switches:         1231
