 vasp.5.4.4.18Apr17-6-g9f103f2a35 (build May 12 2020 05:39:39) gamma-only       
  
 MD_VERSION_INFO: Compiled 2020-05-12T12:39:39-UTC in devlin.sd.materialsdesign.
 com:/home/medea2/data/build/wwolf/vasp-gpu5.4.4/13047/x86_64/src/src/build/gam 
 from svn 13047
 
 This VASP executable licensed from Materials Design, Inc.
 
 executed on                        Lin64 date 2023.02.09  14:04:33
 running on   16 total cores
 distrk:  each k-point on   16 cores,    1 groups
 distr:  one band on NCORES_PER_BAND=   1 cores,   16 groups


--------------------------------------------------------------------------------------------------------


 INCAR:
 POTCAR:    PAW_PBE Li_sv 10Sep2004               
 POTCAR:    PAW_PBE Ni 02Aug2007                  
 POTCAR:    PAW_PBE O 08Apr2002                   

 ----------------------------------------------------------------------------- 
|                                                                             |
|           W    W    AA    RRRRR   N    N  II  N    N   GGGG   !!!           |
|           W    W   A  A   R    R  NN   N  II  NN   N  G    G  !!!           |
|           W    W  A    A  R    R  N N  N  II  N N  N  G       !!!           |
|           W WW W  AAAAAA  RRRRR   N  N N  II  N  N N  G  GGG   !            |
|           WW  WW  A    A  R   R   N   NN  II  N   NN  G    G                |
|           W    W  A    A  R    R  N    N  II  N    N   GGGG   !!!           |
|                                                                             |
|      For optimal performance we recommend to set                            |
|        NCORE= 4 - approx SQRT( number of cores)                             |
|      NCORE specifies how many cores store one orbital (NPAR=cpu/NCORE).     |
|      This setting can  greatly improve the performance of VASP for DFT.     |
|      The default,   NCORE=1            might be grossly inefficient         |
|      on modern multi-core architectures or massively parallel machines.     |
|      Do your own testing !!!!                                               |
|      Unfortunately you need to use the default for GW and RPA calculations. |
|      (for HF NCORE is supported but not extensively tested yet)             |
|                                                                             |
 ----------------------------------------------------------------------------- 

 POTCAR:    PAW_PBE Li_sv 10Sep2004               
  local pseudopotential read in
  atomic valenz-charges read in
  non local Contribution for L=           0  read in
    real space projection operators read in
  non local Contribution for L=           0  read in
    real space projection operators read in
  non local Contribution for L=           1  read in
    real space projection operators read in
    PAW grid and wavefunctions read in
 
   number of l-projection  operators is LMAX  =           3
   number of lm-projection operators is LMMAX =           5
 
 POTCAR:    PAW_PBE Ni 02Aug2007                  
  local pseudopotential read in
  partial core-charges read in
  partial kinetic energy density read in
  atomic valenz-charges read in
  non local Contribution for L=           2  read in
    real space projection operators read in
  non local Contribution for L=           2  read in
    real space projection operators read in
  non local Contribution for L=           0  read in
    real space projection operators read in
  non local Contribution for L=           0  read in
    real space projection operators read in
  non local Contribution for L=           1  read in
    real space projection operators read in
  non local Contribution for L=           1  read in
    real space projection operators read in
    PAW grid and wavefunctions read in
 
   number of l-projection  operators is LMAX  =           6
   number of lm-projection operators is LMMAX =          18
 
 POTCAR:    PAW_PBE O 08Apr2002                   
  local pseudopotential read in
  partial core-charges read in
  partial kinetic energy density read in
  kinetic energy density of atom read in
  atomic valenz-charges read in
  non local Contribution for L=           0  read in
    real space projection operators read in
  non local Contribution for L=           0  read in
    real space projection operators read in
  non local Contribution for L=           1  read in
    real space projection operators read in
  non local Contribution for L=           1  read in
    real space projection operators read in
    PAW grid and wavefunctions read in
 
   number of l-projection  operators is LMAX  =           4
   number of lm-projection operators is LMMAX =           8
 
 Optimization of the real space projectors (new method)

 maximal supplied QI-value         = 22.11
 optimisation between [QCUT,QGAM] = [ 11.28, 22.77] = [ 35.61,145.23] Ry 
 Optimized for a Real-space Cutoff    1.10 Angstroem

   l    n(q)    QCUT    max X(q) W(low)/X(q) W(high)/X(q)  e(spline) 
   0      7    11.276    10.506    0.54E-04    0.58E-04    0.16E-07
   0      7    11.276     8.367    0.11E-03    0.14E-03    0.35E-07
   1      7    11.276     8.983    0.23E-03    0.43E-03    0.86E-07
 Optimization of the real space projectors (new method)

 maximal supplied QI-value         = 16.25
 optimisation between [QCUT,QGAM] = [ 11.38, 22.75] = [ 36.24,144.96] Ry 
 Optimized for a Real-space Cutoff    1.47 Angstroem

   l    n(q)    QCUT    max X(q) W(low)/X(q) W(high)/X(q)  e(spline) 
   2      9    11.376    60.317    0.17E-03    0.16E-04    0.16E-06
   2      9    11.376    55.921    0.17E-03    0.16E-04    0.17E-06
   0     10    11.376    51.690    0.45E-04    0.60E-04    0.21E-06
   0     10    11.376    30.015    0.37E-04    0.55E-04    0.19E-06
   1     10    11.376    18.849    0.83E-04    0.11E-03    0.92E-07
   1     10    11.376    14.624    0.69E-04    0.92E-04    0.82E-07
 Optimization of the real space projectors (new method)

 maximal supplied QI-value         = 24.76
 optimisation between [QCUT,QGAM] = [ 11.39, 22.77] = [ 36.31,145.25] Ry 
 Optimized for a Real-space Cutoff    1.10 Angstroem

   l    n(q)    QCUT    max X(q) W(low)/X(q) W(high)/X(q)  e(spline) 
   0      7    11.387    20.381    0.22E-03    0.48E-03    0.18E-06
   0      7    11.387    15.268    0.22E-03    0.52E-03    0.19E-06
   1      7    11.387     5.964    0.22E-03    0.73E-03    0.24E-06
   1      7    11.387     5.382    0.19E-03    0.60E-03    0.21E-06

 ----------------------------------------------------------------------------- 
|                                                                             |
|  ADVICE TO THIS USER RUNNING 'VASP/VAMP'   (HEAR YOUR MASTER'S VOICE ...):  |
|                                                                             |
|      You enforced a specific xc-type in the INCAR file,                     |
|      a different type was found on the POTCAR file                          |
|          I HOPE YOU KNOW, WHAT YOU ARE  DOING                               |
|                                                                             |
 ----------------------------------------------------------------------------- 

  PAW_PBE Li_sv 10Sep2004               :
 energy of atom  1       EATOM= -202.7858
 kinetic energy error for atom=    0.0143 (will be added to EATOM!!)
  PAW_PBE Ni 02Aug2007                  :
 energy of atom  2       EATOM=-1077.6739
 kinetic energy error for atom=    0.0030 (will be added to EATOM!!)
  PAW_PBE O 08Apr2002                   :
 energy of atom  3       EATOM= -432.3788
 kinetic energy error for atom=    0.0224 (will be added to EATOM!!)
 
 
 POSCAR: ce11_1                                  
  positions in direct lattice
  No initial velocities read in
 exchange correlation table for  LEXCH =       14
   RHO(1)=    0.500       N(1)  =     2000
   RHO(2)=  100.500       N(2)  =     4000
 


--------------------------------------------------------------------------------------------------------


 ion  position               nearest neighbor table
   1  0.000  0.500  0.115-  34 1.92  31 1.92  37 1.92  41 2.03
   2  0.667  0.833  0.456-  35 1.94  32 1.94  38 1.94  39 1.99
   3  0.333  0.167  0.790-  40 1.93  36 1.94  30 1.94  33 1.94
   4  0.667  0.833  0.213-  19 1.93  25 1.93  22 1.93  28 1.98
   5  0.333  0.167  0.546-  23 1.94  20 1.94  26 1.94  29 1.98
   6  0.332  0.666  0.668-  27 1.87  26 1.88  23 1.88  39 1.88  33 1.89  36 1.89  15 2.82  17 2.82
                             9 2.85  12 2.85  12 2.87   9 2.87
   7  0.999  0.999  0.999-  24 1.86  21 1.86  37 1.88  34 1.88  28 1.89  40 1.89  15 2.76  16 2.81
                            10 2.85  13 2.85  13 2.87  10 2.87
   8  0.667  0.333  0.333-  22 1.88  25 1.88  38 1.88  35 1.88  29 1.89  41 1.89  17 2.80  16 2.80
                            11 2.86  14 2.86  11 2.86  14 2.86
   9  0.834  0.666  0.668-  27 1.87  26 1.88  20 1.88  39 1.88  30 1.89  36 1.89  15 2.82  17 2.82
                             6 2.85  12 2.85  12 2.87   6 2.87
  10  0.501  0.999  0.999-  18 1.86  24 1.86  31 1.88  37 1.88  28 1.89  40 1.89  15 2.76  16 2.81
                             7 2.85  13 2.85  13 2.87   7 2.87
  11  0.167  0.333  0.333-  19 1.88  25 1.88  32 1.88  38 1.88  29 1.89  41 1.89  17 2.80  16 2.80
                             8 2.86  14 2.86   8 2.86  14 2.86
  12  0.834  0.168  0.668-  27 1.87  20 1.88  23 1.88  39 1.88  33 1.89  30 1.89  15 2.82  17 2.82
                             6 2.85   9 2.85   9 2.87   6 2.87
  13  0.501  0.501  0.999-  18 1.86  21 1.86  31 1.88  34 1.88  28 1.89  40 1.89  15 2.76  16 2.81
                             7 2.85  10 2.85  10 2.87   7 2.87
  14  0.167  0.833  0.333-  22 1.88  19 1.88  32 1.88  35 1.88  29 1.89  41 1.89  17 2.80  16 2.80
                             8 2.86  11 2.86   8 2.86  11 2.86
  15  0.667  0.833  0.836-  18 1.88  24 1.88  21 1.88  30 1.90  36 1.90  33 1.90  10 2.76   7 2.76
                            13 2.76   9 2.82  12 2.82   6 2.82
  16  0.333  0.167  0.166-  31 1.91  34 1.91  37 1.91  22 1.91  25 1.91  19 1.91  11 2.80  14 2.80
                             8 2.80  13 2.81   7 2.81  10 2.81
  17  0.000  0.500  0.499-  32 1.91  35 1.91  38 1.91  26 1.91  20 1.91  23 1.91   8 2.80  14 2.80
                            11 2.80  12 2.82   6 2.82   9 2.82
  18  0.375  0.687  0.924-  13 1.86  10 1.86  15 1.88
  19  0.038  0.019  0.257-  11 1.88  14 1.88  16 1.91   4 1.93
  20  0.705  0.353  0.590-  12 1.88   9 1.88  17 1.91   5 1.94
  21  0.813  0.687  0.924-   7 1.86  13 1.86  15 1.88
  22  0.481  0.019  0.257-   8 1.88  14 1.88  16 1.91   4 1.93
  23  0.147  0.353  0.590-   6 1.88  12 1.88  17 1.91   5 1.94
  24  0.813  0.125  0.924-   7 1.86  10 1.86  15 1.88
  25  0.481  0.462  0.257-  11 1.88   8 1.88  16 1.91   4 1.93
  26  0.147  0.795  0.590-   6 1.88   9 1.88  17 1.91   5 1.94
  27  0.000  0.500  0.733-   6 1.87  12 1.87   9 1.87
  28  0.667  0.833  0.068-  10 1.89   7 1.89  13 1.89   4 1.98
  29  0.333  0.167  0.401-  11 1.89   8 1.89  14 1.89   5 1.98
  30  0.960  0.980  0.746-   9 1.89  12 1.89  15 1.90   3 1.94
  31  0.627  0.314  0.075-  13 1.88  10 1.88  16 1.91   1 1.92
  32  0.296  0.648  0.409-  14 1.88  11 1.88  17 1.91   2 1.94
  33  0.520  0.980  0.746-   6 1.89  12 1.89  15 1.90   3 1.94
  34  0.186  0.314  0.075-  13 1.88   7 1.88  16 1.91   1 1.92
  35  0.852  0.648  0.409-   8 1.88  14 1.88  17 1.91   2 1.94
  36  0.520  0.540  0.746-   9 1.89   6 1.89  15 1.90   3 1.94
  37  0.186  0.873  0.075-   7 1.88  10 1.88  16 1.91   1 1.92
  38  0.852  0.204  0.409-   8 1.88  11 1.88  17 1.91   2 1.94
  39  0.667  0.833  0.602-   9 1.88   6 1.88  12 1.88   2 1.99
  40  0.333  0.167  0.932-   7 1.89  13 1.89  10 1.89   3 1.93
  41  0.000  0.500  0.265-   8 1.89  14 1.89  11 1.89   1 2.03
 
  LATTYP: Found a hexagonal cell.
 ALAT       =     5.7175404878
 C/A-ratio  =     2.3749238827
  
  Lattice vectors:
  
 A1 = (   0.0000000000,   4.0429116506,   4.0429116506)
 A2 = (   4.0429116506,  -4.0429116506,   0.0000000000)
 A3 = (   7.8396796418,   7.8396796418,  -7.8396796418)


Analysis of symmetry for initial positions (statically):
=====================================================================
 Subroutine PRICEL returns:
 Original cell was already a primitive cell.
 

 Routine SETGRP: Setting up the symmetry group for a 
 hexagonal supercell.


 Subroutine GETGRP returns: Found  6 space group operations
 (whereof  2 operations were pure point group operations)
 out of a pool of 24 trial point group operations.


The static configuration has the point symmetry C_1h.
 The point group associated with its full space group is C_3v.


Analysis of symmetry for dynamics (positions and initial velocities):
=====================================================================
 Subroutine PRICEL returns:
 Original cell was already a primitive cell.
 

 Routine SETGRP: Setting up the symmetry group for a 
 hexagonal supercell.


 Subroutine GETGRP returns: Found  6 space group operations
 (whereof  2 operations were pure point group operations)
 out of a pool of 24 trial point group operations.


The dynamic configuration has the point symmetry C_1h.
 The point group associated with its full space group is C_3v.


Analysis of structural, dynamic, and magnetic symmetry:
=====================================================================
 Subroutine PRICEL returns:
 Original cell was already a primitive cell.
 

 Routine SETGRP: Setting up the symmetry group for a 
 hexagonal supercell.


 Subroutine GETGRP returns: Found  6 space group operations
 (whereof  2 operations were pure point group operations)
 out of a pool of 24 trial point group operations.


The magnetic configuration has the point symmetry C_1h.
 The point group associated with its full space group is C_3v.


 Subroutine INISYM returns: Found  6 space group operations
 (whereof  2 operations are pure point group operations),
 and found     1 'primitive' translations

 
 
 KPOINTS: Automatic mesh                          

Automatic generation of k-mesh.
Space group operators:
 irot       det(A)        alpha          n_x          n_y          n_z        tau_x        tau_y        tau_z
    1     1.000000     0.000000     1.000000     0.000000     0.000000     0.000000     0.000000     0.000000
    2    -1.000000   180.000000     0.707107    -0.707107    -0.000000     0.000000     0.000000     0.000000
    3     1.000000   120.000000    -0.577350    -0.577350     0.577350     0.500000     0.000000     0.000000
    4     1.000000   120.000000     0.577350     0.577350    -0.577350     0.500000     0.500000     0.000000
    5    -1.000000   180.000000    -0.000000     0.707107     0.707107     0.500000     0.000000     0.000000
    6    -1.000000   180.000000     0.707107     0.000000     0.707107     0.500000     0.500000     0.000000
 
 Subroutine IBZKPT returns following result:
 ===========================================
 
 Found      1 irreducible k-points:
 
 Following reciprocal coordinates:
            Coordinates               Weight
  0.000000  0.000000  0.000000      1.000000
 
 Following cartesian coordinates:
            Coordinates               Weight
  0.000000  0.000000  0.000000      1.000000
 


--------------------------------------------------------------------------------------------------------




 Dimension of arrays:
   k-points           NKPTS =      1   k-points in BZ     NKDIM =      1   number of bands    NBANDS=    192
   number of dos      NEDOS =    301   number of ions     NIONS =     41
   non local maximal  LDIM  =      6   non local SUM 2l+1 LMDIM =     18
   total plane-waves  NPLWV = 176400
   max r-space proj   IRMAX =   6210   max aug-charges    IRDMAX=  15072
   dimension x,y,z NGX =    42 NGY =   42 NGZ =  100
   dimension x,y,z NGXF=    84 NGYF=   84 NGZF=  200
   support grid    NGXF=    84 NGYF=   84 NGZF=  200
   ions per type =               5  12  24
   NGX,Y,Z   is equivalent  to a cutoff of  12.21, 12.21, 12.24 a.u.
   NGXF,Y,Z  is equivalent  to a cutoff of  24.42, 24.42, 24.49 a.u.

 SYSTEM =  unknown system                          
 POSCAR =  ce11_1                                  

 Startparameter for this run:
   NWRITE =      1    write-flag & timer
   PREC   = accura    normal or accurate (medium, high low for compatibility)
   ISTART =      0    job   : 0-new  1-cont  2-samecut
   ICHARG =      2    charge: 1-file 2-atom 10-const
   ISPIN  =      2    spin polarized calculation?
   LNONCOLLINEAR =      F non collinear calculations
   LSORBIT =      F    spin-orbit coupling
   INIWAV =      1    electr: 0-lowe 1-rand  2-diag
   LASPH  =      F    aspherical Exc in radial PAW
   METAGGA=      F    non-selfconsistent MetaGGA calc.

 Electronic Relaxation 1
   ENCUT  =  500.0 eV  36.75 Ry    6.06 a.u.  10.42 10.42 24.76*2*pi/ulx,y,z
   ENINI  =  500.0     initial cutoff
   ENAUG  =  628.9 eV  augmentation charge cutoff
   NELM   =     80;   NELMIN=  2; NELMDL= -5     # of ELM steps 
   EDIFF  = 0.1E-04   stopping-criterion for ELM
   LREAL  =      T    real-space projection
   NLSPLINE    = F    spline interpolate recip. space projectors
   LCOMPAT=      F    compatible to vasp.4.4
   GGA_COMPAT  = T    GGA compatible to vasp.4.4-vasp.4.6
   LMAXPAW     = -100 max onsite density
   LMAXMIX     =    2 max onsite mixed and CHGCAR
   VOSKOWN=      1    Vosko Wilk Nusair interpolation
   ROPT   =   -0.00025  -0.00025  -0.00025
 Ionic relaxation
   EDIFFG = -.2E-01   stopping-criterion for IOM
   NSW    =     20    number of steps for IOM
   NBLOCK =      1;   KBLOCK =     20    inner block; outer block 
   IBRION =      1    ionic relax: 0-MD 1-quasi-New 2-CG
   NFREE  =      0    steps in history (QN), initial steepest desc. (CG)
   ISIF   =      3    stress and relaxation
   IWAVPR =     11    prediction:  0-non 1-charg 2-wave 3-comb
   ISYM   =      2    0-nonsym 1-usesym 2-fastsym
   LCORR  =      T    Harris-Foulkes like correction to forces

   POTIM  = 0.5000    time-step for ionic-motion
   TEIN   =    0.0    initial temperature
   TEBEG  =    0.0;   TEEND  =   0.0 temperature during run
   SMASS  =  -3.00    Nose mass-parameter (am)
   estimated Nose-frequenzy (Omega)   =  0.10E-29 period in steps =****** mass=  -0.747E-27a.u.
   SCALEE = 1.0000    scale energy and forces
   NPACO  =    256;   APACO  = 16.0  distance and # of slots for P.C.
   PSTRESS=    0.0 pullay stress

  Mass of Ions in am
   POMASS =   7.01 58.69 16.00
  Ionic Valenz
   ZVAL   =   3.00 10.00  6.00
  Atomic Wigner-Seitz radii
   RWIGS  =   1.23  1.15  0.73
  virtual crystal weights 
   VCA    =   1.00  1.00  1.00
   NELECT =     279.0000    total number of electrons
   NUPDOWN=      -1.0000    fix difference up-down

 DOS related values:
   EMIN   =  10.00;   EMAX   =-10.00  energy-range for DOS
   EFERMI =   0.00
   ISMEAR =     0;   SIGMA  =   0.05  broadening in eV -4-tet -1-fermi 0-gaus

 Electronic relaxation 2 (details)
   IALGO  =     38    algorithm
   LDIAG  =      T    sub-space diagonalisation (order eigenvalues)
   LSUBROT=      F    optimize rotation matrix (better conditioning)
   TURBO    =      0    0=normal 1=particle mesh
   IRESTART =      0    0=no restart 2=restart with 2 vectors
   NREBOOT  =      0    no. of reboots
   NMIN     =      0    reboot dimension
   EREF     =   0.00    reference energy to select bands
   IMIX   =      4    mixing-type and parameters
     AMIX     =   0.40;   BMIX     =  1.00
     AMIX_MAG =   1.60;   BMIX_MAG =  1.00
     AMIN     =   0.10
     WC   =   100.;   INIMIX=   1;  MIXPRE=   1;  MAXMIX= -45

 Intra band minimization:
   WEIMIN = 0.0010     energy-eigenvalue tresh-hold
   EBREAK =  0.13E-07  absolut break condition
   DEPER  =   0.30     relativ break condition  

   TIME   =   0.40     timestep for ELM

  volume/ion in A,a.u.               =       9.38        63.27
  Fermi-wavevector in a.u.,A,eV,Ry     =   1.471206  2.780177 29.449098  2.164448
  Thomas-Fermi vector in A             =   2.586370
 
 Write flags
   LWAVE        =      F    write WAVECAR
   LDOWNSAMPLE  =      F    k-point downsampling of WAVECAR
   LCHARG       =      T    write CHGCAR
   LVTOT        =      F    write LOCPOT, total local potential
   LVHAR        =      F    write LOCPOT, Hartree potential only
   LELF         =      F    write electronic localiz. function (ELF)
   LORBIT       =      0    0 simple, 1 ext, 2 COOP (PROOUT), +10 PAW based schemes


 Dipole corrections
   LMONO  =      F    monopole corrections only (constant potential shift)
   LDIPOL =      F    correct potential (dipole corrections)
   IDIPOL =      0    1-x, 2-y, 3-z, 4-all directions 
   EPSILON=  1.0000000 bulk dielectric constant

 Exchange correlation treatment:
   GGA     =    PS    GGA type
   LEXCH   =    14    internal setting for exchange type
   VOSKOWN=      1    Vosko Wilk Nusair interpolation
   LHFCALC =     F    Hartree Fock is set to
   LHFONE  =     F    Hartree Fock one center treatment
   AEXX    =    0.0000 exact exchange contribution

 Linear response parameters
   LEPSILON=     F    determine dielectric tensor
   LRPA    =     F    only Hartree local field effects (RPA)
   LNABLA  =     F    use nabla operator in PAW spheres
   LVEL    =     F    velocity operator in full k-point grid
   LINTERFAST=   F  fast interpolation
   KINTER  =     0    interpolate to denser k-point grid
   CSHIFT  =0.1000    complex shift for real part using Kramers Kronig
   OMEGAMAX=  -1.0    maximum frequency
   DEG_THRESHOLD= 0.2000000E-02 threshold for treating states as degnerate
   RTIME   =   -0.100 relaxation time in fs
  (WPLASMAI=    0.000 imaginary part of plasma frequency in eV, 0.658/RTIME)
   DFIELD  = 0.0000000 0.0000000 0.0000000 field for delta impulse in time
 
 Orbital magnetization related:
   ORBITALMAG=     F  switch on orbital magnetization
   LCHIMAG   =     F  perturbation theory with respect to B field
   DQ        =  0.001000  dq finite difference perturbation B field
   LLRAUG    =     F  two centre corrections for induced B field



--------------------------------------------------------------------------------------------------------


 quasi-Newton-method for relaxation of ions
 charge density and potential will be updated during run
 spin polarized calculation
 Variant of blocked Davidson
 Davidson routine will perform the subspace rotation
 perform sub-space diagonalisation
    after iterative eigenvector-optimisation
 modified Broyden-mixing scheme, WC =      100.0
 initial mixing is a Kerker type mixing with AMIX =  0.4000 and BMIX =      1.0000
 Hartree-type preconditioning will be used
 using additional bands           52
 real space projection scheme for non local part
 use partial core corrections
 calculate Harris-corrections to forces 
   (improved forces if not selfconsistent)
 use gradient corrections 
 use of overlap-Matrix (Vanderbilt PP)
 Gauss-broadening in eV      SIGMA  =   0.05


--------------------------------------------------------------------------------------------------------


  energy-cutoff  :      500.00
  volume of cell :      384.42
      direct lattice vectors                 reciprocal lattice vectors
     0.000000000  4.042911651  4.042911651     0.082448829  0.082448829  0.164897659
     4.042911651 -4.042911651  0.000000000     0.164897659 -0.082448829  0.082448829
     7.839679642  7.839679642 -7.839679642     0.042518744  0.042518744 -0.042518744

  length of vectors
     5.717540488  5.717540488 13.578723455     0.201957562  0.201957562  0.073644625


 
 k-points in units of 2pi/SCALE and weight: Automatic mesh                          
   0.00000000  0.00000000  0.00000000       1.000
 
 k-points in reciprocal lattice and weights: Automatic mesh                          
   0.00000000  0.00000000  0.00000000       1.000
 
 position of ions in fractional coordinates (direct lattice) 
   0.00000000  0.50000000  0.11510159
   0.66666667  0.83333333  0.45567956
   0.33333333  0.16666667  0.79011437
   0.66666667  0.83333333  0.21337219
   0.33333333  0.16666667  0.54630451
   0.33227470  0.66613736  0.66811761
   0.99885031  0.99942515  0.99922801
   0.66681922  0.33340961  0.33272808
   0.83386264  0.66613736  0.66811761
   0.50057485  0.99942515  0.99922801
   0.16659039  0.33340961  0.33272808
   0.83386264  0.16772530  0.66811761
   0.50057485  0.50114969  0.99922801
   0.16659039  0.83318078  0.33272808
   0.66666667  0.83333333  0.83590104
   0.33333333  0.16666667  0.16599699
   0.00000000  0.50000000  0.49931928
   0.37489243  0.68744621  0.92394535
   0.03847627  0.01923814  0.25657579
   0.70509349  0.35254674  0.59046435
   0.81255379  0.68744621  0.92394535
   0.48076186  0.01923814  0.25657579
   0.14745326  0.35254674  0.59046435
   0.81255379  0.12510757  0.92394535
   0.48076186  0.46152373  0.25657579
   0.14745326  0.79490651  0.59046435
   0.00000000  0.50000000  0.73301224
   0.66666667  0.83333333  0.06758573
   0.33333333  0.16666667  0.40055424
   0.95994418  0.97997209  0.74600998
   0.62705411  0.31352706  0.07528881
   0.29601176  0.64800588  0.40874752
   0.52002791  0.97997209  0.74600998
   0.18647294  0.31352706  0.07528881
   0.85199412  0.64800588  0.40874752
   0.52002791  0.54005582  0.74600998
   0.18647294  0.87294589  0.07528881
   0.85199412  0.20398824  0.40874752
   0.66666667  0.83333333  0.60189924
   0.33333333  0.16666667  0.93213980
   0.00000000  0.50000000  0.26470268
 
 position of ions in cartesian coordinates  (Angst):
   2.92381542 -1.11909623 -0.90235959
   6.94147480  2.89856319 -0.87710732
   6.86806216  6.86806212 -4.84660634
   5.04186264  0.99895103  1.02250483
   4.95667097  4.95667093 -2.93521514
   7.93096252  3.88805079 -3.89447077
  11.87421507  7.83130346 -3.79536393
   3.95642715  3.95642715  0.08740964
   7.93096252  5.91592651 -1.86659504
  11.87421507  5.81681980 -5.80984759
   3.95642715  1.93404619 -1.93497133
   5.91592659  7.93096244 -1.86659504
   9.85973141  7.83130346 -5.80984759
   5.97695784 -0.08648450 -1.93497133
   9.92228939  5.87937778 -3.85792192
   1.97518185  1.97518180  0.04627398
   5.93595902  1.89304737 -3.91450319
  10.02271984  5.97980823 -5.72777858
   2.08925010  2.08925006 -1.85591584
   6.05436667  6.05436671 -1.77842066
  10.02271984  7.74923444 -3.95835237
   2.08925010  3.87737162 -0.06779427
   6.05436667  3.79987652 -4.03291084
   7.74923440 10.02271988 -3.95835237
   3.87737166  2.08925006 -0.06779427
   7.84278813  2.01145506 -4.03291084
   7.76803696  3.72512531 -5.74658114
   3.89894350 -0.14396811  2.16542398
   3.81403554  3.81403550 -1.79257972
   9.81041983  5.76750818 -1.96750974
   1.85780235  1.85780231  1.94488422
   5.82428013  1.78136848 -2.00770022
   9.81041983  3.98896557 -3.74605236
   1.85780235  0.07657157  0.16365347
   5.82428013  4.02915604  0.24008734
   8.03187722  5.76750818 -3.74605236
   4.11948326 -2.18510934  0.16365347
   4.02915604  5.82428013  0.24008734
   8.08779025  4.04487864 -2.02342277
   7.98149604  7.98149599 -5.96004021
   4.09664004  0.05372839 -2.07518421
 


--------------------------------------------------------------------------------------------------------


 use serial FFT for orbitals x direction half grid
 k-point  1 :   0.0000 0.0000 0.0000  plane waves:    4885

 maximum and minimum number of plane-waves per node :      4885     4885

 maximum number of plane-waves:      4885
 maximum index in each direction: 
   IXMAX=   10   IYMAX=    9   IZMAX=   24
   IXMIN=    0   IYMIN=  -10   IZMIN=  -24

 The following grids will avoid any aliasing or wrap around errors in the Hartre
 e energy
  - symmetry arguments have not been applied
  - exchange correlation energies might require even more grid points
  - we recommend to set PREC=Normal or Accurate and rely on VASP defaults
 NGX is ok and might be reduce to    42
 NGY is ok and might be reduce to    40
 NGZ is ok and might be reduce to    98

 serial   3D FFT for wavefunctions
 parallel 3D FFT for charge:
    minimum data exchange during FFTs selected (reduces bandwidth)


 total amount of memory used by VASP MPI-rank0    75837. kBytes
=======================================================================

   base      :      30000. kBytes
   nonlr-proj:      16098. kBytes
   fftplans  :       4025. kBytes
   grid      :      23111. kBytes
   one-center:        637. kBytes
   wavefun   :       1966. kBytes
 
     INWAV:  cpu time    0.0000: real time    0.0000
 Broyden mixing: mesh for mixing (old mesh)
   NGX = 21   NGY = 21   NGZ = 49
  (NGX  = 84   NGY  = 84   NGZ  =200)
  gives a total of  21609 points

 initial charge density was supplied:
 charge density of overlapping atoms calculated
 number of electron     279.0000000 magnetization      30.0000000
 keeping initial charge density in first step


--------------------------------------------------------------------------------------------------------


 Maximum index for non-local projection operator         6004
 Maximum index for augmentation-charges         1310 (set IRDMAX)


--------------------------------------------------------------------------------------------------------


 First call to EWALD:  gamma=   0.244
 Maximum number of real-space cells 4x 4x 2
 Maximum number of reciprocal cells 2x 2x 5

    FEWALD:  cpu time    0.0049: real time    0.0049


--------------------------------------- Iteration      1(   1)  ---------------------------------------


    POTLOK:  cpu time    0.1090: real time    0.1108
    SETDIJ:  cpu time    0.0135: real time    0.0135
     EDDAV:  cpu time    0.8209: real time    0.8451
    --------------------------------------------
      LOOP:  cpu time    0.9437: real time    0.9697

 eigenvalue-minimisations  :   768
 total energy-change (2. order) : 0.4688755E+04  (-0.1282336E+05)
 number of electron     279.0000000 magnetization      30.0000000
 augmentation part      279.0000000 magnetization      30.0000000

 Free energy of the ion-electron system (eV)
  ---------------------------------------------------
  alpha Z        PSCENC =       875.40133925
  Ewald energy   TEWEN  =    -16675.79721344
  -Hartree energ DENC   =     -8224.90447518
  -exchange      EXHF   =         0.00000000
  -V(xc)+E(xc)   XCENC  =      1133.69842395
  PAW double counting   =     20246.64525745   -21159.53130155
  entropy T*S    EENTRO =        -0.00000000
  eigenvalues    EBANDS =      4227.90249643
  atomic energy  EATOM  =     24265.34096803
  Solvation  Ediel_sol  =         0.00000000
  ---------------------------------------------------
  free energy    TOTEN  =      4688.75549494 eV

  energy without entropy =     4688.75549494  energy(sigma->0) =     4688.75549494


--------------------------------------------------------------------------------------------------------




--------------------------------------- Iteration      1(   2)  ---------------------------------------


     EDDAV:  cpu time    0.8533: real time    0.8554
    --------------------------------------------
      LOOP:  cpu time    0.8533: real time    0.8553

 eigenvalue-minimisations  :   816
 total energy-change (2. order) :-0.3887993E+04  (-0.3445436E+04)
 number of electron     279.0000000 magnetization      30.0000000
 augmentation part      279.0000000 magnetization      30.0000000

 Free energy of the ion-electron system (eV)
  ---------------------------------------------------
  alpha Z        PSCENC =       875.40133925
  Ewald energy   TEWEN  =    -16675.79721344
  -Hartree energ DENC   =     -8224.90447518
  -exchange      EXHF   =         0.00000000
  -V(xc)+E(xc)   XCENC  =      1133.69842395
  PAW double counting   =     20246.64525745   -21159.53130155
  entropy T*S    EENTRO =        -0.00896485
  eigenvalues    EBANDS =       339.91875371
  atomic energy  EATOM  =     24265.34096803
  Solvation  Ediel_sol  =         0.00000000
  ---------------------------------------------------
  free energy    TOTEN  =       800.76278737 eV

  energy without entropy =      800.77175222  energy(sigma->0) =      800.76726980


--------------------------------------------------------------------------------------------------------




--------------------------------------- Iteration      1(   3)  ---------------------------------------


     EDDAV:  cpu time    0.8887: real time    0.8908
    --------------------------------------------
      LOOP:  cpu time    0.8887: real time    0.8908

 eigenvalue-minimisations  :   864
 total energy-change (2. order) :-0.9966273E+03  (-0.8323589E+03)
 number of electron     279.0000000 magnetization      30.0000000
 augmentation part      279.0000000 magnetization      30.0000000

 Free energy of the ion-electron system (eV)
  ---------------------------------------------------
  alpha Z        PSCENC =       875.40133925
  Ewald energy   TEWEN  =    -16675.79721344
  -Hartree energ DENC   =     -8224.90447518
  -exchange      EXHF   =         0.00000000
  -V(xc)+E(xc)   XCENC  =      1133.69842395
  PAW double counting   =     20246.64525745   -21159.53130155
  entropy T*S    EENTRO =        -0.08958275
  eigenvalues    EBANDS =      -656.62787888
  atomic energy  EATOM  =     24265.34096803
  Solvation  Ediel_sol  =         0.00000000
  ---------------------------------------------------
  free energy    TOTEN  =      -195.86446312 eV

  energy without entropy =     -195.77488037  energy(sigma->0) =     -195.81967174


--------------------------------------------------------------------------------------------------------




--------------------------------------- Iteration      1(   4)  ---------------------------------------


     EDDAV:  cpu time    0.9708: real time    0.9731
    --------------------------------------------
      LOOP:  cpu time    0.9708: real time    0.9731

 eigenvalue-minimisations  :   960
 total energy-change (2. order) :-0.1359727E+03  (-0.1319554E+03)
 number of electron     279.0000000 magnetization      30.0000000
 augmentation part      279.0000000 magnetization      30.0000000

 Free energy of the ion-electron system (eV)
  ---------------------------------------------------
  alpha Z        PSCENC =       875.40133925
  Ewald energy   TEWEN  =    -16675.79721344
  -Hartree energ DENC   =     -8224.90447518
  -exchange      EXHF   =         0.00000000
  -V(xc)+E(xc)   XCENC  =      1133.69842395
  PAW double counting   =     20246.64525745   -21159.53130155
  entropy T*S    EENTRO =        -0.11801264
  eigenvalues    EBANDS =      -792.57218953
  atomic energy  EATOM  =     24265.34096803
  Solvation  Ediel_sol  =         0.00000000
  ---------------------------------------------------
  free energy    TOTEN  =      -331.83720366 eV

  energy without entropy =     -331.71919102  energy(sigma->0) =     -331.77819734


--------------------------------------------------------------------------------------------------------




--------------------------------------- Iteration      1(   5)  ---------------------------------------


     EDDAV:  cpu time    1.1965: real time    1.1993
    CHARGE:  cpu time    0.0798: real time    0.0800
    MIXING:  cpu time    0.0021: real time    0.0021
    --------------------------------------------
      LOOP:  cpu time    1.2781: real time    1.2811

 eigenvalue-minimisations  :  1248
 total energy-change (2. order) :-0.6013753E+01  (-0.5969172E+01)
 number of electron     278.9999880 magnetization      29.8445507
 augmentation part       82.5665374 magnetization      23.1758368

 Broyden mixing:
  rms(total) = 0.10148E+02    rms(broyden)= 0.10146E+02
  rms(prec ) = 0.11367E+02
  weight for this iteration     100.00

 Free energy of the ion-electron system (eV)
  ---------------------------------------------------
  alpha Z        PSCENC =       875.40133925
  Ewald energy   TEWEN  =    -16675.79721344
  -Hartree energ DENC   =     -8224.90447518
  -exchange      EXHF   =         0.00000000
  -V(xc)+E(xc)   XCENC  =      1133.69842395
  PAW double counting   =     20246.64525745   -21159.53130155
  entropy T*S    EENTRO =        -0.11746695
  eigenvalues    EBANDS =      -798.58648775
  atomic energy  EATOM  =     24265.34096803
  Solvation  Ediel_sol  =         0.00000000
  ---------------------------------------------------
  free energy    TOTEN  =      -337.85095619 eV

  energy without entropy =     -337.73348924  energy(sigma->0) =     -337.79222271


--------------------------------------------------------------------------------------------------------




--------------------------------------- Iteration      1(   6)  ---------------------------------------


    POTLOK:  cpu time    0.0892: real time    0.0894
    SETDIJ:  cpu time    0.0138: real time    0.0138
     EDDAV:  cpu time    1.3406: real time    1.3438
    CHARGE:  cpu time    0.1008: real time    0.1011
    MIXING:  cpu time    0.0029: real time    0.0029
    --------------------------------------------
      LOOP:  cpu time    1.5473: real time    1.5510

 eigenvalue-minimisations  :  1136
 total energy-change (2. order) :-0.5779188E+02  (-0.1011129E+03)
 number of electron     278.9999858 magnetization      28.0987873
 augmentation part      106.2163977 magnetization      28.2404806

 Broyden mixing:
  rms(total) = 0.19391E+02    rms(broyden)= 0.19390E+02
  rms(prec ) = 0.21614E+02
  weight for this iteration     100.00

 eigenvalues of (default mixing * dielectric matrix)
  average eigenvalue GAMMA=   0.1884
  0.1884

 Free energy of the ion-electron system (eV)
  ---------------------------------------------------
  alpha Z        PSCENC =       875.40133925
  Ewald energy   TEWEN  =    -16675.79721344
  -Hartree energ DENC   =     -7852.56613580
  -exchange      EXHF   =         0.00000000
  -V(xc)+E(xc)   XCENC  =      1139.70643678
  PAW double counting   =     22381.08815199   -23162.58344466
  entropy T*S    EENTRO =        -0.01316708
  eigenvalues    EBANDS =     -1366.21977190
  atomic energy  EATOM  =     24265.34096803
  Solvation  Ediel_sol  =         0.00000000
  ---------------------------------------------------
  free energy    TOTEN  =      -395.64283683 eV

  energy without entropy =     -395.62966975  energy(sigma->0) =     -395.63625329


--------------------------------------------------------------------------------------------------------




--------------------------------------- Iteration      1(   7)  ---------------------------------------


    POTLOK:  cpu time    0.1046: real time    0.1048
    SETDIJ:  cpu time    0.0157: real time    0.0157
     EDDAV:  cpu time    1.2118: real time    1.2147
    CHARGE:  cpu time    0.0773: real time    0.0774
    MIXING:  cpu time    0.0022: real time    0.0022
    --------------------------------------------
      LOOP:  cpu time    1.4115: real time    1.4149

 eigenvalue-minimisations  :  1056
 total energy-change (2. order) : 0.8795258E+02  (-0.4237007E+02)
 number of electron     278.9999867 magnetization      26.5215748
 augmentation part      102.4175016 magnetization      21.8511575

 Broyden mixing:
  rms(total) = 0.98800E+01    rms(broyden)= 0.98788E+01
  rms(prec ) = 0.11441E+02
  weight for this iteration     100.00

 eigenvalues of (default mixing * dielectric matrix)
  average eigenvalue GAMMA=   0.3489
  0.3489  0.3489

 Free energy of the ion-electron system (eV)
  ---------------------------------------------------
  alpha Z        PSCENC =       875.40133925
  Ewald energy   TEWEN  =    -16675.79721344
  -Hartree energ DENC   =     -7954.60196487
  -exchange      EXHF   =         0.00000000
  -V(xc)+E(xc)   XCENC  =      1135.30477645
  PAW double counting   =     23083.17910347   -23928.02596040
  entropy T*S    EENTRO =        -0.04423643
  eigenvalues    EBANDS =     -1108.44706891
  atomic energy  EATOM  =     24265.34096803
  Solvation  Ediel_sol  =         0.00000000
  ---------------------------------------------------
  free energy    TOTEN  =      -307.69025686 eV

  energy without entropy =     -307.64602043  energy(sigma->0) =     -307.66813864


--------------------------------------------------------------------------------------------------------




--------------------------------------- Iteration      1(   8)  ---------------------------------------


    POTLOK:  cpu time    0.0889: real time    0.0891
    SETDIJ:  cpu time    0.0136: real time    0.0136
     EDDAV:  cpu time    1.3060: real time    1.3091
    CHARGE:  cpu time    0.0774: real time    0.0776
    MIXING:  cpu time    0.0023: real time    0.0023
    --------------------------------------------
      LOOP:  cpu time    1.4881: real time    1.4916

 eigenvalue-minimisations  :  1184
 total energy-change (2. order) :-0.6038874E+01  (-0.1873424E+02)
 number of electron     278.9999882 magnetization      24.7566562
 augmentation part       91.8138983 magnetization      22.2408322

 Broyden mixing:
  rms(total) = 0.10381E+02    rms(broyden)= 0.10380E+02
  rms(prec ) = 0.14541E+02
  weight for this iteration     100.00

 eigenvalues of (default mixing * dielectric matrix)
  average eigenvalue GAMMA=   0.4217
  0.5471  0.5471  0.1710

 Free energy of the ion-electron system (eV)
  ---------------------------------------------------
  alpha Z        PSCENC =       875.40133925
  Ewald energy   TEWEN  =    -16675.79721344
  -Hartree energ DENC   =     -8063.38630983
  -exchange      EXHF   =         0.00000000
  -V(xc)+E(xc)   XCENC  =      1132.48984968
  PAW double counting   =     23853.98268563   -24767.52857422
  entropy T*S    EENTRO =        -0.04453136
  eigenvalues    EBANDS =      -934.18734440
  atomic energy  EATOM  =     24265.34096803
  Solvation  Ediel_sol  =         0.00000000
  ---------------------------------------------------
  free energy    TOTEN  =      -313.72913067 eV

  energy without entropy =     -313.68459931  energy(sigma->0) =     -313.70686499


--------------------------------------------------------------------------------------------------------




--------------------------------------- Iteration      1(   9)  ---------------------------------------


    POTLOK:  cpu time    0.0885: real time    0.0888
    SETDIJ:  cpu time    0.0138: real time    0.0138
     EDDAV:  cpu time    0.9896: real time    0.9919
    CHARGE:  cpu time    0.0769: real time    0.0771
    MIXING:  cpu time    0.0025: real time    0.0025
    --------------------------------------------
      LOOP:  cpu time    1.1713: real time    1.1741

 eigenvalue-minimisations  :   992
 total energy-change (2. order) :-0.5787025E+01  (-0.3639425E+02)
 number of electron     278.9999868 magnetization      22.3002240
 augmentation part       88.9653529 magnetization      18.7802322

 Broyden mixing:
  rms(total) = 0.11940E+02    rms(broyden)= 0.11939E+02
  rms(prec ) = 0.13887E+02
  weight for this iteration     100.00

 eigenvalues of (default mixing * dielectric matrix)
  average eigenvalue GAMMA=   0.3907
  0.6049  0.6049  0.2245  0.1284

 Free energy of the ion-electron system (eV)
  ---------------------------------------------------
  alpha Z        PSCENC =       875.40133925
  Ewald energy   TEWEN  =    -16675.79721344
  -Hartree energ DENC   =     -8035.79528703
  -exchange      EXHF   =         0.00000000
  -V(xc)+E(xc)   XCENC  =      1131.89814579
  PAW double counting   =     24488.66010418   -25412.92731331
  entropy T*S    EENTRO =        -0.00266208
  eigenvalues    EBANDS =      -956.29423732
  atomic energy  EATOM  =     24265.34096803
  Solvation  Ediel_sol  =         0.00000000
  ---------------------------------------------------
  free energy    TOTEN  =      -319.51615593 eV

  energy without entropy =     -319.51349385  energy(sigma->0) =     -319.51482489


--------------------------------------------------------------------------------------------------------




--------------------------------------- Iteration      1(  10)  ---------------------------------------


    POTLOK:  cpu time    0.0886: real time    0.0889
    SETDIJ:  cpu time    0.0137: real time    0.0137
     EDDAV:  cpu time    1.0278: real time    1.0302
    CHARGE:  cpu time    0.0773: real time    0.0775
    MIXING:  cpu time    0.0024: real time    0.0024
    --------------------------------------------
      LOOP:  cpu time    1.2098: real time    1.2126

 eigenvalue-minimisations  :  1040
 total energy-change (2. order) : 0.3113183E+02  (-0.7693855E+01)
 number of electron     278.9999865 magnetization      20.6786836
 augmentation part       92.0371741 magnetization      18.1868943

 Broyden mixing:
  rms(total) = 0.67769E+01    rms(broyden)= 0.67763E+01
  rms(prec ) = 0.76923E+01
  weight for this iteration     100.00

 eigenvalues of (default mixing * dielectric matrix)
  average eigenvalue GAMMA=   0.4400
  0.7500  0.7500  0.2765  0.2765  0.1468

 Free energy of the ion-electron system (eV)
  ---------------------------------------------------
  alpha Z        PSCENC =       875.40133925
  Ewald energy   TEWEN  =    -16675.79721344
  -Hartree energ DENC   =     -7999.29315728
  -exchange      EXHF   =         0.00000000
  -V(xc)+E(xc)   XCENC  =      1129.38266296
  PAW double counting   =     25333.33760566   -26272.96894643
  entropy T*S    EENTRO =        -0.04761556
  eigenvalues    EBANDS =      -943.73996461
  atomic energy  EATOM  =     24265.34096803
  Solvation  Ediel_sol  =         0.00000000
  ---------------------------------------------------
  free energy    TOTEN  =      -288.38432141 eV

  energy without entropy =     -288.33670585  energy(sigma->0) =     -288.36051363


--------------------------------------------------------------------------------------------------------




--------------------------------------- Iteration      1(  11)  ---------------------------------------


    POTLOK:  cpu time    0.0886: real time    0.0888
    SETDIJ:  cpu time    0.0136: real time    0.0136
     EDDAV:  cpu time    1.0446: real time    1.0471
    CHARGE:  cpu time    0.0977: real time    0.0979
    MIXING:  cpu time    0.0033: real time    0.0033
    --------------------------------------------
      LOOP:  cpu time    1.2477: real time    1.2506

 eigenvalue-minimisations  :   976
 total energy-change (2. order) :-0.4328995E+00  (-0.1033546E+02)
 number of electron     278.9999863 magnetization      19.1355363
 augmentation part       91.4701403 magnetization      15.6418727

 Broyden mixing:
  rms(total) = 0.80981E+01    rms(broyden)= 0.80977E+01
  rms(prec ) = 0.10039E+02
  weight for this iteration     100.00

 eigenvalues of (default mixing * dielectric matrix)
  average eigenvalue GAMMA=   0.4279
  0.7942  0.7942  0.3099  0.3099  0.2210  0.1380

 Free energy of the ion-electron system (eV)
  ---------------------------------------------------
  alpha Z        PSCENC =       875.40133925
  Ewald energy   TEWEN  =    -16675.79721344
  -Hartree energ DENC   =     -8009.10928752
  -exchange      EXHF   =         0.00000000
  -V(xc)+E(xc)   XCENC  =      1129.25065792
  PAW double counting   =     25470.12816863   -26415.04815316
  entropy T*S    EENTRO =        -0.03054217
  eigenvalues    EBANDS =      -928.95315847
  atomic energy  EATOM  =     24265.34096803
  Solvation  Ediel_sol  =         0.00000000
  ---------------------------------------------------
  free energy    TOTEN  =      -288.81722093 eV

  energy without entropy =     -288.78667877  energy(sigma->0) =     -288.80194985


--------------------------------------------------------------------------------------------------------




--------------------------------------- Iteration      1(  12)  ---------------------------------------


    POTLOK:  cpu time    0.1056: real time    0.1058
    SETDIJ:  cpu time    0.0158: real time    0.0158
     EDDAV:  cpu time    1.2758: real time    1.2788
    CHARGE:  cpu time    0.1000: real time    0.1002
    MIXING:  cpu time    0.0035: real time    0.0035
    --------------------------------------------
      LOOP:  cpu time    1.5005: real time    1.5041

 eigenvalue-minimisations  :  1072
 total energy-change (2. order) : 0.2886404E+02  (-0.3389568E+01)
 number of electron     278.9999869 magnetization      17.6300868
 augmentation part       91.8332652 magnetization      14.4276902

 Broyden mixing:
  rms(total) = 0.50451E+01    rms(broyden)= 0.50445E+01
  rms(prec ) = 0.59661E+01
  weight for this iteration     100.00

 eigenvalues of (default mixing * dielectric matrix)
  average eigenvalue GAMMA=   0.4382
  1.0162  0.6543  0.3911  0.3911  0.3282  0.1357  0.1505

 Free energy of the ion-electron system (eV)
  ---------------------------------------------------
  alpha Z        PSCENC =       875.40133925
  Ewald energy   TEWEN  =    -16675.79721344
  -Hartree energ DENC   =     -8012.96802875
  -exchange      EXHF   =         0.00000000
  -V(xc)+E(xc)   XCENC  =      1129.90559322
  PAW double counting   =     25717.04317331   -26667.46287639
  entropy T*S    EENTRO =        -0.06688069
  eigenvalues    EBANDS =      -891.34925908
  atomic energy  EATOM  =     24265.34096803
  Solvation  Ediel_sol  =         0.00000000
  ---------------------------------------------------
  free energy    TOTEN  =      -259.95318453 eV

  energy without entropy =     -259.88630384  energy(sigma->0) =     -259.91974419


--------------------------------------------------------------------------------------------------------




--------------------------------------- Iteration      1(  13)  ---------------------------------------


    POTLOK:  cpu time    0.1044: real time    0.1046
    SETDIJ:  cpu time    0.0156: real time    0.0157
     EDDAV:  cpu time    1.1515: real time    1.1543
    CHARGE:  cpu time    0.0876: real time    0.0878
    MIXING:  cpu time    0.0030: real time    0.0030
    --------------------------------------------
      LOOP:  cpu time    1.3621: real time    1.3653

 eigenvalue-minimisations  :   960
 total energy-change (2. order) : 0.8337818E+01  (-0.4635114E+01)
 number of electron     278.9999867 magnetization      15.9657694
 augmentation part       91.9407895 magnetization      13.4139619

 Broyden mixing:
  rms(total) = 0.27874E+01    rms(broyden)= 0.27866E+01
  rms(prec ) = 0.33009E+01
  weight for this iteration     100.00

 eigenvalues of (default mixing * dielectric matrix)
  average eigenvalue GAMMA=   0.4429
  0.9227  0.9227  0.4080  0.4080  0.2980  0.2980  0.1534  0.1321

 Free energy of the ion-electron system (eV)
  ---------------------------------------------------
  alpha Z        PSCENC =       875.40133925
  Ewald energy   TEWEN  =    -16675.79721344
  -Hartree energ DENC   =     -8017.23853447
  -exchange      EXHF   =         0.00000000
  -V(xc)+E(xc)   XCENC  =      1129.81204152
  PAW double counting   =     25955.77535710   -26910.62292755
  entropy T*S    EENTRO =        -0.00227486
  eigenvalues    EBANDS =      -874.28412233
  atomic energy  EATOM  =     24265.34096803
  Solvation  Ediel_sol  =         0.00000000
  ---------------------------------------------------
  free energy    TOTEN  =      -251.61536675 eV

  energy without entropy =     -251.61309188  energy(sigma->0) =     -251.61422932


--------------------------------------------------------------------------------------------------------




--------------------------------------- Iteration      1(  14)  ---------------------------------------


    POTLOK:  cpu time    0.0936: real time    0.0938
    SETDIJ:  cpu time    0.0164: real time    0.0165
     EDDAV:  cpu time    1.0312: real time    1.0337
    CHARGE:  cpu time    0.0775: real time    0.0777
    MIXING:  cpu time    0.0030: real time    0.0030
    --------------------------------------------
      LOOP:  cpu time    1.2218: real time    1.2246

 eigenvalue-minimisations  :   992
 total energy-change (2. order) : 0.3068457E+01  (-0.1213750E+01)
 number of electron     278.9999867 magnetization      15.6051011
 augmentation part       92.0002347 magnetization      13.8145786

 Broyden mixing:
  rms(total) = 0.22308E+01    rms(broyden)= 0.22304E+01
  rms(prec ) = 0.24129E+01
  weight for this iteration     100.00

 eigenvalues of (default mixing * dielectric matrix)
  average eigenvalue GAMMA=   0.4345
  1.0035  1.0035  0.4301  0.4301  0.2889  0.2889  0.1355  0.1651  0.1651

 Free energy of the ion-electron system (eV)
  ---------------------------------------------------
  alpha Z        PSCENC =       875.40133925
  Ewald energy   TEWEN  =    -16675.79721344
  -Hartree energ DENC   =     -8024.88117260
  -exchange      EXHF   =         0.00000000
  -V(xc)+E(xc)   XCENC  =      1129.29045204
  PAW double counting   =     26096.57079472   -27051.74207041
  entropy T*S    EENTRO =        -0.05573491
  eigenvalues    EBANDS =      -862.67427285
  atomic energy  EATOM  =     24265.34096803
  Solvation  Ediel_sol  =         0.00000000
  ---------------------------------------------------
  free energy    TOTEN  =      -248.54691018 eV

  energy without entropy =     -248.49117527  energy(sigma->0) =     -248.51904273


--------------------------------------------------------------------------------------------------------




--------------------------------------- Iteration      1(  15)  ---------------------------------------


    POTLOK:  cpu time    0.0885: real time    0.0887
    SETDIJ:  cpu time    0.0135: real time    0.0136
     EDDAV:  cpu time    1.1852: real time    1.1881
    CHARGE:  cpu time    0.0952: real time    0.0954
    MIXING:  cpu time    0.0038: real time    0.0038
    --------------------------------------------
      LOOP:  cpu time    1.3862: real time    1.3895

 eigenvalue-minimisations  :  1104
 total energy-change (2. order) :-0.2926571E+00  (-0.3228618E+00)
 number of electron     278.9999867 magnetization      15.2428941
 augmentation part       91.9493353 magnetization      13.0292468

 Broyden mixing:
  rms(total) = 0.19707E+01    rms(broyden)= 0.19703E+01
  rms(prec ) = 0.21435E+01
  weight for this iteration     100.00

 eigenvalues of (default mixing * dielectric matrix)
  average eigenvalue GAMMA=   0.4000
  0.9912  0.9912  0.4446  0.4446  0.2770  0.2770  0.1748  0.1748  0.1377  0.0871

 Free energy of the ion-electron system (eV)
  ---------------------------------------------------
  alpha Z        PSCENC =       875.40133925
  Ewald energy   TEWEN  =    -16675.79721344
  -Hartree energ DENC   =     -8026.86682397
  -exchange      EXHF   =         0.00000000
  -V(xc)+E(xc)   XCENC  =      1129.02736179
  PAW double counting   =     26107.18533960   -27062.01581608
  entropy T*S    EENTRO =        -0.04322266
  eigenvalues    EBANDS =      -861.07149985
  atomic energy  EATOM  =     24265.34096803
  Solvation  Ediel_sol  =         0.00000000
  ---------------------------------------------------
  free energy    TOTEN  =      -248.83956733 eV

  energy without entropy =     -248.79634467  energy(sigma->0) =     -248.81795600


--------------------------------------------------------------------------------------------------------




--------------------------------------- Iteration      1(  16)  ---------------------------------------


    POTLOK:  cpu time    0.1024: real time    0.1026
    SETDIJ:  cpu time    0.0158: real time    0.0159
     EDDAV:  cpu time    1.1751: real time    1.1779
    CHARGE:  cpu time    0.0774: real time    0.0775
    MIXING:  cpu time    0.0033: real time    0.0033
    --------------------------------------------
      LOOP:  cpu time    1.3740: real time    1.3772

 eigenvalue-minimisations  :   928
 total energy-change (2. order) :-0.9677252E+00  (-0.2464903E+00)
 number of electron     278.9999867 magnetization      14.8180485
 augmentation part       92.0528898 magnetization      13.4569315

 Broyden mixing:
  rms(total) = 0.19446E+01    rms(broyden)= 0.19441E+01
  rms(prec ) = 0.21714E+01
  weight for this iteration     100.00

 eigenvalues of (default mixing * dielectric matrix)
  average eigenvalue GAMMA=   0.4070
  0.9993  0.9993  0.3894  0.3894  0.4103  0.4103  0.2524  0.2524  0.1536  0.1339
  0.0862

 Free energy of the ion-electron system (eV)
  ---------------------------------------------------
  alpha Z        PSCENC =       875.40133925
  Ewald energy   TEWEN  =    -16675.79721344
  -Hartree energ DENC   =     -8026.55549601
  -exchange      EXHF   =         0.00000000
  -V(xc)+E(xc)   XCENC  =      1128.57148253
  PAW double counting   =     26130.57346584   -27084.49920569
  entropy T*S    EENTRO =        -0.05705173
  eigenvalues    EBANDS =      -862.78558132
  atomic energy  EATOM  =     24265.34096803
  Solvation  Ediel_sol  =         0.00000000
  ---------------------------------------------------
  free energy    TOTEN  =      -249.80729253 eV

  energy without entropy =     -249.75024080  energy(sigma->0) =     -249.77876667


--------------------------------------------------------------------------------------------------------




--------------------------------------- Iteration      1(  17)  ---------------------------------------


    POTLOK:  cpu time    0.0891: real time    0.0893
    SETDIJ:  cpu time    0.0136: real time    0.0136
     EDDAV:  cpu time    0.9885: real time    0.9909
    CHARGE:  cpu time    0.0774: real time    0.0776
    MIXING:  cpu time    0.0035: real time    0.0035
    --------------------------------------------
      LOOP:  cpu time    1.1720: real time    1.1748

 eigenvalue-minimisations  :   992
 total energy-change (2. order) :-0.8866010E+00  (-0.3836303E+00)
 number of electron     278.9999867 magnetization      14.1078103
 augmentation part       92.0554791 magnetization      12.1313074

 Broyden mixing:
  rms(total) = 0.23363E+01    rms(broyden)= 0.23360E+01
  rms(prec ) = 0.26399E+01
  weight for this iteration     100.00

 eigenvalues of (default mixing * dielectric matrix)
  average eigenvalue GAMMA=   0.3951
  0.9633  0.9633  0.5306  0.5306  0.3925  0.3925  0.2629  0.2629  0.1551  0.1337
  0.0766  0.0766

 Free energy of the ion-electron system (eV)
  ---------------------------------------------------
  alpha Z        PSCENC =       875.40133925
  Ewald energy   TEWEN  =    -16675.79721344
  -Hartree energ DENC   =     -8026.99224996
  -exchange      EXHF   =         0.00000000
  -V(xc)+E(xc)   XCENC  =      1128.26852278
  PAW double counting   =     26137.77468817   -27090.87690123
  entropy T*S    EENTRO =        -0.03948990
  eigenvalues    EBANDS =      -863.77355722
  atomic energy  EATOM  =     24265.34096803
  Solvation  Ediel_sol  =         0.00000000
  ---------------------------------------------------
  free energy    TOTEN  =      -250.69389352 eV

  energy without entropy =     -250.65440362  energy(sigma->0) =     -250.67414857


--------------------------------------------------------------------------------------------------------




--------------------------------------- Iteration      1(  18)  ---------------------------------------


    POTLOK:  cpu time    0.0885: real time    0.0887
    SETDIJ:  cpu time    0.0135: real time    0.0135
     EDDAV:  cpu time    0.9760: real time    0.9783
    CHARGE:  cpu time    0.0776: real time    0.0777
    MIXING:  cpu time    0.0034: real time    0.0034
    --------------------------------------------
      LOOP:  cpu time    1.1590: real time    1.1618

 eigenvalue-minimisations  :   976
 total energy-change (2. order) :-0.6191343E+00  (-0.1766508E+00)
 number of electron     278.9999866 magnetization      12.3829824
 augmentation part       92.0799808 magnetization      10.2261275

 Broyden mixing:
  rms(total) = 0.15556E+01    rms(broyden)= 0.15555E+01
  rms(prec ) = 0.17323E+01
  weight for this iteration     100.00

 eigenvalues of (default mixing * dielectric matrix)
  average eigenvalue GAMMA=   0.4238
  0.9287  0.9287  0.6471  0.6471  0.4971  0.4971  0.3399  0.3399  0.2180  0.1573
  0.1350  0.0865  0.0865

 Free energy of the ion-electron system (eV)
  ---------------------------------------------------
  alpha Z        PSCENC =       875.40133925
  Ewald energy   TEWEN  =    -16675.79721344
  -Hartree energ DENC   =     -8028.28954550
  -exchange      EXHF   =         0.00000000
  -V(xc)+E(xc)   XCENC  =      1127.80607805
  PAW double counting   =     26177.91815327   -27130.61393023
  entropy T*S    EENTRO =        -0.03755805
  eigenvalues    EBANDS =      -863.04131920
  atomic energy  EATOM  =     24265.34096803
  Solvation  Ediel_sol  =         0.00000000
  ---------------------------------------------------
  free energy    TOTEN  =      -251.31302781 eV

  energy without entropy =     -251.27546977  energy(sigma->0) =     -251.29424879


--------------------------------------------------------------------------------------------------------




--------------------------------------- Iteration      1(  19)  ---------------------------------------


    POTLOK:  cpu time    0.0886: real time    0.0888
    SETDIJ:  cpu time    0.0135: real time    0.0136
     EDDAV:  cpu time    0.9635: real time    0.9657
    CHARGE:  cpu time    0.0772: real time    0.0774
    MIXING:  cpu time    0.0038: real time    0.0038
    --------------------------------------------
      LOOP:  cpu time    1.1466: real time    1.1493

 eigenvalue-minimisations  :   960
 total energy-change (2. order) :-0.2006581E+01  (-0.3467419E+00)
 number of electron     278.9999867 magnetization      10.6525490
 augmentation part       91.9832550 magnetization       8.7134231

 Broyden mixing:
  rms(total) = 0.17257E+01    rms(broyden)= 0.17256E+01
  rms(prec ) = 0.19212E+01
  weight for this iteration     100.00

 eigenvalues of (default mixing * dielectric matrix)
  average eigenvalue GAMMA=   0.4898
  1.2747  1.2747  0.7922  0.7922  0.5291  0.5291  0.3479  0.3479  0.2920  0.2174
  0.1562  0.1348  0.0842  0.0842

 Free energy of the ion-electron system (eV)
  ---------------------------------------------------
  alpha Z        PSCENC =       875.40133925
  Ewald energy   TEWEN  =    -16675.79721344
  -Hartree energ DENC   =     -8030.78490688
  -exchange      EXHF   =         0.00000000
  -V(xc)+E(xc)   XCENC  =      1126.90428018
  PAW double counting   =     26310.96763397   -27263.17006312
  entropy T*S    EENTRO =        -0.03325932
  eigenvalues    EBANDS =      -862.14838782
  atomic energy  EATOM  =     24265.34096803
  Solvation  Ediel_sol  =         0.00000000
  ---------------------------------------------------
  free energy    TOTEN  =      -253.31960916 eV

  energy without entropy =     -253.28634984  energy(sigma->0) =     -253.30297950


--------------------------------------------------------------------------------------------------------




--------------------------------------- Iteration      1(  20)  ---------------------------------------


    POTLOK:  cpu time    0.0888: real time    0.0890
    SETDIJ:  cpu time    0.0136: real time    0.0136
     EDDAV:  cpu time    0.9756: real time    0.9779
    CHARGE:  cpu time    0.0775: real time    0.0777
    MIXING:  cpu time    0.0037: real time    0.0037
    --------------------------------------------
      LOOP:  cpu time    1.1592: real time    1.1620

 eigenvalue-minimisations  :   976
 total energy-change (2. order) :-0.1322425E+01  (-0.1689429E+00)
 number of electron     278.9999867 magnetization       8.3092507
 augmentation part       91.9863196 magnetization       6.5376321

 Broyden mixing:
  rms(total) = 0.16456E+01    rms(broyden)= 0.16455E+01
  rms(prec ) = 0.18734E+01
  weight for this iteration     100.00

 eigenvalues of (default mixing * dielectric matrix)
  average eigenvalue GAMMA=   0.5400
  1.4108  1.4108  1.4565  0.6033  0.6033  0.4571  0.4571  0.3597  0.3597  0.3047
  0.2164  0.1565  0.1348  0.0848  0.0848

 Free energy of the ion-electron system (eV)
  ---------------------------------------------------
  alpha Z        PSCENC =       875.40133925
  Ewald energy   TEWEN  =    -16675.79721344
  -Hartree energ DENC   =     -8028.05805172
  -exchange      EXHF   =         0.00000000
  -V(xc)+E(xc)   XCENC  =      1126.29603042
  PAW double counting   =     26453.36296374   -27405.02731002
  entropy T*S    EENTRO =        -0.03620945
  eigenvalues    EBANDS =      -866.12455066
  atomic energy  EATOM  =     24265.34096803
  Solvation  Ediel_sol  =         0.00000000
  ---------------------------------------------------
  free energy    TOTEN  =      -254.64203385 eV

  energy without entropy =     -254.60582440  energy(sigma->0) =     -254.62392913


--------------------------------------------------------------------------------------------------------




--------------------------------------- Iteration      1(  21)  ---------------------------------------


    POTLOK:  cpu time    0.0888: real time    0.0890
    SETDIJ:  cpu time    0.0135: real time    0.0135
     EDDAV:  cpu time    1.1752: real time    1.1780
    CHARGE:  cpu time    0.0981: real time    0.0983
    MIXING:  cpu time    0.0047: real time    0.0047
    --------------------------------------------
      LOOP:  cpu time    1.3803: real time    1.3836

 eigenvalue-minimisations  :  1024
 total energy-change (2. order) :-0.1208596E+00  (-0.7298148E-01)
 number of electron     278.9999867 magnetization       7.3347735
 augmentation part       92.1986925 magnetization       5.6391174

 Broyden mixing:
  rms(total) = 0.13534E+01    rms(broyden)= 0.13533E+01
  rms(prec ) = 0.14987E+01
  weight for this iteration     100.00

 eigenvalues of (default mixing * dielectric matrix)
  average eigenvalue GAMMA=   0.5681
  1.7154  1.4128  1.4128  0.6695  0.6695  0.5127  0.5127  0.4802  0.3577  0.3577
  0.3110  0.2164  0.1565  0.1348  0.0848  0.0848

 Free energy of the ion-electron system (eV)
  ---------------------------------------------------
  alpha Z        PSCENC =       875.40133925
  Ewald energy   TEWEN  =    -16675.79721344
  -Hartree energ DENC   =     -8024.00804888
  -exchange      EXHF   =         0.00000000
  -V(xc)+E(xc)   XCENC  =      1125.98414142
  PAW double counting   =     26651.40199499   -27602.19825667
  entropy T*S    EENTRO =        -0.04503943
  eigenvalues    EBANDS =      -870.84277867
  atomic energy  EATOM  =     24265.34096803
  Solvation  Ediel_sol  =         0.00000000
  ---------------------------------------------------
  free energy    TOTEN  =      -254.76289341 eV

  energy without entropy =     -254.71785397  energy(sigma->0) =     -254.74037369


--------------------------------------------------------------------------------------------------------




--------------------------------------- Iteration      1(  22)  ---------------------------------------


    POTLOK:  cpu time    0.1045: real time    0.1048
    SETDIJ:  cpu time    0.0156: real time    0.0157
     EDDAV:  cpu time    1.3157: real time    1.3188
    CHARGE:  cpu time    0.0777: real time    0.0778
    MIXING:  cpu time    0.0042: real time    0.0042
    --------------------------------------------
      LOOP:  cpu time    1.5177: real time    1.5213

 eigenvalue-minimisations  :  1136
 total energy-change (2. order) :-0.5487590E-01  (-0.6907605E-01)
 number of electron     278.9999867 magnetization       6.8378507
 augmentation part       92.3004693 magnetization       5.1388664

 Broyden mixing:
  rms(total) = 0.15083E+01    rms(broyden)= 0.15081E+01
  rms(prec ) = 0.17523E+01
  weight for this iteration     100.00

 eigenvalues of (default mixing * dielectric matrix)
  average eigenvalue GAMMA=   0.5630
  1.8384  1.2696  1.2696  0.8477  0.8477  0.5084  0.5084  0.5217  0.3585  0.3585
  0.3117  0.2521  0.2180  0.1565  0.1348  0.0848  0.0848

 Free energy of the ion-electron system (eV)
  ---------------------------------------------------
  alpha Z        PSCENC =       875.40133925
  Ewald energy   TEWEN  =    -16675.79721344
  -Hartree energ DENC   =     -8023.13424370
  -exchange      EXHF   =         0.00000000
  -V(xc)+E(xc)   XCENC  =      1125.89592087
  PAW double counting   =     26746.92779088   -27698.92156175
  entropy T*S    EENTRO =        -0.03621552
  eigenvalues    EBANDS =      -870.49455392
  atomic energy  EATOM  =     24265.34096803
  Solvation  Ediel_sol  =         0.00000000
  ---------------------------------------------------
  free energy    TOTEN  =      -254.81776930 eV

  energy without entropy =     -254.78155378  energy(sigma->0) =     -254.79966154


--------------------------------------------------------------------------------------------------------




--------------------------------------- Iteration      1(  23)  ---------------------------------------


    POTLOK:  cpu time    0.0886: real time    0.0888
    SETDIJ:  cpu time    0.0136: real time    0.0136
     EDDAV:  cpu time    1.1837: real time    1.1865
    CHARGE:  cpu time    0.0776: real time    0.0778
    MIXING:  cpu time    0.0043: real time    0.0044
    --------------------------------------------
      LOOP:  cpu time    1.3678: real time    1.3710

 eigenvalue-minimisations  :  1120
 total energy-change (2. order) : 0.1014587E+00  (-0.2097656E-01)
 number of electron     278.9999867 magnetization       6.2084610
 augmentation part       92.3166307 magnetization       4.4990093

 Broyden mixing:
  rms(total) = 0.10960E+01    rms(broyden)= 0.10959E+01
  rms(prec ) = 0.12652E+01
  weight for this iteration     100.00

 eigenvalues of (default mixing * dielectric matrix)
  average eigenvalue GAMMA=   0.5835
  2.0683  1.3335  1.3335  0.8811  0.8811  0.4947  0.4947  0.5012  0.5012  0.3569
  0.3569  0.3108  0.3108  0.2171  0.1565  0.1348  0.0848  0.0848

 Free energy of the ion-electron system (eV)
  ---------------------------------------------------
  alpha Z        PSCENC =       875.40133925
  Ewald energy   TEWEN  =    -16675.79721344
  -Hartree energ DENC   =     -8024.31545702
  -exchange      EXHF   =         0.00000000
  -V(xc)+E(xc)   XCENC  =      1125.92380866
  PAW double counting   =     26778.15117169   -27730.27022393
  entropy T*S    EENTRO =        -0.04935991
  eigenvalues    EBANDS =      -869.10134394
  atomic energy  EATOM  =     24265.34096803
  Solvation  Ediel_sol  =         0.00000000
  ---------------------------------------------------
  free energy    TOTEN  =      -254.71631062 eV

  energy without entropy =     -254.66695070  energy(sigma->0) =     -254.69163066


--------------------------------------------------------------------------------------------------------




--------------------------------------- Iteration      1(  24)  ---------------------------------------


    POTLOK:  cpu time    0.0885: real time    0.0887
    SETDIJ:  cpu time    0.0136: real time    0.0137
     EDDAV:  cpu time    1.1063: real time    1.1089
    CHARGE:  cpu time    0.1021: real time    0.1023
    MIXING:  cpu time    0.0053: real time    0.0053
    --------------------------------------------
      LOOP:  cpu time    1.3158: real time    1.3190

 eigenvalue-minimisations  :  1072
 total energy-change (2. order) : 0.7582921E-01  (-0.2090491E-01)
 number of electron     278.9999868 magnetization       6.2106368
 augmentation part       92.3444026 magnetization       4.5111948

 Broyden mixing:
  rms(total) = 0.73208E+00    rms(broyden)= 0.73190E+00
  rms(prec ) = 0.80831E+00
  weight for this iteration     100.00

 eigenvalues of (default mixing * dielectric matrix)
  average eigenvalue GAMMA=   0.5528
  2.0682  1.3335  1.3335  0.8811  0.8811  0.4947  0.4947  0.5011  0.5011  0.3569
  0.3569  0.3109  0.3109  0.2171  0.1565  0.1348  0.0848  0.0848  0.0004

 Free energy of the ion-electron system (eV)
  ---------------------------------------------------
  alpha Z        PSCENC =       875.40133925
  Ewald energy   TEWEN  =    -16675.79721344
  -Hartree energ DENC   =     -8023.83197668
  -exchange      EXHF   =         0.00000000
  -V(xc)+E(xc)   XCENC  =      1125.89082016
  PAW double counting   =     26824.59062723   -27777.51019222
  entropy T*S    EENTRO =        -0.04488243
  eigenvalues    EBANDS =      -868.67997132
  atomic energy  EATOM  =     24265.34096803
  Solvation  Ediel_sol  =         0.00000000
  ---------------------------------------------------
  free energy    TOTEN  =      -254.64048141 eV

  energy without entropy =     -254.59559898  energy(sigma->0) =     -254.61804020


--------------------------------------------------------------------------------------------------------




--------------------------------------- Iteration      1(  25)  ---------------------------------------


    POTLOK:  cpu time    0.1053: real time    0.1055
    SETDIJ:  cpu time    0.0163: real time    0.0164
     EDDAV:  cpu time    1.1478: real time    1.1505
    CHARGE:  cpu time    0.0779: real time    0.0780
    MIXING:  cpu time    0.0046: real time    0.0046
    --------------------------------------------
      LOOP:  cpu time    1.3518: real time    1.3550

 eigenvalue-minimisations  :   992
 total energy-change (2. order) : 0.2983007E-03  (-0.3787660E-02)
 number of electron     278.9999868 magnetization       6.2157593
 augmentation part       92.3317628 magnetization       4.5243145

 Broyden mixing:
  rms(total) = 0.69313E+00    rms(broyden)= 0.69311E+00
  rms(prec ) = 0.76325E+00
  weight for this iteration     100.00

 eigenvalues of (default mixing * dielectric matrix)
  average eigenvalue GAMMA=   0.5553
  2.0164  1.3180  1.3180  0.8846  0.8846  0.4978  0.4978  0.5113  0.5113  0.3373
  0.3373  0.3576  0.3576  0.2994  0.2994  0.2172  0.1565  0.1348  0.0848  0.0848

 Free energy of the ion-electron system (eV)
  ---------------------------------------------------
  alpha Z        PSCENC =       875.40133925
  Ewald energy   TEWEN  =    -16675.79721344
  -Hartree energ DENC   =     -8023.86175497
  -exchange      EXHF   =         0.00000000
  -V(xc)+E(xc)   XCENC  =      1125.88654284
  PAW double counting   =     26820.25970777   -27773.12962613
  entropy T*S    EENTRO =        -0.04384561
  eigenvalues    EBANDS =      -868.69630084
  atomic energy  EATOM  =     24265.34096803
  Solvation  Ediel_sol  =         0.00000000
  ---------------------------------------------------
  free energy    TOTEN  =      -254.64018311 eV

  energy without entropy =     -254.59633750  energy(sigma->0) =     -254.61826030


--------------------------------------------------------------------------------------------------------




--------------------------------------- Iteration      1(  26)  ---------------------------------------


    POTLOK:  cpu time    0.0890: real time    0.0892
    SETDIJ:  cpu time    0.0136: real time    0.0136
     EDDAV:  cpu time    1.0536: real time    1.0561
    CHARGE:  cpu time    0.0777: real time    0.0779
    MIXING:  cpu time    0.0047: real time    0.0047
    --------------------------------------------
      LOOP:  cpu time    1.2386: real time    1.2415

 eigenvalue-minimisations  :  1056
 total energy-change (2. order) : 0.2505058E-02  (-0.3604788E-03)
 number of electron     278.9999868 magnetization       6.2143502
 augmentation part       92.3320484 magnetization       4.5242889

 Broyden mixing:
  rms(total) = 0.70520E+00    rms(broyden)= 0.70520E+00
  rms(prec ) = 0.77521E+00
  weight for this iteration     100.00

 eigenvalues of (default mixing * dielectric matrix)
  average eigenvalue GAMMA=   0.5562
  2.0326  1.3041  1.3041  0.8723  0.8723  0.5114  0.5114  0.4997  0.4997  0.5224
  0.5224  0.3574  0.3574  0.3145  0.3145  0.1348  0.1565  0.2160  0.2072  0.0848
  0.0848

 Free energy of the ion-electron system (eV)
  ---------------------------------------------------
  alpha Z        PSCENC =       875.40133925
  Ewald energy   TEWEN  =    -16675.79721344
  -Hartree energ DENC   =     -8023.80466530
  -exchange      EXHF   =         0.00000000
  -V(xc)+E(xc)   XCENC  =      1125.87941981
  PAW double counting   =     26818.95528409   -27771.79186606
  entropy T*S    EENTRO =        -0.04280175
  eigenvalues    EBANDS =      -868.77814267
  atomic energy  EATOM  =     24265.34096803
  Solvation  Ediel_sol  =         0.00000000
  ---------------------------------------------------
  free energy    TOTEN  =      -254.63767805 eV

  energy without entropy =     -254.59487630  energy(sigma->0) =     -254.61627717


--------------------------------------------------------------------------------------------------------




--------------------------------------- Iteration      1(  27)  ---------------------------------------


    POTLOK:  cpu time    0.0891: real time    0.0893
    SETDIJ:  cpu time    0.0137: real time    0.0137
     EDDAV:  cpu time    1.2593: real time    1.2623
    CHARGE:  cpu time    0.0778: real time    0.0780
    MIXING:  cpu time    0.0047: real time    0.0047
    --------------------------------------------
      LOOP:  cpu time    1.4445: real time    1.4479

 eigenvalue-minimisations  :  1328
 total energy-change (2. order) : 0.6430902E-02  (-0.1871762E-03)
 number of electron     278.9999868 magnetization       6.1999941
 augmentation part       92.3299331 magnetization       4.5091794

 Broyden mixing:
  rms(total) = 0.65659E+00    rms(broyden)= 0.65659E+00
  rms(prec ) = 0.72232E+00
  weight for this iteration     100.00

 eigenvalues of (default mixing * dielectric matrix)
  average eigenvalue GAMMA=   0.5961
  2.0045  1.2749  1.2749  1.0212  1.0212  0.8649  0.8649  0.4852  0.4852  0.5093
  0.5093  0.4186  0.4186  0.3587  0.3587  0.2973  0.2675  0.2175  0.1565  0.1348
  0.0848  0.0848

 Free energy of the ion-electron system (eV)
  ---------------------------------------------------
  alpha Z        PSCENC =       875.40133925
  Ewald energy   TEWEN  =    -16675.79721344
  -Hartree energ DENC   =     -8023.80188560
  -exchange      EXHF   =         0.00000000
  -V(xc)+E(xc)   XCENC  =      1125.86720946
  PAW double counting   =     26817.83018741   -27770.59714020
  entropy T*S    EENTRO =        -0.04147026
  eigenvalues    EBANDS =      -868.83324179
  atomic energy  EATOM  =     24265.34096803
  Solvation  Ediel_sol  =         0.00000000
  ---------------------------------------------------
  free energy    TOTEN  =      -254.63124715 eV

  energy without entropy =     -254.58977689  energy(sigma->0) =     -254.61051202


--------------------------------------------------------------------------------------------------------




--------------------------------------- Iteration      1(  28)  ---------------------------------------


    POTLOK:  cpu time    0.0889: real time    0.0891
    SETDIJ:  cpu time    0.0135: real time    0.0136
     EDDAV:  cpu time    1.0524: real time    1.0549
    CHARGE:  cpu time    0.0778: real time    0.0780
    MIXING:  cpu time    0.0051: real time    0.0051
    --------------------------------------------
      LOOP:  cpu time    1.2377: real time    1.2406

 eigenvalue-minimisations  :  1072
 total energy-change (2. order) : 0.1255588E-01  (-0.2703500E-03)
 number of electron     278.9999868 magnetization       5.6725505
 augmentation part       92.3306227 magnetization       3.9802580

 Broyden mixing:
  rms(total) = 0.55179E+00    rms(broyden)= 0.55179E+00
  rms(prec ) = 0.60820E+00
  weight for this iteration     100.00

 eigenvalues of (default mixing * dielectric matrix)
  average eigenvalue GAMMA=   0.6471
  2.1102  1.3502  1.3502  1.2666  1.2666  0.7930  0.7930  0.7246  0.7246  0.4999
  0.4999  0.5575  0.4957  0.4957  0.3584  0.3584  0.3001  0.2601  0.2175  0.1565
  0.1348  0.0848  0.0848

 Free energy of the ion-electron system (eV)
  ---------------------------------------------------
  alpha Z        PSCENC =       875.40133925
  Ewald energy   TEWEN  =    -16675.79721344
  -Hartree energ DENC   =     -8023.74264617
  -exchange      EXHF   =         0.00000000
  -V(xc)+E(xc)   XCENC  =      1125.84710723
  PAW double counting   =     26816.01504987   -27768.70434161
  entropy T*S    EENTRO =        -0.03964970
  eigenvalues    EBANDS =      -868.93930473
  atomic energy  EATOM  =     24265.34096803
  Solvation  Ediel_sol  =         0.00000000
  ---------------------------------------------------
[...]


 soft charge-density along one line, spin component           1
         0         1         2         3         4         5         6         7         8         9
 total charge-density along one line
 
 soft charge-density along one line, spin component           2
         0         1         2         3         4         5         6         7         8         9
 total charge-density along one line
 
 pseudopotential strength for first ion, spin component:           1
-36.683   3.950  -0.000   0.000  -0.000
  3.950 -10.474  -0.000   0.000  -0.000
 -0.000  -0.000   0.064  -0.000   0.000
  0.000   0.000  -0.000   0.064  -0.000
 -0.000  -0.000   0.000  -0.000   0.064
 pseudopotential strength for first ion, spin component:           2
-36.680   3.953  -0.000   0.000  -0.000
  3.953 -10.476   0.000  -0.000   0.000
 -0.000   0.000   0.068  -0.000   0.000
  0.000  -0.000  -0.000   0.068  -0.000
 -0.000   0.000   0.000  -0.000   0.068
 total augmentation occupancy for first ion, spin component:           1
  2.004   0.032   0.000  -0.000   0.000
  0.032   0.756  -0.000   0.000  -0.000
  0.000  -0.000   0.031   0.003  -0.003
 -0.000   0.000   0.003   0.031   0.003
  0.000  -0.000  -0.003   0.003   0.031
 total augmentation occupancy for first ion, spin component:           2
 -0.000  -0.000   0.000  -0.000   0.000
 -0.000   0.014   0.003  -0.003   0.003
  0.000   0.003   0.001  -0.000   0.000
 -0.000  -0.003  -0.000   0.001  -0.000
  0.000   0.003   0.000  -0.000   0.001


------------------------ aborting loop because EDIFF is reached ----------------------------------------


    CHARGE:  cpu time    0.0768: real time    0.0770
    FORLOC:  cpu time    0.0150: real time    0.0151
    FORNL :  cpu time    0.3183: real time    0.3191
    STRESS:  cpu time    0.9575: real time    0.9597
    FORCOR:  cpu time    0.0915: real time    0.0917
    FORHAR:  cpu time    0.0229: real time    0.0229
    MIXING:  cpu time    0.0024: real time    0.0024
    OFIELD:  cpu time    0.0000: real time    0.0000

  FORCE on cell =-STRESS in cart. coord.  units (eV):
  Direction    XX          YY          ZZ          XY          YZ          ZX
  --------------------------------------------------------------------------------------
  Alpha Z   876.24495   876.24495   876.24495
  Ewald   -5562.31927 -5562.31924 -5562.31927  -175.65463   175.65463   175.65466
  Hartree  2671.35059  2671.35059  2671.35059  -100.91773   100.91773   100.91774
  E(xc)   -1420.86764 -1420.86760 -1420.86764    -0.12610     0.12610     0.12606
  Local   -2482.71200 -2482.71115 -2482.71200   264.33603  -264.33603  -264.33694
  n-local  -692.71549  -692.71552  -692.71549    -1.37432     1.37432     1.37431
  augment  2344.53224  2344.53187  2344.53224     6.25468    -6.25468    -6.25433
  Kinetic  4266.79204  4266.79202  4266.79204     7.51510    -7.51509    -7.51511
  Fock        0.00000     0.00000     0.00000     0.00000     0.00000     0.00000
  -------------------------------------------------------------------------------------
  Total        0.3055759      0.3055759      0.3055759      0.0332218     -0.0332218     -0.0332218
  in kB        1.2747936      1.2747936      1.2747936      0.1385940     -0.1385940     -0.1385940
  external PRESSURE =       1.2747936 kB  Pullay stress =       0.0000000 kB


 VOLUME and BASIS-vectors are now :
 -----------------------------------------------------------------------------
  energy-cutoff  :      500.00
  volume of cell :      384.05
      direct lattice vectors                 reciprocal lattice vectors
     0.000000000  4.043537747  4.043537747     0.082436063  0.082436063  0.164872126
     4.043537747 -4.043537747  0.000000000     0.164872126 -0.082436063  0.082436063
     7.829706732  7.829706732 -7.829706732     0.042572901  0.042572901 -0.042572901

  length of vectors
     5.718425922  5.718425922 13.561449868     0.201926291  0.201926291  0.073738428


 FORCES acting on ions
    electron-ion (+dipol)            ewald-force                    non-local-force                 convergence-correction
 -----------------------------------------------------------------------------------------------
   0.223E+01 0.223E+01 -.223E+01   -.221E+01 -.221E+01 0.221E+01   0.115E-02 0.115E-02 -.115E-02   -.181E-01 -.181E-01 0.181E-01
   -.658E+01 -.658E+01 0.658E+01   0.656E+01 0.656E+01 -.656E+01   0.204E-02 0.204E-02 -.204E-02   0.143E-02 0.143E-02 -.143E-02
   -.613E+00 -.613E+00 0.613E+00   0.962E+00 0.962E+00 -.962E+00   -.371E+00 -.371E+00 0.371E+00   0.180E-01 0.180E-01 -.180E-01
   0.534E+01 0.534E+01 -.534E+01   -.542E+01 -.542E+01 0.542E+01   0.105E+00 0.105E+00 -.105E+00   -.253E-01 -.253E-01 0.253E-01
   -.240E+01 -.240E+01 0.240E+01   0.226E+01 0.226E+01 -.226E+01   0.127E+00 0.127E+00 -.127E+00   0.183E-01 0.183E-01 -.183E-01
   -.187E+02 -.187E+02 0.218E+02   0.187E+02 0.187E+02 -.220E+02   -.144E+00 -.144E+00 0.225E+00   0.136E+00 0.136E+00 -.101E+00
   0.137E+02 0.137E+02 -.284E+02   -.134E+02 -.134E+02 0.290E+02   -.221E+00 -.221E+00 -.551E+00   -.264E-01 -.264E-01 0.267E-01
   -.176E+01 -.176E+01 0.304E+00   0.187E+01 0.187E+01 -.352E+00   0.198E-01 0.198E-01 -.185E-01   -.122E+00 -.122E+00 0.624E-01
   -.187E+02 -.218E+02 0.187E+02   0.187E+02 0.220E+02 -.187E+02   -.144E+00 -.225E+00 0.144E+00   0.136E+00 0.101E+00 -.136E+00
   0.137E+02 0.284E+02 -.137E+02   -.134E+02 -.290E+02 0.134E+02   -.221E+00 0.551E+00 0.221E+00   -.264E-01 -.267E-01 0.264E-01
   -.176E+01 -.304E+00 0.176E+01   0.187E+01 0.352E+00 -.187E+01   0.198E-01 0.185E-01 -.198E-01   -.122E+00 -.624E-01 0.122E+00
   -.218E+02 -.187E+02 0.187E+02   0.220E+02 0.187E+02 -.187E+02   -.225E+00 -.144E+00 0.144E+00   0.101E+00 0.136E+00 -.136E+00
   0.284E+02 0.137E+02 -.137E+02   -.290E+02 -.134E+02 0.134E+02   0.551E+00 -.221E+00 0.221E+00   -.267E-01 -.264E-01 0.264E-01
   -.304E+00 -.176E+01 0.176E+01   0.352E+00 0.187E+01 -.187E+01   0.185E-01 0.198E-01 -.198E-01   -.624E-01 -.122E+00 0.122E+00
   0.105E+02 0.105E+02 -.105E+02   -.111E+02 -.111E+02 0.111E+02   0.514E+00 0.514E+00 -.514E+00   0.383E-01 0.383E-01 -.383E-01
   0.117E+02 0.117E+02 -.117E+02   -.117E+02 -.117E+02 0.117E+02   0.754E-01 0.754E-01 -.754E-01   -.718E-01 -.718E-01 0.718E-01
   -.150E+02 -.150E+02 0.150E+02   0.152E+02 0.152E+02 -.152E+02   -.215E+00 -.215E+00 0.215E+00   0.458E-01 0.458E-01 -.458E-01
   0.217E+03 0.217E+03 0.210E+03   -.232E+03 -.232E+03 -.225E+03   0.147E+02 0.147E+02 0.155E+02   -.690E-04 -.692E-04 0.195E-01
   0.185E+03 0.185E+03 0.171E+03   -.194E+03 -.194E+03 -.179E+03   0.911E+01 0.911E+01 0.858E+01   -.631E-01 -.631E-01 0.867E-01
   0.171E+03 0.171E+03 0.184E+03   -.180E+03 -.180E+03 -.192E+03   0.891E+01 0.891E+01 0.784E+01   0.565E-01 0.565E-01 -.139E+00
   0.217E+03 -.210E+03 -.217E+03   -.232E+03 0.225E+03 0.232E+03   0.147E+02 -.155E+02 -.147E+02   -.692E-04 -.195E-01 0.692E-04
   0.185E+03 -.171E+03 -.185E+03   -.194E+03 0.179E+03 0.194E+03   0.911E+01 -.858E+01 -.911E+01   -.631E-01 -.867E-01 0.631E-01
   0.171E+03 -.184E+03 -.171E+03   -.180E+03 0.192E+03 0.180E+03   0.891E+01 -.784E+01 -.891E+01   0.565E-01 0.139E+00 -.565E-01
   -.210E+03 0.217E+03 -.217E+03   0.225E+03 -.232E+03 0.232E+03   -.155E+02 0.147E+02 -.147E+02   -.195E-01 -.692E-04 0.690E-04
   -.171E+03 0.185E+03 -.185E+03   0.179E+03 -.194E+03 0.194E+03   -.858E+01 0.911E+01 -.911E+01   -.867E-01 -.631E-01 0.631E-01
   -.184E+03 0.171E+03 -.171E+03   0.192E+03 -.180E+03 0.180E+03   -.784E+01 0.891E+01 -.891E+01   0.139E+00 0.565E-01 -.565E-01
   -.217E+03 -.217E+03 0.217E+03   0.229E+03 0.229E+03 -.229E+03   -.129E+02 -.129E+02 0.129E+02   0.558E-01 0.558E-01 -.558E-01
   -.176E+03 -.176E+03 0.176E+03   0.183E+03 0.183E+03 -.183E+03   -.728E+01 -.728E+01 0.728E+01   -.256E-01 -.256E-01 0.256E-01
   -.188E+03 -.188E+03 0.188E+03   0.195E+03 0.195E+03 -.195E+03   -.709E+01 -.709E+01 0.709E+01   -.207E-01 -.207E-01 0.207E-01
   -.187E+03 -.187E+03 -.173E+03   0.197E+03 0.197E+03 0.182E+03   -.920E+01 -.920E+01 -.888E+01   0.410E-01 0.410E-01 -.766E-01
   -.170E+03 -.170E+03 -.194E+03   0.179E+03 0.179E+03 0.203E+03   -.916E+01 -.916E+01 -.899E+01   -.257E-01 -.257E-01 -.238E-02
   -.187E+03 -.187E+03 -.169E+03   0.196E+03 0.196E+03 0.178E+03   -.917E+01 -.917E+01 -.873E+01   -.102E-01 -.102E-01 0.111E+00
   -.187E+03 0.173E+03 0.187E+03   0.197E+03 -.182E+03 -.197E+03   -.920E+01 0.888E+01 0.920E+01   0.410E-01 0.766E-01 -.410E-01
   -.170E+03 0.194E+03 0.170E+03   0.179E+03 -.203E+03 -.179E+03   -.916E+01 0.899E+01 0.916E+01   -.257E-01 0.238E-02 0.257E-01
   -.187E+03 0.169E+03 0.187E+03   0.196E+03 -.178E+03 -.196E+03   -.917E+01 0.873E+01 0.917E+01   -.102E-01 -.111E+00 0.102E-01
   0.173E+03 -.187E+03 0.187E+03   -.182E+03 0.197E+03 -.197E+03   0.888E+01 -.920E+01 0.920E+01   0.766E-01 0.410E-01 -.410E-01
   0.194E+03 -.170E+03 0.170E+03   -.203E+03 0.179E+03 -.179E+03   0.899E+01 -.916E+01 0.916E+01   0.238E-02 -.257E-01 0.257E-01
   0.169E+03 -.187E+03 0.187E+03   -.178E+03 0.196E+03 -.196E+03   0.873E+01 -.917E+01 0.917E+01   -.111E+00 -.102E-01 0.102E-01
   0.174E+03 0.174E+03 -.174E+03   -.182E+03 -.182E+03 0.182E+03   0.782E+01 0.782E+01 -.782E+01   0.638E-01 0.638E-01 -.638E-01
   0.189E+03 0.189E+03 -.189E+03   -.197E+03 -.197E+03 0.197E+03   0.723E+01 0.723E+01 -.723E+01   0.653E-03 0.653E-03 -.653E-03
   0.189E+03 0.189E+03 -.189E+03   -.196E+03 -.196E+03 0.196E+03   0.743E+01 0.743E+01 -.743E+01   -.744E-01 -.744E-01 0.744E-01
 -----------------------------------------------------------------------------------------------
   -.280E+00 -.280E+00 0.280E+00   0.171E-12 -.853E-13 -.142E-12   0.299E+00 0.299E+00 -.299E+00   -.687E-02 -.687E-02 0.687E-02
 
 
 POSITION                                       TOTAL-FORCE (eV/Angst)
 -----------------------------------------------------------------------------------
      2.92443     -1.11910     -0.90266         0.002857      0.002857     -0.002857
      6.93424      2.89070     -0.86893        -0.011393     -0.011393      0.011393
      6.86008      6.86008     -4.83832        -0.004866     -0.004866      0.004866
      5.03882      0.99528      1.02648        -0.002294     -0.002294      0.002294
      4.95234      4.95234     -2.93057         0.006485      0.006485     -0.006485
      7.92455      3.88101     -3.88803         0.001575      0.001575      0.002883
     11.86451      7.82097     -3.78421        -0.002452     -0.002452      0.000891
      3.95384      3.95384      0.09067         0.002172      0.002172     -0.003866
      7.92455      5.90980     -1.85924         0.001575     -0.002883     -0.001575
     11.86451      5.80598     -5.79920        -0.002452     -0.000891      0.002452
      3.95384      1.93110     -1.93207         0.002172      0.003866     -0.002172
      5.90980      7.92455     -1.85924        -0.002883      0.001575     -0.001575
      9.84952      7.82097     -5.79920        -0.000891     -0.002452      0.002452
      5.97464     -0.08970     -1.93207         0.003866      0.002172     -0.002172
      9.91451      5.87097     -3.84920        -0.002598     -0.002598      0.002598
      1.97360      1.97360      0.04817         0.001827      0.001827     -0.001827
      5.93183      1.88829     -3.91006         0.002039      0.002039     -0.002039
     10.01350      5.96996     -5.71891        -0.001946     -0.001946      0.003354
      2.08775      2.08775     -1.85548         0.002423      0.002423     -0.002899
      6.04901      6.04901     -1.77341         0.003495      0.003495     -0.006678
     10.01350      7.74068     -3.94819        -0.001946     -0.003354      0.001946
      2.08775      3.87725     -0.06599         0.002423      0.002899     -0.002423
      6.04901      3.79517     -4.02724         0.003495      0.006678     -0.003495
      7.74068     10.01350     -3.94819        -0.003354     -0.001946      0.001946
      3.87725      2.08775     -0.06599         0.002899      0.002423     -0.002423
      7.83871      2.00547     -4.02724         0.006678      0.003495     -0.003495
      7.76276      3.71922     -5.74099         0.002683      0.002683     -0.002683
      3.89917     -0.14437      2.16614        -0.002427     -0.002427      0.002427
      3.81273      3.81273     -1.79096         0.003440      0.003440     -0.003440
      9.80274      5.75920     -1.95819        -0.001230     -0.001230     -0.000414
      1.85590      1.85590      1.94715        -0.001191     -0.001191      0.000063
      5.82089      1.77736     -2.00328        -0.000573     -0.000573      0.002134
      9.80274      3.97996     -3.73743        -0.001230      0.000414      0.001230
      1.85590      0.07461      0.16587        -0.001191     -0.000063      0.001191
      5.82089      4.02505      0.24441        -0.000573     -0.002134      0.000573
      8.02350      5.75920     -3.73743         0.000414     -0.001230      0.001230
      4.11815     -2.18764      0.16587        -0.000063     -0.001191      0.001191
      4.02505      5.82089      0.24441        -0.002134     -0.000573      0.000573
      8.08188      4.03835     -2.01658        -0.002308     -0.002308      0.002308
      7.97103      7.97103     -5.94926        -0.002789     -0.002789      0.002789
      4.09337      0.04983     -2.07160         0.000264      0.000264     -0.000264
 -----------------------------------------------------------------------------------
    total drift:                                0.011858      0.011855     -0.011857


--------------------------------------------------------------------------------------------------------



  FREE ENERGIE OF THE ION-ELECTRON SYSTEM (eV)
  ---------------------------------------------------
  free  energy   TOTEN  =      -254.6514759392 eV

  energy  without entropy=     -254.6180299911  energy(sigma->0) =     -254.63475297
 
 d Force = 0.1918080E-04[ 0.831E-05, 0.301E-04]  d Energy = 0.2925600E-04-0.101E-04
 d Force = 0.9017401E-01[ 0.899E-01, 0.905E-01]  d Ewald  =-0.5522463E+00 0.642E+00


--------------------------------------------------------------------------------------------------------


    POTLOK:  cpu time    0.1024: real time    0.1027


--------------------------------------------------------------------------------------------------------


 Quasi-Newton relaxation of ions (Broydens 2nd method)
  g(Force)  = 0.624E-04   g(Stress)= 0.337E-03

 retain information from N=  2 steps
 eigenvalues of (default step * inverse Hessian matrix)
  average eigenvalue of G=   3.0831
 eigenvalue spectrum of G is  0.0736  6.0927


--------------------------------------------------------------------------------------------------------


  
 reached required accuracy - stopping structural energy minimisation
     LOOP+:  cpu time    7.4494: real time    7.5775
    4ORBIT:  cpu time    0.0000: real time    0.0000

volume of typ            1:    10.1 %

volume of typ            2:    19.9 %

volume of typ            3:    10.2 %
 
total charge     
 
# of ion       s       p       d       tot
------------------------------------------
    1        2.098   0.308   0.114   2.520
    2        2.098   0.305   0.111   2.515
    3        2.101   0.316   0.117   2.534
    4        2.101   0.316   0.116   2.533
    5        2.101   0.316   0.115   2.532
    6        0.282   0.390   7.844   8.516
    7        0.287   0.400   7.843   8.530
    8        0.281   0.392   7.847   8.521
    9        0.282   0.390   7.844   8.516
   10        0.287   0.400   7.843   8.530
   11        0.281   0.392   7.847   8.521
   12        0.282   0.390   7.844   8.516
   13        0.287   0.400   7.843   8.530
   14        0.281   0.392   7.847   8.521
   15        0.284   0.389   7.839   8.512
   16        0.269   0.360   7.855   8.485
   17        0.266   0.354   7.862   8.481
   18        1.278   2.735   0.008   4.021
   19        1.261   2.788   0.007   4.055
   20        1.261   2.785   0.006   4.053
   21        1.278   2.735   0.008   4.021
   22        1.261   2.788   0.007   4.055
   23        1.261   2.785   0.006   4.053
   24        1.278   2.735   0.008   4.021
   25        1.261   2.788   0.007   4.055
   26        1.261   2.785   0.006   4.053
   27        1.282   2.727   0.008   4.016
   28        1.269   2.771   0.007   4.047
   29        1.269   2.770   0.006   4.045
   30        1.263   2.780   0.006   4.049
   31        1.261   2.788   0.007   4.056
   32        1.261   2.787   0.007   4.054
   33        1.263   2.780   0.006   4.049
   34        1.261   2.788   0.007   4.056
   35        1.261   2.787   0.007   4.054
   36        1.263   2.780   0.006   4.049
   37        1.261   2.788   0.007   4.056
   38        1.261   2.787   0.007   4.054
   39        1.267   2.772   0.007   4.046
   40        1.271   2.768   0.006   4.045
   41        1.269   2.767   0.007   4.043
--------------------------------------------------
tot          44.25   72.78   94.89  211.92
 
magnetization (x)
 
# of ion       s       p       d       tot
------------------------------------------
    1        0.002   0.007   0.003   0.011
    2        0.002   0.006   0.002   0.010
    3        0.002   0.010   0.003   0.015
    4        0.002   0.009   0.003   0.014
    5        0.002   0.011   0.004   0.017
    6       -0.001  -0.001   0.243   0.241
    7       -0.001  -0.001   0.197   0.195
    8       -0.001  -0.001   0.280   0.277
    9       -0.001  -0.001   0.243   0.241
   10       -0.001  -0.001   0.197   0.195
   11       -0.001  -0.001   0.280   0.277
   12       -0.001  -0.001   0.243   0.241
   13       -0.001  -0.001   0.197   0.195
   14       -0.001  -0.001   0.280   0.277
   15       -0.000  -0.001   0.148   0.146
   16       -0.000  -0.001   0.475   0.473
   17       -0.001  -0.001   0.518   0.516
   18        0.001   0.018   0.000   0.019
   19        0.006   0.050   0.000   0.056
   20        0.007   0.066   0.000   0.074
   21        0.001   0.018   0.000   0.019
   22        0.006   0.050   0.000   0.056
   23        0.007   0.066   0.000   0.074
   24        0.001   0.018   0.000   0.019
   25        0.006   0.050   0.000   0.056
   26        0.007   0.066   0.000   0.074
   27        0.005   0.059   0.000   0.064
   28        0.011   0.085   0.000   0.096
   29        0.011   0.078   0.000   0.088
   30        0.005   0.039   0.000   0.044
   31        0.005   0.043   0.000   0.048
   32        0.006   0.046   0.000   0.052
   33        0.005   0.039   0.000   0.044
   34        0.005   0.043   0.000   0.048
   35        0.006   0.046   0.000   0.052
   36        0.005   0.039   0.000   0.044
   37        0.005   0.043   0.000   0.048
   38        0.006   0.046   0.000   0.052
   39        0.006   0.035   0.000   0.040
   40        0.011   0.079   0.000   0.089
   41        0.010   0.084   0.000   0.094
--------------------------------------------------
tot           0.15    1.23    3.32    4.70
 

 total amount of memory used by VASP MPI-rank0    75837. kBytes
=======================================================================

   base      :      30000. kBytes
   nonlr-proj:      16098. kBytes
   fftplans  :       4025. kBytes
   grid      :      23111. kBytes
   one-center:        637. kBytes
   wavefun   :       1966. kBytes
 
  
  
 General timing and accounting informations for this job:
 ========================================================
  
                  Total CPU time used (sec):      122.019
                            User time (sec):      120.562
                          System time (sec):        1.457
                         Elapsed time (sec):      126.757
  
                   Maximum memory used (kb):      112716.
                   Average memory used (kb):           0.
  
                          Minor page faults:        28242
                          Major page faults:           53
                 Voluntary context switches:          868
