 vasp.5.4.4.18Apr17-6-g9f103f2a35 (build May 12 2020 05:39:39) gamma-only       
  
 MD_VERSION_INFO: Compiled 2020-05-12T12:39:39-UTC in devlin.sd.materialsdesign.
 com:/home/medea2/data/build/wwolf/vasp-gpu5.4.4/13047/x86_64/src/src/build/gam 
 from svn 13047
 
 This VASP executable licensed from Materials Design, Inc.
 
 executed on                        Lin64 date 2023.02.09  13:48:28
 running on   16 total cores
 distrk:  each k-point on   16 cores,    1 groups
 distr:  one band on NCORES_PER_BAND=   1 cores,   16 groups


--------------------------------------------------------------------------------------------------------


 INCAR:
 POTCAR:    PAW_PBE Li_sv 10Sep2004               
 POTCAR:    PAW_PBE Ni 02Aug2007                  
 POTCAR:    PAW_PBE O 08Apr2002                   

 ----------------------------------------------------------------------------- 
|                                                                             |
|           W    W    AA    RRRRR   N    N  II  N    N   GGGG   !!!           |
|           W    W   A  A   R    R  NN   N  II  NN   N  G    G  !!!           |
|           W    W  A    A  R    R  N N  N  II  N N  N  G       !!!           |
|           W WW W  AAAAAA  RRRRR   N  N N  II  N  N N  G  GGG   !            |
|           WW  WW  A    A  R   R   N   NN  II  N   NN  G    G                |
|           W    W  A    A  R    R  N    N  II  N    N   GGGG   !!!           |
|                                                                             |
|      For optimal performance we recommend to set                            |
|        NCORE= 4 - approx SQRT( number of cores)                             |
|      NCORE specifies how many cores store one orbital (NPAR=cpu/NCORE).     |
|      This setting can  greatly improve the performance of VASP for DFT.     |
|      The default,   NCORE=1            might be grossly inefficient         |
|      on modern multi-core architectures or massively parallel machines.     |
|      Do your own testing !!!!                                               |
|      Unfortunately you need to use the default for GW and RPA calculations. |
|      (for HF NCORE is supported but not extensively tested yet)             |
|                                                                             |
 ----------------------------------------------------------------------------- 

 POTCAR:    PAW_PBE Li_sv 10Sep2004               
  local pseudopotential read in
  atomic valenz-charges read in
  non local Contribution for L=           0  read in
    real space projection operators read in
  non local Contribution for L=           0  read in
    real space projection operators read in
  non local Contribution for L=           1  read in
    real space projection operators read in
    PAW grid and wavefunctions read in
 
   number of l-projection  operators is LMAX  =           3
   number of lm-projection operators is LMMAX =           5
 
 POTCAR:    PAW_PBE Ni 02Aug2007                  
  local pseudopotential read in
  partial core-charges read in
  partial kinetic energy density read in
  atomic valenz-charges read in
  non local Contribution for L=           2  read in
    real space projection operators read in
  non local Contribution for L=           2  read in
    real space projection operators read in
  non local Contribution for L=           0  read in
    real space projection operators read in
  non local Contribution for L=           0  read in
    real space projection operators read in
  non local Contribution for L=           1  read in
    real space projection operators read in
  non local Contribution for L=           1  read in
    real space projection operators read in
    PAW grid and wavefunctions read in
 
   number of l-projection  operators is LMAX  =           6
   number of lm-projection operators is LMMAX =          18
 
 POTCAR:    PAW_PBE O 08Apr2002                   
  local pseudopotential read in
  partial core-charges read in
  partial kinetic energy density read in
  kinetic energy density of atom read in
  atomic valenz-charges read in
  non local Contribution for L=           0  read in
    real space projection operators read in
  non local Contribution for L=           0  read in
    real space projection operators read in
  non local Contribution for L=           1  read in
    real space projection operators read in
  non local Contribution for L=           1  read in
    real space projection operators read in
    PAW grid and wavefunctions read in
 
   number of l-projection  operators is LMAX  =           4
   number of lm-projection operators is LMMAX =           8
 
 Optimization of the real space projectors (new method)

 maximal supplied QI-value         = 22.11
 optimisation between [QCUT,QGAM] = [ 11.28, 22.77] = [ 35.61,145.23] Ry 
 Optimized for a Real-space Cutoff    1.10 Angstroem

   l    n(q)    QCUT    max X(q) W(low)/X(q) W(high)/X(q)  e(spline) 
   0      7    11.276    10.506    0.54E-04    0.58E-04    0.16E-07
   0      7    11.276     8.367    0.11E-03    0.14E-03    0.35E-07
   1      7    11.276     8.983    0.23E-03    0.43E-03    0.86E-07
 Optimization of the real space projectors (new method)

 maximal supplied QI-value         = 16.25
 optimisation between [QCUT,QGAM] = [ 11.38, 22.75] = [ 36.24,144.96] Ry 
 Optimized for a Real-space Cutoff    1.47 Angstroem

   l    n(q)    QCUT    max X(q) W(low)/X(q) W(high)/X(q)  e(spline) 
   2      9    11.376    60.317    0.17E-03    0.16E-04    0.16E-06
   2      9    11.376    55.921    0.17E-03    0.16E-04    0.17E-06
   0     10    11.376    51.690    0.45E-04    0.60E-04    0.21E-06
   0     10    11.376    30.015    0.37E-04    0.55E-04    0.19E-06
   1     10    11.376    18.849    0.83E-04    0.11E-03    0.92E-07
   1     10    11.376    14.624    0.69E-04    0.92E-04    0.82E-07
 Optimization of the real space projectors (new method)

 maximal supplied QI-value         = 24.76
 optimisation between [QCUT,QGAM] = [ 11.39, 22.77] = [ 36.31,145.25] Ry 
 Optimized for a Real-space Cutoff    1.10 Angstroem

   l    n(q)    QCUT    max X(q) W(low)/X(q) W(high)/X(q)  e(spline) 
   0      7    11.387    20.381    0.22E-03    0.48E-03    0.18E-06
   0      7    11.387    15.268    0.22E-03    0.52E-03    0.19E-06
   1      7    11.387     5.964    0.22E-03    0.73E-03    0.24E-06
   1      7    11.387     5.382    0.19E-03    0.60E-03    0.21E-06

 ----------------------------------------------------------------------------- 
|                                                                             |
|  ADVICE TO THIS USER RUNNING 'VASP/VAMP'   (HEAR YOUR MASTER'S VOICE ...):  |
|                                                                             |
|      You enforced a specific xc-type in the INCAR file,                     |
|      a different type was found on the POTCAR file                          |
|          I HOPE YOU KNOW, WHAT YOU ARE  DOING                               |
|                                                                             |
 ----------------------------------------------------------------------------- 

  PAW_PBE Li_sv 10Sep2004               :
 energy of atom  1       EATOM= -202.7858
 kinetic energy error for atom=    0.0143 (will be added to EATOM!!)
  PAW_PBE Ni 02Aug2007                  :
 energy of atom  2       EATOM=-1077.6739
 kinetic energy error for atom=    0.0030 (will be added to EATOM!!)
  PAW_PBE O 08Apr2002                   :
 energy of atom  3       EATOM= -432.3788
 kinetic energy error for atom=    0.0224 (will be added to EATOM!!)
 
 
 POSCAR: ce79_1                                  
  positions in direct lattice
  No initial velocities read in
 exchange correlation table for  LEXCH =       14
   RHO(1)=    0.500       N(1)  =     2000
   RHO(2)=  100.500       N(2)  =     4000
 


--------------------------------------------------------------------------------------------------------


 ion  position               nearest neighbor table
   1  0.939  0.469  0.092-  38 1.90  42 1.90  34 1.90  47 1.96
   2  1.000  1.000  0.999-  30 1.84  46 1.85  25 1.85  29 1.85  42 1.87  38 1.87  17 2.76  10 2.79
                             6 2.79   6 2.81  10 2.81  14 2.81
   3  0.498  0.249  0.251-  31 1.85  43 1.86  39 1.86  47 1.86  22 1.86  26 1.86  14 2.76  15 2.76
                            11 2.79   7 2.79   7 2.81  11 2.81
   4  1.000  0.500  0.500-  32 1.85  48 1.85  44 1.86  40 1.86  23 1.86  27 1.86  15 2.76  16 2.77
                             8 2.80  12 2.80  12 2.80   8 2.80
   5  0.500  0.750  0.750-  33 1.85  49 1.85  24 1.86  28 1.86  45 1.86  41 1.86  17 2.76  16 2.77
                             9 2.80  13 2.80  13 2.80   9 2.80
   6  0.501  1.000  0.999-  30 1.84  46 1.85  21 1.85  29 1.85  42 1.87  34 1.87  17 2.76  10 2.79
                             2 2.79   2 2.81  10 2.81  14 2.81
   7  1.000  0.249  0.251-  31 1.85  35 1.86  43 1.86  47 1.86  18 1.86  26 1.86  14 2.76  15 2.76
                            11 2.79   3 2.79   3 2.81  11 2.81
   8  0.500  0.500  0.500-  32 1.85  48 1.85  44 1.86  36 1.86  19 1.86  27 1.86  15 2.76  16 2.77
                             4 2.80  12 2.80  12 2.80   4 2.80
   9  0.000  0.750  0.750-  33 1.85  49 1.85  20 1.86  28 1.86  37 1.86  45 1.86  17 2.76  16 2.77
                             5 2.80  13 2.80  13 2.80   5 2.80
  10  0.501  0.501  0.999-  30 1.84  46 1.85  21 1.85  25 1.85  38 1.87  34 1.87  17 2.76   6 2.79
                             2 2.79   2 2.81   6 2.81  14 2.81
  11  1.000  0.750  0.251-  31 1.85  35 1.86  39 1.86  47 1.86  22 1.86  18 1.86  14 2.76  15 2.76
                             7 2.79   3 2.79   3 2.81   7 2.81
  12  0.500  1.000  0.500-  32 1.85  48 1.85  36 1.86  40 1.86  19 1.86  23 1.86  15 2.76  16 2.77
                             4 2.80   8 2.80   8 2.80   4 2.80
  13  0.000  0.250  0.750-  33 1.85  49 1.85  24 1.86  20 1.86  37 1.86  41 1.86  17 2.76  16 2.77
                             5 2.80   9 2.80   9 2.80   5 2.80
  14  0.249  0.124  0.127-  18 1.87  22 1.87  26 1.87  34 1.90  38 1.90  42 1.90   7 2.76  11 2.76
                             3 2.76   6 2.81  10 2.81   2 2.81
  15  0.749  0.375  0.376-  23 1.87  19 1.87  27 1.87  35 1.87  39 1.87  43 1.87   4 2.76   8 2.76
                            12 2.76   3 2.76  11 2.76   7 2.76
  16  0.250  0.625  0.625-  36 1.87  40 1.87  44 1.87  20 1.87  28 1.87  24 1.87   9 2.77  13 2.77
                             5 2.77  12 2.77   4 2.77   8 2.77
  17  0.751  0.875  0.874-  37 1.86  41 1.86  45 1.86  25 1.88  21 1.88  29 1.88   2 2.76  10 2.76
                             6 2.76   5 2.76  13 2.76   9 2.76
  18  0.908  0.954  0.193-   7 1.86  11 1.86  14 1.87
  19  0.409  0.204  0.442-   8 1.86  12 1.86  15 1.87
  20  0.909  0.455  0.692-   9 1.86  13 1.86  16 1.87
  21  0.408  0.704  0.941-   6 1.85  10 1.85  17 1.88
  22  0.353  0.954  0.193-   3 1.86  11 1.86  14 1.87
  23  0.854  0.204  0.442-   4 1.86  12 1.86  15 1.87
  24  0.354  0.455  0.692-   5 1.86  13 1.86  16 1.87
  25  0.855  0.704  0.941-   2 1.85  10 1.85  17 1.88
  26  0.353  0.399  0.193-   7 1.86   3 1.86  14 1.87
  27  0.854  0.649  0.442-   8 1.86   4 1.86  15 1.87
  28  0.354  0.899  0.692-   9 1.86   5 1.86  16 1.87
  29  0.855  0.151  0.941-   2 1.85   6 1.85  17 1.88
  30  0.634  0.817  0.048-   2 1.84  10 1.84   6 1.84
  31  0.133  0.066  0.301-   7 1.85  11 1.85   3 1.85
  32  0.634  0.317  0.550-   4 1.85  12 1.85   8 1.85
  33  0.134  0.567  0.799-   5 1.85   9 1.85  13 1.85
  34  0.591  0.295  0.058-   6 1.87  10 1.87  14 1.90   1 1.90
  35  0.090  0.545  0.309-   7 1.86  11 1.86  15 1.87
  36  0.590  0.795  0.558-  12 1.86   8 1.86  16 1.87
  37  0.090  0.045  0.808-  13 1.86   9 1.86  17 1.86
  38  0.147  0.295  0.058-   2 1.87  10 1.87  14 1.90   1 1.90
  39  0.646  0.545  0.309-   3 1.86  11 1.86  15 1.87
  40  0.146  0.795  0.558-   4 1.86  12 1.86  16 1.87
  41  0.647  0.045  0.808-   5 1.86  13 1.86  17 1.86
  42  0.147  0.851  0.058-   2 1.87   6 1.87  14 1.90   1 1.90
  43  0.646  0.100  0.309-   3 1.86   7 1.86  15 1.87
  44  0.146  0.351  0.558-   8 1.86   4 1.86  16 1.87
  45  0.647  0.601  0.808-   5 1.86   9 1.86  17 1.86
  46  0.367  0.184  0.949-   2 1.85   6 1.85  10 1.85
  47  0.866  0.433  0.201-   3 1.86   7 1.86  11 1.86   1 1.96
  48  0.366  0.683  0.451-   8 1.85  12 1.85   4 1.85
  49  0.866  0.933  0.700-   5 1.85  13 1.85   9 1.85
 
  LATTYP: Found a trigonal (rhomboedric) cell.
 ALAT       =    18.2751011815
 COS(alpha) =     0.9530759736
  
  Lattice vectors:
  
 A1 = ( -11.7043707689, -11.7043707689,   7.7456267016)
 A2 = (  -7.7456267016, -11.7043707689,  11.7043707689)
 A3 = ( -11.7043707689,  -7.7456267016,  11.7043707689)


Analysis of symmetry for initial positions (statically):
=====================================================================
 Subroutine PRICEL returns:
 Original cell was already a primitive cell.
 

 Routine SETGRP: Setting up the symmetry group for a 
 trigonal (rhombohedral) supercell.


 Subroutine GETGRP returns: Found  6 space group operations
 (whereof  2 operations were pure point group operations)
 out of a pool of 12 trial point group operations.


The static configuration has the point symmetry C_1h.
 The point group associated with its full space group is C_3v.


Analysis of symmetry for dynamics (positions and initial velocities):
=====================================================================
 Subroutine PRICEL returns:
 Original cell was already a primitive cell.
 

 Routine SETGRP: Setting up the symmetry group for a 
 trigonal (rhombohedral) supercell.


 Subroutine GETGRP returns: Found  6 space group operations
 (whereof  2 operations were pure point group operations)
 out of a pool of 12 trial point group operations.


The dynamic configuration has the point symmetry C_1h.
 The point group associated with its full space group is C_3v.


Analysis of structural, dynamic, and magnetic symmetry:
=====================================================================
 Subroutine PRICEL returns:
 Original cell was already a primitive cell.
 

 Routine SETGRP: Setting up the symmetry group for a 
 trigonal (rhombohedral) supercell.


 Subroutine GETGRP returns: Found  6 space group operations
 (whereof  2 operations were pure point group operations)
 out of a pool of 12 trial point group operations.


The magnetic configuration has the point symmetry C_1h.
 The point group associated with its full space group is C_3v.


 Subroutine INISYM returns: Found  6 space group operations
 (whereof  2 operations are pure point group operations),
 and found     1 'primitive' translations

 
 
 KPOINTS: Automatic mesh                          

Automatic generation of k-mesh.
Space group operators:
 irot       det(A)        alpha          n_x          n_y          n_z        tau_x        tau_y        tau_z
    1     1.000000     0.000000     1.000000     0.000000     0.000000     0.000000     0.000000     0.000000
    2    -1.000000   180.000000    -0.707107     0.707107    -0.000000     0.000000     0.000000     0.000000
    3     1.000000   120.000000     0.577350     0.577350    -0.577350     0.500000     0.500000    -1.000000
    4    -1.000000   180.000000    -0.707107     0.000000    -0.707107     0.500000     0.500000    -1.000000
    5     1.000000   120.000000    -0.577350    -0.577350     0.577350     0.500000    -0.000000    -1.000000
    6    -1.000000   180.000000     0.000000     0.707107     0.707107     0.500000    -0.000000    -1.000000
 
 Subroutine IBZKPT returns following result:
 ===========================================
 
 Found      1 irreducible k-points:
 
 Following reciprocal coordinates:
            Coordinates               Weight
  0.000000  0.000000  0.000000      1.000000
 
 Following cartesian coordinates:
            Coordinates               Weight
  0.000000  0.000000  0.000000      1.000000
 


--------------------------------------------------------------------------------------------------------




 Dimension of arrays:
   k-points           NKPTS =      1   k-points in BZ     NKDIM =      1   number of bands    NBANDS=    240
   number of dos      NEDOS =    301   number of ions     NIONS =     49
   non local maximal  LDIM  =      6   non local SUM 2l+1 LMDIM =     18
   total plane-waves  NPLWV = 246960
   max r-space proj   IRMAX =   6840   max aug-charges    IRDMAX=  16594
   dimension x,y,z NGX =    42 NGY =   42 NGZ =  140
   dimension x,y,z NGXF=    84 NGYF=   84 NGZF=  280
   support grid    NGXF=    84 NGYF=   84 NGZF=  280
   ions per type =               1  16  32
   NGX,Y,Z   is equivalent  to a cutoff of  12.47, 12.47, 12.74 a.u.
   NGXF,Y,Z  is equivalent  to a cutoff of  24.94, 24.94, 25.47 a.u.

 SYSTEM =  unknown system                          
 POSCAR =  ce79_1                                  

 Startparameter for this run:
   NWRITE =      1    write-flag & timer
   PREC   = accura    normal or accurate (medium, high low for compatibility)
   ISTART =      0    job   : 0-new  1-cont  2-samecut
   ICHARG =      2    charge: 1-file 2-atom 10-const
   ISPIN  =      2    spin polarized calculation?
   LNONCOLLINEAR =      F non collinear calculations
   LSORBIT =      F    spin-orbit coupling
   INIWAV =      1    electr: 0-lowe 1-rand  2-diag
   LASPH  =      F    aspherical Exc in radial PAW
   METAGGA=      F    non-selfconsistent MetaGGA calc.

 Electronic Relaxation 1
   ENCUT  =  500.0 eV  36.75 Ry    6.06 a.u.  10.21 10.21 33.32*2*pi/ulx,y,z
   ENINI  =  500.0     initial cutoff
   ENAUG  =  628.9 eV  augmentation charge cutoff
   NELM   =     80;   NELMIN=  2; NELMDL= -5     # of ELM steps 
   EDIFF  = 0.1E-04   stopping-criterion for ELM
   LREAL  =      T    real-space projection
   NLSPLINE    = F    spline interpolate recip. space projectors
   LCOMPAT=      F    compatible to vasp.4.4
   GGA_COMPAT  = T    GGA compatible to vasp.4.4-vasp.4.6
   LMAXPAW     = -100 max onsite density
   LMAXMIX     =    2 max onsite mixed and CHGCAR
   VOSKOWN=      1    Vosko Wilk Nusair interpolation
   ROPT   =   -0.00025  -0.00025  -0.00025
 Ionic relaxation
   EDIFFG = -.2E-01   stopping-criterion for IOM
   NSW    =     20    number of steps for IOM
   NBLOCK =      1;   KBLOCK =     20    inner block; outer block 
   IBRION =      1    ionic relax: 0-MD 1-quasi-New 2-CG
   NFREE  =      0    steps in history (QN), initial steepest desc. (CG)
   ISIF   =      3    stress and relaxation
   IWAVPR =     11    prediction:  0-non 1-charg 2-wave 3-comb
   ISYM   =      2    0-nonsym 1-usesym 2-fastsym
   LCORR  =      T    Harris-Foulkes like correction to forces

   POTIM  = 0.5000    time-step for ionic-motion
   TEIN   =    0.0    initial temperature
   TEBEG  =    0.0;   TEEND  =   0.0 temperature during run
   SMASS  =  -3.00    Nose mass-parameter (am)
   estimated Nose-frequenzy (Omega)   =  0.10E-29 period in steps =****** mass=  -0.716E-27a.u.
   SCALEE = 1.0000    scale energy and forces
   NPACO  =    256;   APACO  = 16.0  distance and # of slots for P.C.
   PSTRESS=    0.0 pullay stress

  Mass of Ions in am
   POMASS =   7.01 58.69 16.00
  Ionic Valenz
   ZVAL   =   3.00 10.00  6.00
  Atomic Wigner-Seitz radii
   RWIGS  =   1.23  1.15  0.73
  virtual crystal weights 
   VCA    =   1.00  1.00  1.00
   NELECT =     355.0000    total number of electrons
   NUPDOWN=      -1.0000    fix difference up-down

 DOS related values:
   EMIN   =  10.00;   EMAX   =-10.00  energy-range for DOS
   EFERMI =   0.00
   ISMEAR =     0;   SIGMA  =   0.05  broadening in eV -4-tet -1-fermi 0-gaus

 Electronic relaxation 2 (details)
   IALGO  =     38    algorithm
   LDIAG  =      T    sub-space diagonalisation (order eigenvalues)
   LSUBROT=      F    optimize rotation matrix (better conditioning)
   TURBO    =      0    0=normal 1=particle mesh
   IRESTART =      0    0=no restart 2=restart with 2 vectors
   NREBOOT  =      0    no. of reboots
   NMIN     =      0    reboot dimension
   EREF     =   0.00    reference energy to select bands
   IMIX   =      4    mixing-type and parameters
     AMIX     =   0.40;   BMIX     =  1.00
     AMIX_MAG =   1.60;   BMIX_MAG =  1.00
     AMIN     =   0.10
     WC   =   100.;   INIMIX=   1;  MIXPRE=   1;  MAXMIX= -45

 Intra band minimization:
   WEIMIN = 0.0010     energy-eigenvalue tresh-hold
   EBREAK =  0.10E-07  absolut break condition
   DEPER  =   0.30     relativ break condition  

   TIME   =   0.40     timestep for ELM

  volume/ion in A,a.u.               =       9.96        67.24
  Fermi-wavevector in a.u.,A,eV,Ry     =   1.472108  2.781881 29.485213  2.167102
  Thomas-Fermi vector in A             =   2.587163
 
 Write flags
   LWAVE        =      F    write WAVECAR
   LDOWNSAMPLE  =      F    k-point downsampling of WAVECAR
   LCHARG       =      T    write CHGCAR
   LVTOT        =      F    write LOCPOT, total local potential
   LVHAR        =      F    write LOCPOT, Hartree potential only
   LELF         =      F    write electronic localiz. function (ELF)
   LORBIT       =      0    0 simple, 1 ext, 2 COOP (PROOUT), +10 PAW based schemes


 Dipole corrections
   LMONO  =      F    monopole corrections only (constant potential shift)
   LDIPOL =      F    correct potential (dipole corrections)
   IDIPOL =      0    1-x, 2-y, 3-z, 4-all directions 
   EPSILON=  1.0000000 bulk dielectric constant

 Exchange correlation treatment:
   GGA     =    PS    GGA type
   LEXCH   =    14    internal setting for exchange type
   VOSKOWN=      1    Vosko Wilk Nusair interpolation
   LHFCALC =     F    Hartree Fock is set to
   LHFONE  =     F    Hartree Fock one center treatment
   AEXX    =    0.0000 exact exchange contribution

 Linear response parameters
   LEPSILON=     F    determine dielectric tensor
   LRPA    =     F    only Hartree local field effects (RPA)
   LNABLA  =     F    use nabla operator in PAW spheres
   LVEL    =     F    velocity operator in full k-point grid
   LINTERFAST=   F  fast interpolation
   KINTER  =     0    interpolate to denser k-point grid
   CSHIFT  =0.1000    complex shift for real part using Kramers Kronig
   OMEGAMAX=  -1.0    maximum frequency
   DEG_THRESHOLD= 0.2000000E-02 threshold for treating states as degnerate
   RTIME   =   -0.100 relaxation time in fs
  (WPLASMAI=    0.000 imaginary part of plasma frequency in eV, 0.658/RTIME)
   DFIELD  = 0.0000000 0.0000000 0.0000000 field for delta impulse in time
 
 Orbital magnetization related:
   ORBITALMAG=     F  switch on orbital magnetization
   LCHIMAG   =     F  perturbation theory with respect to B field
   DQ        =  0.001000  dq finite difference perturbation B field
   LLRAUG    =     F  two centre corrections for induced B field



--------------------------------------------------------------------------------------------------------


 quasi-Newton-method for relaxation of ions
 charge density and potential will be updated during run
 spin polarized calculation
 Variant of blocked Davidson
 Davidson routine will perform the subspace rotation
 perform sub-space diagonalisation
    after iterative eigenvector-optimisation
 modified Broyden-mixing scheme, WC =      100.0
 initial mixing is a Kerker type mixing with AMIX =  0.4000 and BMIX =      1.0000
 Hartree-type preconditioning will be used
 using additional bands           62
 real space projection scheme for non local part
 use partial core corrections
 calculate Harris-corrections to forces 
   (improved forces if not selfconsistent)
 use gradient corrections 
 use of overlap-Matrix (Vanderbilt PP)
 Gauss-broadening in eV      SIGMA  =   0.05


--------------------------------------------------------------------------------------------------------


  energy-cutoff  :      500.00
  volume of cell :      488.24
      direct lattice vectors                 reciprocal lattice vectors
     0.000000000  3.958744067  3.958744067     0.062802971  0.062802971  0.189802397
     3.958744067 -3.958744067  0.000000000     0.157704169 -0.094901198  0.094901198
    11.704370769 11.704370769 -7.745626702     0.032098228  0.032098228 -0.032098228

  length of vectors
     5.598509550  5.598509550 18.275101181     0.209555186  0.207082302  0.055595761


 
 k-points in units of 2pi/SCALE and weight: Automatic mesh                          
   0.00000000  0.00000000  0.00000000       1.000
 
 k-points in reciprocal lattice and weights: Automatic mesh                          
   0.00000000  0.00000000  0.00000000       1.000
 
 position of ions in fractional coordinates (direct lattice) 
   0.93887698  0.46943849  0.09168454
   0.99997329  0.99998664  0.99864123
   0.49843340  0.24921670  0.25119444
   0.99996499  0.49998249  0.50015989
   0.49995847  0.74997923  0.74973228
   0.50137212  0.99998664  0.99864123
   0.99958887  0.24921670  0.25119444
   0.49985761  0.49998249  0.50015989
   0.00028849  0.74997923  0.74973228
   0.50137212  0.50138548  0.99864123
   0.99958887  0.75037217  0.25119444
   0.49985761  0.99987512  0.50015989
   0.00028849  0.25030925  0.74973228
   0.24893174  0.12446587  0.12660239
   0.74948886  0.37474443  0.37576671
   0.25004185  0.62502093  0.62493722
   0.75050670  0.87525335  0.87423995
   0.90829632  0.95414816  0.19272524
   0.40888157  0.20444079  0.44187372
   0.90929119  0.45464560  0.69150659
   0.40776329  0.70388165  0.94095579
   0.35312661  0.95414816  0.19272524
   0.85368550  0.20444079  0.44187372
   0.35384782  0.45464560  0.69150659
   0.85516257  0.70388165  0.94095579
   0.35312661  0.39897845  0.19272524
   0.85368550  0.64924472  0.44187372
   0.35384782  0.89920222  0.69150659
   0.85516257  0.15128093  0.94095579
   0.63436911  0.81718455  0.04844635
   0.13250880  0.06625440  0.30123681
   0.63356207  0.31678103  0.54965691
   0.13377834  0.56688917  0.79933251
   0.59099734  0.29549867  0.05780338
   0.09048738  0.54524369  0.30904744
   0.59043558  0.79521779  0.55849081
   0.09047326  0.04523663  0.80824440
   0.14669794  0.29549867  0.05780338
   0.64570886  0.54524369  0.30904744
   0.14629139  0.79521779  0.55849081
   0.64651896  0.04523663  0.80824440
   0.14669794  0.85119927  0.05780338
   0.64570886  0.10046517  0.30904744
   0.14629139  0.35107359  0.55849081
   0.64651896  0.60128233  0.80824440
   0.36720756  0.18360378  0.94918866
   0.86620162  0.43310081  0.20069756
   0.36628770  0.68314385  0.45056845
   0.86648911  0.93324456  0.70026632
 
 position of ions in cartesian coordinates  (Angst):
   2.93149669  2.93149669  3.00661945
  15.64715840 11.68841437 -3.77646385
   3.92665799  3.92665799  0.02751190
   7.83335951  7.83335955  0.08455367
  11.74412041  7.78537638 -3.82793874
  15.64715840  9.71457995 -5.75029827
   3.92665799  5.91060424  2.01145815
   7.83335951  5.85356243 -1.89524345
  11.74412041  5.80731081 -5.80600431
  13.67332402 11.68841433 -5.75029827
   5.91060424  3.92665799  2.01145815
   9.81230650  3.87461545 -1.89524345
   9.76605484  7.78537638 -5.80600431
   1.97452984  1.97452984  0.00484220
   5.88163019  5.88163019  0.05648592
   9.78879483  5.83005072 -3.85067873
  13.69733252  9.73858846 -3.80047235
   6.03295603  2.07421197  2.10293490
   5.98118262  5.98118258 -1.80393139
   9.89347509  9.89347505 -1.75650080
  13.79978275  9.84103864 -5.67406179
   6.03295603 -0.12356283 -0.09483989
   5.98118262  7.74204750 -0.04306648
   9.89347509  7.69461690 -3.95535895
  13.79978275 11.61217789 -3.90292254
   3.83518124  2.07421197 -0.09483989
   7.74204754  5.98118258 -0.04306648
  11.65336097  5.93473102 -3.95535895
  11.61217793 13.79978271 -3.90292254
   3.80205853 -0.15668550  2.13605761
   3.78807153  3.78807153 -1.80869945
   7.68744329  7.68744333 -1.74932715
  11.59985320  7.64110914 -5.66173702
   1.84635580  1.84635580  1.89188381
   5.77568605  1.81694198 -2.03554972
   9.68484722  5.72610315 -1.98847798
   9.63907237  9.63907237 -5.90219892
   1.84635580  0.08748818  0.13301620
   5.77568605  4.01492172  0.16243002
   9.68484722  3.96784998 -3.74673116
   9.63907237 11.84031499 -3.70095631
   4.04623225 -2.11238827  0.13301620
   4.01492172  5.77568605  0.16243002
   7.92659400  5.72610319 -3.74673116
  11.84031499  9.63907237 -3.70095631
  11.83649638 11.83649638 -5.89838028
   4.06357392  4.06357392  1.87454214
   7.97801186  4.01926779 -2.03989576
  11.89065301  7.93190890 -1.99379288
 


--------------------------------------------------------------------------------------------------------


 use serial FFT for orbitals x direction half grid
 k-point  1 :   0.0000 0.0000 0.0000  plane waves:    6213

 maximum and minimum number of plane-waves per node :      6213     6213

 maximum number of plane-waves:      6213
 maximum index in each direction: 
   IXMAX=   10   IYMAX=    8   IZMAX=   33
   IXMIN=    0   IYMIN=  -10   IZMIN=  -32

 The following grids will avoid any aliasing or wrap around errors in the Hartre
 e energy
  - symmetry arguments have not been applied
  - exchange correlation energies might require even more grid points
  - we recommend to set PREC=Normal or Accurate and rely on VASP defaults
 NGX is ok and might be reduce to    42
 NGY is ok and might be reduce to    40
 NGZ is ok and might be reduce to   140

 serial   3D FFT for wavefunctions
 parallel 3D FFT for charge:
    minimum data exchange during FFTs selected (reduces bandwidth)


 total amount of memory used by VASP MPI-rank0    94738. kBytes
=======================================================================

   base      :      30000. kBytes
   nonlr-proj:      22938. kBytes
   fftplans  :       5613. kBytes
   grid      :      32304. kBytes
   one-center:        762. kBytes
   wavefun   :       3121. kBytes
 
     INWAV:  cpu time    0.0000: real time    0.0000
 Broyden mixing: mesh for mixing (old mesh)
   NGX = 21   NGY = 21   NGZ = 67
  (NGX  = 84   NGY  = 84   NGZ  =280)
  gives a total of  29547 points

 initial charge density was supplied:
 charge density of overlapping atoms calculated
 number of electron     355.0000000 magnetization      40.0000000
 keeping initial charge density in first step


--------------------------------------------------------------------------------------------------------


 Maximum index for non-local projection operator         6594
 Maximum index for augmentation-charges         1450 (set IRDMAX)


--------------------------------------------------------------------------------------------------------


 First call to EWALD:  gamma=   0.225
 Maximum number of real-space cells 4x 4x 1
 Maximum number of reciprocal cells 2x 2x 6

    FEWALD:  cpu time    0.0034: real time    0.0034


--------------------------------------- Iteration      1(   1)  ---------------------------------------


    POTLOK:  cpu time    0.1562: real time    0.1989
    SETDIJ:  cpu time    0.0177: real time    0.0178
     EDDAV:  cpu time    1.4811: real time    1.5287
    --------------------------------------------
      LOOP:  cpu time    1.6555: real time    1.7459

 eigenvalue-minimisations  :   960
 total energy-change (2. order) : 0.6300421E+04  (-0.1612423E+05)
 number of electron     355.0000000 magnetization      40.0000000
 augmentation part      355.0000000 magnetization      40.0000000

 Free energy of the ion-electron system (eV)
  ---------------------------------------------------
  alpha Z        PSCENC =      1137.73380465
  Ewald energy   TEWEN  =    -20807.74408200
  -Hartree energ DENC   =    -11404.11449025
  -exchange      EXHF   =         0.00000000
  -V(xc)+E(xc)   XCENC  =      1437.65439344
  PAW double counting   =     26543.64569607   -27674.53148738
  entropy T*S    EENTRO =        -0.02738603
  eigenvalues    EBANDS =      5853.11439367
  atomic energy  EATOM  =     31214.68969437
  Solvation  Ediel_sol  =         0.00000000
  ---------------------------------------------------
  free energy    TOTEN  =      6300.42053655 eV

  energy without entropy =     6300.44792258  energy(sigma->0) =     6300.43422956


--------------------------------------------------------------------------------------------------------




--------------------------------------- Iteration      1(   2)  ---------------------------------------


     EDDAV:  cpu time    1.8871: real time    1.8916
    --------------------------------------------
      LOOP:  cpu time    1.8870: real time    1.8915

 eigenvalue-minimisations  :  1008
 total energy-change (2. order) :-0.5085948E+04  (-0.4518816E+04)
 number of electron     355.0000000 magnetization      40.0000000
 augmentation part      355.0000000 magnetization      40.0000000

 Free energy of the ion-electron system (eV)
  ---------------------------------------------------
  alpha Z        PSCENC =      1137.73380465
  Ewald energy   TEWEN  =    -20807.74408200
  -Hartree energ DENC   =    -11404.11449025
  -exchange      EXHF   =         0.00000000
  -V(xc)+E(xc)   XCENC  =      1437.65439344
  PAW double counting   =     26543.64569607   -27674.53148738
  entropy T*S    EENTRO =        -0.02880908
  eigenvalues    EBANDS =       767.16794208
  atomic energy  EATOM  =     31214.68969437
  Solvation  Ediel_sol  =         0.00000000
  ---------------------------------------------------
  free energy    TOTEN  =      1214.47266191 eV

  energy without entropy =     1214.50147099  energy(sigma->0) =     1214.48706645


--------------------------------------------------------------------------------------------------------




--------------------------------------- Iteration      1(   3)  ---------------------------------------


     EDDAV:  cpu time    1.7323: real time    1.7364
    --------------------------------------------
      LOOP:  cpu time    1.7322: real time    1.7364

 eigenvalue-minimisations  :  1120
 total energy-change (2. order) :-0.1417014E+04  (-0.1168581E+04)
 number of electron     355.0000000 magnetization      40.0000000
 augmentation part      355.0000000 magnetization      40.0000000

 Free energy of the ion-electron system (eV)
  ---------------------------------------------------
  alpha Z        PSCENC =      1137.73380465
  Ewald energy   TEWEN  =    -20807.74408200
  -Hartree energ DENC   =    -11404.11449025
  -exchange      EXHF   =         0.00000000
  -V(xc)+E(xc)   XCENC  =      1437.65439344
  PAW double counting   =     26543.64569607   -27674.53148738
  entropy T*S    EENTRO =        -0.10895707
  eigenvalues    EBANDS =      -649.76556434
  atomic energy  EATOM  =     31214.68969437
  Solvation  Ediel_sol  =         0.00000000
  ---------------------------------------------------
  free energy    TOTEN  =      -202.54099250 eV

  energy without entropy =     -202.43203543  energy(sigma->0) =     -202.48651397


--------------------------------------------------------------------------------------------------------




--------------------------------------- Iteration      1(   4)  ---------------------------------------


     EDDAV:  cpu time    1.8375: real time    1.8419
    --------------------------------------------
      LOOP:  cpu time    1.8376: real time    1.8420

 eigenvalue-minimisations  :  1152
 total energy-change (2. order) :-0.2069906E+03  (-0.2003668E+03)
 number of electron     355.0000000 magnetization      40.0000000
 augmentation part      355.0000000 magnetization      40.0000000

 Free energy of the ion-electron system (eV)
  ---------------------------------------------------
  alpha Z        PSCENC =      1137.73380465
  Ewald energy   TEWEN  =    -20807.74408200
  -Hartree energ DENC   =    -11404.11449025
  -exchange      EXHF   =         0.00000000
  -V(xc)+E(xc)   XCENC  =      1437.65439344
  PAW double counting   =     26543.64569607   -27674.53148738
  entropy T*S    EENTRO =        -0.16980659
  eigenvalues    EBANDS =      -856.69528024
  atomic energy  EATOM  =     31214.68969437
  Solvation  Ediel_sol  =         0.00000000
  ---------------------------------------------------
  free energy    TOTEN  =      -409.53155792 eV

  energy without entropy =     -409.36175133  energy(sigma->0) =     -409.44665462


--------------------------------------------------------------------------------------------------------




--------------------------------------- Iteration      1(   5)  ---------------------------------------


     EDDAV:  cpu time    1.8328: real time    1.8372
    CHARGE:  cpu time    0.1352: real time    0.1356
    MIXING:  cpu time    0.0028: real time    0.0029
    --------------------------------------------
      LOOP:  cpu time    1.9706: real time    1.9754

 eigenvalue-minimisations  :  1184
 total energy-change (2. order) :-0.6514113E+01  (-0.6475387E+01)
 number of electron     355.0000053 magnetization      37.3752488
 augmentation part      102.0672472 magnetization      32.2986103

 Broyden mixing:
  rms(total) = 0.12267E+02    rms(broyden)= 0.12266E+02
  rms(prec ) = 0.13228E+02
  weight for this iteration     100.00

 Free energy of the ion-electron system (eV)
  ---------------------------------------------------
  alpha Z        PSCENC =      1137.73380465
  Ewald energy   TEWEN  =    -20807.74408200
  -Hartree energ DENC   =    -11404.11449025
  -exchange      EXHF   =         0.00000000
  -V(xc)+E(xc)   XCENC  =      1437.65439344
  PAW double counting   =     26543.64569607   -27674.53148738
  entropy T*S    EENTRO =        -0.16796840
  eigenvalues    EBANDS =      -863.21123163
  atomic energy  EATOM  =     31214.68969437
  Solvation  Ediel_sol  =         0.00000000
  ---------------------------------------------------
  free energy    TOTEN  =      -416.04567113 eV

  energy without entropy =     -415.87770273  energy(sigma->0) =     -415.96168693


--------------------------------------------------------------------------------------------------------




--------------------------------------- Iteration      1(   6)  ---------------------------------------


    POTLOK:  cpu time    0.1365: real time    0.1368
    SETDIJ:  cpu time    0.0182: real time    0.0182
     EDDAV:  cpu time    2.1652: real time    2.1704
    CHARGE:  cpu time    0.2070: real time    0.2075
    MIXING:  cpu time    0.0050: real time    0.0050
    --------------------------------------------
      LOOP:  cpu time    2.5320: real time    2.5380

 eigenvalue-minimisations  :  1408
 total energy-change (2. order) :-0.2594902E+03  (-0.1538497E+03)
 number of electron     355.0000096 magnetization      36.5730644
 augmentation part      132.0741076 magnetization      34.6909893

 Broyden mixing:
  rms(total) = 0.26916E+02    rms(broyden)= 0.26915E+02
  rms(prec ) = 0.31100E+02
  weight for this iteration     100.00

 eigenvalues of (default mixing * dielectric matrix)
  average eigenvalue GAMMA=   0.1070
  0.1070

 Free energy of the ion-electron system (eV)
  ---------------------------------------------------
  alpha Z        PSCENC =      1137.73380465
  Ewald energy   TEWEN  =    -20807.74408200
  -Hartree energ DENC   =    -10823.21893902
  -exchange      EXHF   =         0.00000000
  -V(xc)+E(xc)   XCENC  =      1433.70800910
  PAW double counting   =     29512.70439769   -30457.59348339
  entropy T*S    EENTRO =        -0.02599625
  eigenvalues    EBANDS =     -1885.78924040
  atomic energy  EATOM  =     31214.68969437
  Solvation  Ediel_sol  =         0.00000000
  ---------------------------------------------------
  free energy    TOTEN  =      -675.53583524 eV

  energy without entropy =     -675.50983899  energy(sigma->0) =     -675.52283712


--------------------------------------------------------------------------------------------------------




--------------------------------------- Iteration      1(   7)  ---------------------------------------


    POTLOK:  cpu time    0.1403: real time    0.1406
    SETDIJ:  cpu time    0.0223: real time    0.0223
     EDDAV:  cpu time    2.0302: real time    2.0350
    CHARGE:  cpu time    0.1741: real time    0.1745
    MIXING:  cpu time    0.0039: real time    0.0040
    --------------------------------------------
      LOOP:  cpu time    2.3708: real time    2.3764

 eigenvalue-minimisations  :  1248
 total energy-change (2. order) : 0.2217820E+03  (-0.3657405E+02)
 number of electron     355.0000077 magnetization      34.8756081
 augmentation part      134.2987874 magnetization      30.5825793

 Broyden mixing:
  rms(total) = 0.14581E+02    rms(broyden)= 0.14579E+02
  rms(prec ) = 0.15513E+02
  weight for this iteration     100.00

 eigenvalues of (default mixing * dielectric matrix)
  average eigenvalue GAMMA=   0.2824
  0.2824  0.2824

 Free energy of the ion-electron system (eV)
  ---------------------------------------------------
  alpha Z        PSCENC =      1137.73380465
  Ewald energy   TEWEN  =    -20807.74408200
  -Hartree energ DENC   =    -10888.14588306
  -exchange      EXHF   =         0.00000000
  -V(xc)+E(xc)   XCENC  =      1434.58974964
  PAW double counting   =     30127.72334598   -31117.42645877
  entropy T*S    EENTRO =        -0.04756190
  eigenvalues    EBANDS =     -1555.12646639
  atomic energy  EATOM  =     31214.68969437
  Solvation  Ediel_sol  =         0.00000000
  ---------------------------------------------------
  free energy    TOTEN  =      -453.75385748 eV

  energy without entropy =     -453.70629558  energy(sigma->0) =     -453.73007653


--------------------------------------------------------------------------------------------------------




--------------------------------------- Iteration      1(   8)  ---------------------------------------


    POTLOK:  cpu time    0.1455: real time    0.1459
    SETDIJ:  cpu time    0.0181: real time    0.0182
     EDDAV:  cpu time    2.3436: real time    2.3492
    CHARGE:  cpu time    0.1311: real time    0.1314
    MIXING:  cpu time    0.0030: real time    0.0031
    --------------------------------------------
      LOOP:  cpu time    2.6413: real time    2.6476

 eigenvalue-minimisations  :  1456
 total energy-change (2. order) :-0.1568495E+03  (-0.4688278E+02)
 number of electron     355.0000088 magnetization      32.7809271
 augmentation part      117.9000832 magnetization      28.9239190

 Broyden mixing:
  rms(total) = 0.18250E+02    rms(broyden)= 0.18249E+02
  rms(prec ) = 0.25434E+02
  weight for this iteration     100.00

 eigenvalues of (default mixing * dielectric matrix)
  average eigenvalue GAMMA=   0.3954
  0.5287  0.5287  0.1289

 Free energy of the ion-electron system (eV)
  ---------------------------------------------------
  alpha Z        PSCENC =      1137.73380465
  Ewald energy   TEWEN  =    -20807.74408200
  -Hartree energ DENC   =    -11116.19688204
  -exchange      EXHF   =         0.00000000
  -V(xc)+E(xc)   XCENC  =      1433.88249646
  PAW double counting   =     31299.45798528   -32416.89811825
  entropy T*S    EENTRO =        -0.04410383
  eigenvalues    EBANDS =     -1355.48415486
  atomic energy  EATOM  =     31214.68969437
  Solvation  Ediel_sol  =         0.00000000
  ---------------------------------------------------
  free energy    TOTEN  =      -610.60336023 eV

  energy without entropy =     -610.55925639  energy(sigma->0) =     -610.58130831


--------------------------------------------------------------------------------------------------------




--------------------------------------- Iteration      1(   9)  ---------------------------------------


    POTLOK:  cpu time    0.1294: real time    0.1297
    SETDIJ:  cpu time    0.0183: real time    0.0184
     EDDAV:  cpu time    1.9555: real time    1.9601
    CHARGE:  cpu time    0.1311: real time    0.1314
    MIXING:  cpu time    0.0031: real time    0.0031
    --------------------------------------------
      LOOP:  cpu time    2.2374: real time    2.2427

 eigenvalue-minimisations  :  1392
 total energy-change (2. order) : 0.1892565E+03  (-0.5466905E+02)
 number of electron     355.0000072 magnetization      31.6206863
 augmentation part      118.4209746 magnetization      25.6920188

 Broyden mixing:
  rms(total) = 0.14519E+02    rms(broyden)= 0.14518E+02
  rms(prec ) = 0.19083E+02
  weight for this iteration     100.00

 eigenvalues of (default mixing * dielectric matrix)
  average eigenvalue GAMMA=   0.3808
  0.6011  0.6011  0.1279  0.1932

 Free energy of the ion-electron system (eV)
  ---------------------------------------------------
  alpha Z        PSCENC =      1137.73380465
  Ewald energy   TEWEN  =    -20807.74408200
  -Hartree energ DENC   =    -11113.54400986
  -exchange      EXHF   =         0.00000000
  -V(xc)+E(xc)   XCENC  =      1435.67777063
  PAW double counting   =     32045.00179996   -33194.36280369
  entropy T*S    EENTRO =        -0.05924264
  eigenvalues    EBANDS =     -1138.73974336
  atomic energy  EATOM  =     31214.68969437
  Solvation  Ediel_sol  =         0.00000000
  ---------------------------------------------------
  free energy    TOTEN  =      -421.34681193 eV

  energy without entropy =     -421.28756929  energy(sigma->0) =     -421.31719061


--------------------------------------------------------------------------------------------------------




--------------------------------------- Iteration      1(  10)  ---------------------------------------


    POTLOK:  cpu time    0.1290: real time    0.1293
    SETDIJ:  cpu time    0.0181: real time    0.0182
     EDDAV:  cpu time    1.9164: real time    1.9210
    CHARGE:  cpu time    0.1334: real time    0.1337
    MIXING:  cpu time    0.0034: real time    0.0034
    --------------------------------------------
      LOOP:  cpu time    2.2003: real time    2.2055

 eigenvalue-minimisations  :  1360
 total energy-change (2. order) :-0.2984803E+02  (-0.5837590E+02)
 number of electron     355.0000042 magnetization      30.0342827
 augmentation part      108.7009388 magnetization      24.6349329

 Broyden mixing:
  rms(total) = 0.17597E+02    rms(broyden)= 0.17596E+02
  rms(prec ) = 0.21828E+02
  weight for this iteration     100.00

 eigenvalues of (default mixing * dielectric matrix)
  average eigenvalue GAMMA=   0.3355
  0.6206  0.6206  0.2349  0.1008  0.1008

 Free energy of the ion-electron system (eV)
  ---------------------------------------------------
  alpha Z        PSCENC =      1137.73380465
  Ewald energy   TEWEN  =    -20807.74408200
  -Hartree energ DENC   =    -11129.60032934
  -exchange      EXHF   =         0.00000000
  -V(xc)+E(xc)   XCENC  =      1436.91309040
  PAW double counting   =     32607.45754370   -33778.48082511
  entropy T*S    EENTRO =        -0.01849428
  eigenvalues    EBANDS =     -1132.14523941
  atomic energy  EATOM  =     31214.68969437
  Solvation  Ediel_sol  =         0.00000000
  ---------------------------------------------------
  free energy    TOTEN  =      -451.19483703 eV

  energy without entropy =     -451.17634275  energy(sigma->0) =     -451.18558989


--------------------------------------------------------------------------------------------------------




--------------------------------------- Iteration      1(  11)  ---------------------------------------


    POTLOK:  cpu time    0.1293: real time    0.1296
    SETDIJ:  cpu time    0.0183: real time    0.0183
     EDDAV:  cpu time    2.0253: real time    2.0301
    CHARGE:  cpu time    0.1715: real time    0.1719
    MIXING:  cpu time    0.0045: real time    0.0045
    --------------------------------------------
      LOOP:  cpu time    2.3489: real time    2.3545

 eigenvalue-minimisations  :  1328
 total energy-change (2. order) : 0.6782605E+02  (-0.2226835E+02)
 number of electron     355.0000053 magnetization      29.0359411
 augmentation part      110.2437220 magnetization      23.4859233

 Broyden mixing:
  rms(total) = 0.14544E+02    rms(broyden)= 0.14544E+02
  rms(prec ) = 0.17820E+02
  weight for this iteration     100.00

 eigenvalues of (default mixing * dielectric matrix)
  average eigenvalue GAMMA=   0.3198
  0.8752  0.4634  0.1868  0.1387  0.1387  0.1162

 Free energy of the ion-electron system (eV)
  ---------------------------------------------------
  alpha Z        PSCENC =      1137.73380465
  Ewald energy   TEWEN  =    -20807.74408200
  -Hartree energ DENC   =    -11119.61014552
  -exchange      EXHF   =         0.00000000
  -V(xc)+E(xc)   XCENC  =      1439.07855929
  PAW double counting   =     33398.64338610   -34590.31978989
  entropy T*S    EENTRO =        -0.05607501
  eigenvalues    EBANDS =     -1055.78413913
  atomic energy  EATOM  =     31214.68969437
  Solvation  Ediel_sol  =         0.00000000
  ---------------------------------------------------
  free energy    TOTEN  =      -383.36878715 eV

  energy without entropy =     -383.31271214  energy(sigma->0) =     -383.34074964


--------------------------------------------------------------------------------------------------------




--------------------------------------- Iteration      1(  12)  ---------------------------------------


    POTLOK:  cpu time    0.1478: real time    0.1482
    SETDIJ:  cpu time    0.0216: real time    0.0216
     EDDAV:  cpu time    1.9100: real time    1.9145
    CHARGE:  cpu time    0.1327: real time    0.1330
    MIXING:  cpu time    0.0037: real time    0.0037
    --------------------------------------------
      LOOP:  cpu time    2.2158: real time    2.2210

 eigenvalue-minimisations  :  1264
 total energy-change (2. order) : 0.2712650E+02  (-0.1567185E+02)
 number of electron     355.0000048 magnetization      26.9601972
 augmentation part      112.2099295 magnetization      20.0894594

 Broyden mixing:
  rms(total) = 0.13163E+02    rms(broyden)= 0.13162E+02
  rms(prec ) = 0.16502E+02
  weight for this iteration     100.00

 eigenvalues of (default mixing * dielectric matrix)
  average eigenvalue GAMMA=   0.3809
  1.2553  0.4799  0.3096  0.3096  0.1198  0.1198  0.0725

 Free energy of the ion-electron system (eV)
  ---------------------------------------------------
  alpha Z        PSCENC =      1137.73380465
  Ewald energy   TEWEN  =    -20807.74408200
  -Hartree energ DENC   =    -11113.14636025
  -exchange      EXHF   =         0.00000000
  -V(xc)+E(xc)   XCENC  =      1440.27186480
  PAW double counting   =     33845.79475629   -35048.11330521
  entropy T*S    EENTRO =        -0.03097363
  eigenvalues    EBANDS =     -1025.69768432
  atomic energy  EATOM  =     31214.68969437
  Solvation  Ediel_sol  =         0.00000000
  ---------------------------------------------------
  free energy    TOTEN  =      -356.24228529 eV

  energy without entropy =     -356.21131166  energy(sigma->0) =     -356.22679847


--------------------------------------------------------------------------------------------------------




--------------------------------------- Iteration      1(  13)  ---------------------------------------


    POTLOK:  cpu time    0.1292: real time    0.1296
    SETDIJ:  cpu time    0.0181: real time    0.0182
     EDDAV:  cpu time    2.1237: real time    2.1287
    CHARGE:  cpu time    0.1305: real time    0.1308
    MIXING:  cpu time    0.0037: real time    0.0037
    --------------------------------------------
      LOOP:  cpu time    2.4052: real time    2.4110

 eigenvalue-minimisations  :  1312
 total energy-change (2. order) :-0.1564715E+02  (-0.2482678E+02)
 number of electron     355.0000069 magnetization      24.9159277
 augmentation part      111.5206077 magnetization      19.4303074

 Broyden mixing:
  rms(total) = 0.14184E+02    rms(broyden)= 0.14184E+02
  rms(prec ) = 0.17608E+02
  weight for this iteration     100.00

 eigenvalues of (default mixing * dielectric matrix)
  average eigenvalue GAMMA=   0.3929
  1.5363  0.4425  0.3543  0.3543  0.1457  0.1221  0.1221  0.0659

 Free energy of the ion-electron system (eV)
  ---------------------------------------------------
  alpha Z        PSCENC =      1137.73380465
  Ewald energy   TEWEN  =    -20807.74408200
  -Hartree energ DENC   =    -11114.39081666
  -exchange      EXHF   =         0.00000000
  -V(xc)+E(xc)   XCENC  =      1441.78123914
  PAW double counting   =     34572.06660588   -35788.82285933
  entropy T*S    EENTRO =        -0.03225248
  eigenvalues    EBANDS =     -1027.17077228
  atomic energy  EATOM  =     31214.68969437
  Solvation  Ediel_sol  =         0.00000000
  ---------------------------------------------------
  free energy    TOTEN  =      -371.88943871 eV

  energy without entropy =     -371.85718623  energy(sigma->0) =     -371.87331247


--------------------------------------------------------------------------------------------------------




--------------------------------------- Iteration      1(  14)  ---------------------------------------


    POTLOK:  cpu time    0.1293: real time    0.1296
    SETDIJ:  cpu time    0.0182: real time    0.0182
     EDDAV:  cpu time    1.8711: real time    1.8755
    CHARGE:  cpu time    0.1330: real time    0.1333
    MIXING:  cpu time    0.0039: real time    0.0039
    --------------------------------------------
      LOOP:  cpu time    2.1554: real time    2.1605

 eigenvalue-minimisations  :  1312
 total energy-change (2. order) : 0.5308147E+02  (-0.1891333E+02)
 number of electron     355.0000077 magnetization      22.9989961
 augmentation part      116.8976583 magnetization      18.1391356

 Broyden mixing:
  rms(total) = 0.10135E+02    rms(broyden)= 0.10134E+02
  rms(prec ) = 0.13004E+02
  weight for this iteration     100.00

 eigenvalues of (default mixing * dielectric matrix)
  average eigenvalue GAMMA=   0.4057
  1.6406  0.5198  0.4138  0.4138  0.2240  0.1252  0.1252  0.1239  0.0648

 Free energy of the ion-electron system (eV)
  ---------------------------------------------------
  alpha Z        PSCENC =      1137.73380465
  Ewald energy   TEWEN  =    -20807.74408200
  -Hartree energ DENC   =    -11090.36611602
  -exchange      EXHF   =         0.00000000
  -V(xc)+E(xc)   XCENC  =      1444.88070758
  PAW double counting   =     35311.98591268   -36538.89426251
  entropy T*S    EENTRO =        -0.03739780
  eigenvalues    EBANDS =      -991.05623092
  atomic energy  EATOM  =     31214.68969437
  Solvation  Ediel_sol  =         0.00000000
  ---------------------------------------------------
  free energy    TOTEN  =      -318.80796998 eV

  energy without entropy =     -318.77057217  energy(sigma->0) =     -318.78927108


--------------------------------------------------------------------------------------------------------




--------------------------------------- Iteration      1(  15)  ---------------------------------------


    POTLOK:  cpu time    0.1291: real time    0.1294
    SETDIJ:  cpu time    0.0183: real time    0.0183
     EDDAV:  cpu time    1.8443: real time    1.8487
    CHARGE:  cpu time    0.1333: real time    0.1336
    MIXING:  cpu time    0.0041: real time    0.0041
    --------------------------------------------
      LOOP:  cpu time    2.1290: real time    2.1341

 eigenvalue-minimisations  :  1248
 total energy-change (2. order) : 0.1708237E+02  (-0.9664658E+01)
 number of electron     355.0000076 magnetization      22.6021126
 augmentation part      117.7952689 magnetization      17.9887205

 Broyden mixing:
  rms(total) = 0.86251E+01    rms(broyden)= 0.86247E+01
  rms(prec ) = 0.11128E+02
  weight for this iteration     100.00

 eigenvalues of (default mixing * dielectric matrix)
  average eigenvalue GAMMA=   0.3782
  1.6258  0.5154  0.4199  0.4199  0.1934  0.1934  0.1256  0.1122  0.1122  0.0646

 Free energy of the ion-electron system (eV)
  ---------------------------------------------------
  alpha Z        PSCENC =      1137.73380465
  Ewald energy   TEWEN  =    -20807.74408200
  -Hartree energ DENC   =    -11085.74109667
  -exchange      EXHF   =         0.00000000
  -V(xc)+E(xc)   XCENC  =      1445.20983589
  PAW double counting   =     35745.60217145   -36978.03133701
  entropy T*S    EENTRO =        -0.06660055
  eigenvalues    EBANDS =      -973.37798572
  atomic energy  EATOM  =     31214.68969437
  Solvation  Ediel_sol  =         0.00000000
  ---------------------------------------------------
  free energy    TOTEN  =      -301.72559559 eV

  energy without entropy =     -301.65899504  energy(sigma->0) =     -301.69229532


--------------------------------------------------------------------------------------------------------




--------------------------------------- Iteration      1(  16)  ---------------------------------------


    POTLOK:  cpu time    0.1294: real time    0.1297
    SETDIJ:  cpu time    0.0182: real time    0.0182
     EDDAV:  cpu time    1.9481: real time    1.9527
    CHARGE:  cpu time    0.1678: real time    0.1682
    MIXING:  cpu time    0.0054: real time    0.0054
    --------------------------------------------
      LOOP:  cpu time    2.2688: real time    2.2742

 eigenvalue-minimisations  :  1232
 total energy-change (2. order) : 0.1872105E+02  (-0.4190999E+01)
 number of electron     355.0000077 magnetization      23.0766562
 augmentation part      118.7490245 magnetization      18.0409461

 Broyden mixing:
  rms(total) = 0.54105E+01    rms(broyden)= 0.54099E+01
  rms(prec ) = 0.63283E+01
  weight for this iteration     100.00

 eigenvalues of (default mixing * dielectric matrix)
  average eigenvalue GAMMA=   0.3520
  1.2771  0.6789  0.4062  0.4062  0.2663  0.2663  0.1350  0.1350  0.1180  0.1180
  0.0645

 Free energy of the ion-electron system (eV)
  ---------------------------------------------------
  alpha Z        PSCENC =      1137.73380465
  Ewald energy   TEWEN  =    -20807.74408200
  -Hartree energ DENC   =    -11091.14807633
  -exchange      EXHF   =         0.00000000
  -V(xc)+E(xc)   XCENC  =      1444.08564399
  PAW double counting   =     35779.68991614   -37012.61538940
  entropy T*S    EENTRO =        -0.03550146
  eigenvalues    EBANDS =      -947.66055996
  atomic energy  EATOM  =     31214.68969437
  Solvation  Ediel_sol  =         0.00000000
  ---------------------------------------------------
  free energy    TOTEN  =      -283.00455000 eV

  energy without entropy =     -282.96904854  energy(sigma->0) =     -282.98679927


--------------------------------------------------------------------------------------------------------




--------------------------------------- Iteration      1(  17)  ---------------------------------------


    POTLOK:  cpu time    0.1474: real time    0.1478
    SETDIJ:  cpu time    0.0217: real time    0.0217
     EDDAV:  cpu time    2.0069: real time    2.0117
    CHARGE:  cpu time    0.1341: real time    0.1344
    MIXING:  cpu time    0.0044: real time    0.0044
    --------------------------------------------
      LOOP:  cpu time    2.3145: real time    2.3200

 eigenvalue-minimisations  :  1312
 total energy-change (2. order) :-0.6438341E+00  (-0.1782703E+01)
 number of electron     355.0000072 magnetization      23.2147076
 augmentation part      116.6525807 magnetization      19.1299761

 Broyden mixing:
  rms(total) = 0.42796E+01    rms(broyden)= 0.42791E+01
  rms(prec ) = 0.50150E+01
  weight for this iteration     100.00

 eigenvalues of (default mixing * dielectric matrix)
  average eigenvalue GAMMA=   0.3400
  0.8973  0.8973  0.4213  0.4213  0.3426  0.3426  0.1675  0.1675  0.1300  0.1138
  0.1138  0.0646

 Free energy of the ion-electron system (eV)
  ---------------------------------------------------
  alpha Z        PSCENC =      1137.73380465
  Ewald energy   TEWEN  =    -20807.74408200
  -Hartree energ DENC   =    -11111.60000753
  -exchange      EXHF   =         0.00000000
  -V(xc)+E(xc)   XCENC  =      1441.16774553
  PAW double counting   =     35407.47428662   -36634.87539517
  entropy T*S    EENTRO =        -0.04194236
  eigenvalues    EBANDS =      -930.45248825
  atomic energy  EATOM  =     31214.68969437
  Solvation  Ediel_sol  =         0.00000000
  ---------------------------------------------------
  free energy    TOTEN  =      -283.64838414 eV

  energy without entropy =     -283.60644178  energy(sigma->0) =     -283.62741296


--------------------------------------------------------------------------------------------------------




--------------------------------------- Iteration      1(  18)  ---------------------------------------


    POTLOK:  cpu time    0.1294: real time    0.1297
    SETDIJ:  cpu time    0.0182: real time    0.0183
     EDDAV:  cpu time    2.0211: real time    2.0259
    CHARGE:  cpu time    0.1965: real time    0.1970
    MIXING:  cpu time    0.0058: real time    0.0059
    --------------------------------------------
      LOOP:  cpu time    2.3710: real time    2.3766

 eigenvalue-minimisations  :  1280
 total energy-change (2. order) :-0.1815485E+01  (-0.8736383E+00)
 number of electron     355.0000074 magnetization      22.9263564
 augmentation part      116.1593252 magnetization      19.2708477

 Broyden mixing:
  rms(total) = 0.35509E+01    rms(broyden)= 0.35505E+01
  rms(prec ) = 0.42057E+01
  weight for this iteration     100.00

 eigenvalues of (default mixing * dielectric matrix)
  average eigenvalue GAMMA=   0.3195
  0.8178  0.8178  0.4446  0.4446  0.3799  0.3799  0.1761  0.1761  0.1310  0.1135
  0.1135  0.0645  0.0946

 Free energy of the ion-electron system (eV)
  ---------------------------------------------------
  alpha Z        PSCENC =      1137.73380465
  Ewald energy   TEWEN  =    -20807.74408200
  -Hartree energ DENC   =    -11117.02219172
  -exchange      EXHF   =         0.00000000
  -V(xc)+E(xc)   XCENC  =      1438.41431813
  PAW double counting   =     35061.07885705   -36275.19370391
  entropy T*S    EENTRO =        -0.04919632
  eigenvalues    EBANDS =      -937.37136889
  atomic energy  EATOM  =     31214.68969437
  Solvation  Ediel_sol  =         0.00000000
  ---------------------------------------------------
  free energy    TOTEN  =      -285.46386865 eV

  energy without entropy =     -285.41467233  energy(sigma->0) =     -285.43927049


--------------------------------------------------------------------------------------------------------




--------------------------------------- Iteration      1(  19)  ---------------------------------------


    POTLOK:  cpu time    0.1491: real time    0.1495
    SETDIJ:  cpu time    0.0226: real time    0.0227
     EDDAV:  cpu time    1.8882: real time    1.8927
    CHARGE:  cpu time    0.1334: real time    0.1337
    MIXING:  cpu time    0.0047: real time    0.0047
    --------------------------------------------
      LOOP:  cpu time    2.1980: real time    2.2032

 eigenvalue-minimisations  :  1280
 total energy-change (2. order) : 0.2538256E+00  (-0.3342629E+00)
 number of electron     355.0000073 magnetization      22.3825316
 augmentation part      116.5470211 magnetization      18.9251971

 Broyden mixing:
  rms(total) = 0.29012E+01    rms(broyden)= 0.29011E+01
  rms(prec ) = 0.34763E+01
  weight for this iteration     100.00

 eigenvalues of (default mixing * dielectric matrix)
  average eigenvalue GAMMA=   0.3417
  0.7630  0.7630  0.6114  0.6114  0.3919  0.3919  0.2533  0.2533  0.1603  0.1603
  0.1284  0.1156  0.1156  0.0646

 Free energy of the ion-electron system (eV)
  ---------------------------------------------------
  alpha Z        PSCENC =      1137.73380465
  Ewald energy   TEWEN  =    -20807.74408200
  -Hartree energ DENC   =    -11114.60155153
  -exchange      EXHF   =         0.00000000
  -V(xc)+E(xc)   XCENC  =      1437.92579558
  PAW double counting   =     35071.90884134   -36282.78637714
  entropy T*S    EENTRO =        -0.01989370
  eigenvalues    EBANDS =      -942.31627459
  atomic energy  EATOM  =     31214.68969437
  Solvation  Ediel_sol  =         0.00000000
  ---------------------------------------------------
  free energy    TOTEN  =      -285.21004302 eV

  energy without entropy =     -285.19014932  energy(sigma->0) =     -285.20009617


--------------------------------------------------------------------------------------------------------




--------------------------------------- Iteration      1(  20)  ---------------------------------------


    POTLOK:  cpu time    0.1296: real time    0.1299
    SETDIJ:  cpu time    0.0182: real time    0.0183
     EDDAV:  cpu time    1.9678: real time    1.9725
    CHARGE:  cpu time    0.1337: real time    0.1340
    MIXING:  cpu time    0.0050: real time    0.0050
    --------------------------------------------
      LOOP:  cpu time    2.2543: real time    2.2596

 eigenvalue-minimisations  :  1232
 total energy-change (2. order) : 0.1453435E+00  (-0.1242902E+00)
 number of electron     355.0000073 magnetization      21.9081875
 augmentation part      116.3991709 magnetization      19.5560654

 Broyden mixing:
  rms(total) = 0.25292E+01    rms(broyden)= 0.25290E+01
  rms(prec ) = 0.29119E+01
  weight for this iteration     100.00

 eigenvalues of (default mixing * dielectric matrix)
  average eigenvalue GAMMA=   0.3512
  0.7397  0.7397  0.7357  0.7357  0.3960  0.3960  0.2927  0.2927  0.1885  0.1885
  0.1156  0.1156  0.1394  0.1281  0.0646

 Free energy of the ion-electron system (eV)
  ---------------------------------------------------
  alpha Z        PSCENC =      1137.73380465
  Ewald energy   TEWEN  =    -20807.74408200
  -Hartree energ DENC   =    -11118.46510596
  -exchange      EXHF   =         0.00000000
  -V(xc)+E(xc)   XCENC  =      1437.40801953
  PAW double counting   =     35017.39034095   -36222.48025769
  entropy T*S    EENTRO =        -0.03624120
  eigenvalues    EBANDS =      -943.56087216
  atomic energy  EATOM  =     31214.68969437
  Solvation  Ediel_sol  =         0.00000000
  ---------------------------------------------------
  free energy    TOTEN  =      -285.06469952 eV

  energy without entropy =     -285.02845832  energy(sigma->0) =     -285.04657892


--------------------------------------------------------------------------------------------------------




--------------------------------------- Iteration      1(  21)  ---------------------------------------


    POTLOK:  cpu time    0.1297: real time    0.1300
    SETDIJ:  cpu time    0.0183: real time    0.0184
     EDDAV:  cpu time    2.0397: real time    2.0445
    CHARGE:  cpu time    0.1340: real time    0.1343
    MIXING:  cpu time    0.0051: real time    0.0051
    --------------------------------------------
      LOOP:  cpu time    2.3268: real time    2.3324

 eigenvalue-minimisations  :  1360
 total energy-change (2. order) : 0.8270354E+00  (-0.4598878E-01)
 number of electron     355.0000072 magnetization      21.7553845
 augmentation part      116.4690197 magnetization      20.0951113

 Broyden mixing:
  rms(total) = 0.21593E+01    rms(broyden)= 0.21592E+01
  rms(prec ) = 0.23852E+01
  weight for this iteration     100.00

 eigenvalues of (default mixing * dielectric matrix)
  average eigenvalue GAMMA=   0.3341
  0.7425  0.7425  0.7251  0.7251  0.3906  0.3906  0.2960  0.2960  0.1772  0.1772
  0.0646  0.1160  0.1160  0.1278  0.1292  0.1292

 Free energy of the ion-electron system (eV)
  ---------------------------------------------------
  alpha Z        PSCENC =      1137.73380465
  Ewald energy   TEWEN  =    -20807.74408200
  -Hartree energ DENC   =    -11119.97541765
  -exchange      EXHF   =         0.00000000
  -V(xc)+E(xc)   XCENC  =      1437.56053669
  PAW double counting   =     34987.01440824   -36188.77753077
  entropy T*S    EENTRO =        -0.04991562
  eigenvalues    EBANDS =      -944.68916208
  atomic energy  EATOM  =     31214.68969437
  Solvation  Ediel_sol  =         0.00000000
  ---------------------------------------------------
  free energy    TOTEN  =      -284.23766416 eV

  energy without entropy =     -284.18774854  energy(sigma->0) =     -284.21270635


--------------------------------------------------------------------------------------------------------




--------------------------------------- Iteration      1(  22)  ---------------------------------------


    POTLOK:  cpu time    0.1294: real time    0.1297
    SETDIJ:  cpu time    0.0182: real time    0.0182
     EDDAV:  cpu time    1.9383: real time    1.9429
    CHARGE:  cpu time    0.1670: real time    0.1674
    MIXING:  cpu time    0.0066: real time    0.0066
    --------------------------------------------
      LOOP:  cpu time    2.2595: real time    2.2649

 eigenvalue-minimisations  :  1216
 total energy-change (2. order) : 0.3529497E+00  (-0.1730865E-01)
 number of electron     355.0000072 magnetization      21.6490417
 augmentation part      116.5122761 magnetization      20.0895551

 Broyden mixing:
  rms(total) = 0.21274E+01    rms(broyden)= 0.21274E+01
  rms(prec ) = 0.23303E+01
  weight for this iteration     100.00

 eigenvalues of (default mixing * dielectric matrix)
  average eigenvalue GAMMA=   0.3649
  0.7524  0.7524  0.7478  0.7478  0.4179  0.4179  0.4000  0.4000  0.2828  0.2828
  0.2475  0.1794  0.1510  0.1156  0.1156  0.1282  0.0646

 Free energy of the ion-electron system (eV)
  ---------------------------------------------------
  alpha Z        PSCENC =      1137.73380465
  Ewald energy   TEWEN  =    -20807.74408200
  -Hartree energ DENC   =    -11120.24867696
  -exchange      EXHF   =         0.00000000
  -V(xc)+E(xc)   XCENC  =      1437.74765753
  PAW double counting   =     34989.04781365   -36190.45840643
  entropy T*S    EENTRO =        -0.03549036
  eigenvalues    EBANDS =      -944.61702896
  atomic energy  EATOM  =     31214.68969437
  Solvation  Ediel_sol  =         0.00000000
  ---------------------------------------------------
  free energy    TOTEN  =      -283.88471450 eV

  energy without entropy =     -283.84922414  energy(sigma->0) =     -283.86696932


--------------------------------------------------------------------------------------------------------




--------------------------------------- Iteration      1(  23)  ---------------------------------------


    POTLOK:  cpu time    0.1484: real time    0.1488
    SETDIJ:  cpu time    0.0216: real time    0.0216
     EDDAV:  cpu time    2.2004: real time    2.2057
    CHARGE:  cpu time    0.1692: real time    0.1696
    MIXING:  cpu time    0.0071: real time    0.0071
    --------------------------------------------
      LOOP:  cpu time    2.5467: real time    2.5528

 eigenvalue-minimisations  :  1280
 total energy-change (2. order) :-0.1440798E+00  (-0.2782905E-01)
 number of electron     355.0000071 magnetization      21.4755388
 augmentation part      116.4805600 magnetization      19.9355335

 Broyden mixing:
  rms(total) = 0.21392E+01    rms(broyden)= 0.21392E+01
  rms(prec ) = 0.23376E+01
  weight for this iteration     100.00

 eigenvalues of (default mixing * dielectric matrix)
  average eigenvalue GAMMA=   0.3772
  0.8037  0.8037  0.7354  0.7354  0.5424  0.5424  0.4038  0.4038  0.2977  0.2977
  0.2397  0.2397  0.1653  0.1551  0.1156  0.1156  0.1281  0.0646

 Free energy of the ion-electron system (eV)
  ---------------------------------------------------
  alpha Z        PSCENC =      1137.73380465
  Ewald energy   TEWEN  =    -20807.74408200
  -Hartree energ DENC   =    -11121.90173181
  -exchange      EXHF   =         0.00000000
  -V(xc)+E(xc)   XCENC  =      1437.73607404
  PAW double counting   =     34983.29827052   -36184.58149389
  entropy T*S    EENTRO =        -0.02279494
  eigenvalues    EBANDS =      -943.23653528
  atomic energy  EATOM  =     31214.68969437
  Solvation  Ediel_sol  =         0.00000000
  ---------------------------------------------------
  free energy    TOTEN  =      -284.02879434 eV

  energy without entropy =     -284.00599940  energy(sigma->0) =     -284.01739687


--------------------------------------------------------------------------------------------------------




--------------------------------------- Iteration      1(  24)  ---------------------------------------


    POTLOK:  cpu time    0.1555: real time    0.1559
    SETDIJ:  cpu time    0.0216: real time    0.0217
     EDDAV:  cpu time    2.0402: real time    2.0450
    CHARGE:  cpu time    0.1565: real time    0.1569
    MIXING:  cpu time    0.0072: real time    0.0072
    --------------------------------------------
      LOOP:  cpu time    2.3810: real time    2.3866

 eigenvalue-minimisations  :  1312
 total energy-change (2. order) :-0.5126842E+00  (-0.1740724E-01)
 number of electron     355.0000071 magnetization      20.3433292
 augmentation part      116.4218678 magnetization      18.8162214

 Broyden mixing:
  rms(total) = 0.20690E+01    rms(broyden)= 0.20690E+01
  rms(prec ) = 0.22766E+01
  weight for this iteration     100.00

 eigenvalues of (default mixing * dielectric matrix)
  average eigenvalue GAMMA=   0.4415
  0.9522  0.9522  0.8961  0.8961  0.7413  0.7413  0.4142  0.4142  0.4129  0.4129
  0.2739  0.2739  0.2571  0.1733  0.1156  0.1156  0.1526  0.1281  0.0646

 Free energy of the ion-electron system (eV)
  ---------------------------------------------------
  alpha Z        PSCENC =      1137.73380465
  Ewald energy   TEWEN  =    -20807.74408200
  -Hartree energ DENC   =    -11123.59881234
  -exchange      EXHF   =         0.00000000
  -V(xc)+E(xc)   XCENC  =      1437.49532346
  PAW double counting   =     34978.36446693   -36178.92739242
  entropy T*S    EENTRO =        -0.03352441
  eigenvalues    EBANDS =      -942.52095678
  atomic energy  EATOM  =     31214.68969437
  Solvation  Ediel_sol  =         0.00000000
  ---------------------------------------------------
  free energy    TOTEN  =      -284.54147853 eV

  energy without entropy =     -284.50795412  energy(sigma->0) =     -284.52471633


--------------------------------------------------------------------------------------------------------




--------------------------------------- Iteration      1(  25)  ---------------------------------------


    POTLOK:  cpu time    0.1410: real time    0.1413
    SETDIJ:  cpu time    0.0223: real time    0.0224
     EDDAV:  cpu time    2.3490: real time    2.3546
    CHARGE:  cpu time    0.1727: real time    0.1731
    MIXING:  cpu time    0.0075: real time    0.0075
    --------------------------------------------
      LOOP:  cpu time    2.6925: real time    2.6988

 eigenvalue-minimisations  :  1360
 total energy-change (2. order) :-0.1134227E+01  (-0.1006185E+00)
 number of electron     355.0000070 magnetization      18.3595535
 augmentation part      116.2711224 magnetization      16.6933678

 Broyden mixing:
  rms(total) = 0.20864E+01    rms(broyden)= 0.20863E+01
  rms(prec ) = 0.23376E+01
  weight for this iteration     100.00

 eigenvalues of (default mixing * dielectric matrix)
  average eigenvalue GAMMA=   0.4796
  1.1945  1.1945  0.8415  0.8415  0.7565  0.7565  0.6264  0.6264  0.4101  0.4101
  0.3639  0.2787  0.2787  0.2627  0.1729  0.1156  0.1156  0.1526  0.1281  0.0646

 Free energy of the ion-electron system (eV)
  ---------------------------------------------------
  alpha Z        PSCENC =      1137.73380465
  Ewald energy   TEWEN  =    -20807.74408200
  -Hartree energ DENC   =    -11130.32796321
  -exchange      EXHF   =         0.00000000
  -V(xc)+E(xc)   XCENC  =      1437.15188752
  PAW double counting   =     34996.34609189   -36194.84283656
  entropy T*S    EENTRO =        -0.04804560
  eigenvalues    EBANDS =      -938.63425674
  atomic energy  EATOM  =     31214.68969437
  Solvation  Ediel_sol  =         0.00000000
  ---------------------------------------------------
  free energy    TOTEN  =      -285.67570569 eV

  energy without entropy =     -285.62766009  energy(sigma->0) =     -285.65168289


--------------------------------------------------------------------------------------------------------




--------------------------------------- Iteration      1(  26)  ---------------------------------------


    POTLOK:  cpu time    0.1520: real time    0.1524
    SETDIJ:  cpu time    0.0222: real time    0.0223
     EDDAV:  cpu time    2.0587: real time    2.0636
    CHARGE:  cpu time    0.1335: real time    0.1338
    MIXING:  cpu time    0.0059: real time    0.0059
    --------------------------------------------
      LOOP:  cpu time    2.3723: real time    2.3779

 eigenvalue-minimisations  :  1424
 total energy-change (2. order) :-0.6318406E-02  (-0.2491144E+00)
 number of electron     355.0000071 magnetization      16.8506073
 augmentation part      115.9020688 magnetization      16.2734008

 Broyden mixing:
  rms(total) = 0.31732E+01    rms(broyden)= 0.31730E+01
  rms(prec ) = 0.35031E+01
  weight for this iteration     100.00

 eigenvalues of (default mixing * dielectric matrix)
  average eigenvalue GAMMA=   0.4794
  1.3274  1.3274  1.0400  0.7813  0.7813  0.7151  0.7151  0.4103  0.4103  0.4200
  0.4200  0.2795  0.2795  0.2644  0.0646  0.1156  0.1156  0.1726  0.1281  0.1528
  0.1471

 Free energy of the ion-electron system (eV)
  ---------------------------------------------------
  alpha Z        PSCENC =      1137.73380465
  Ewald energy   TEWEN  =    -20807.74408200
  -Hartree energ DENC   =    -11140.11880762
  -exchange      EXHF   =         0.00000000
  -V(xc)+E(xc)   XCENC  =      1437.69375750
  PAW double counting   =     35060.36077803   -36257.36277898
  entropy T*S    EENTRO =        -0.00173710
  eigenvalues    EBANDS =      -930.93265294
  atomic energy  EATOM  =     31214.68969437
  Solvation  Ediel_sol  =         0.00000000
  ---------------------------------------------------
  free energy    TOTEN  =      -285.68202410 eV

  energy without entropy =     -285.68028700  energy(sigma->0) =     -285.68115555


--------------------------------------------------------------------------------------------------------




--------------------------------------- Iteration      1(  27)  ---------------------------------------


    POTLOK:  cpu time    0.1292: real time    0.1295
    SETDIJ:  cpu time    0.0183: real time    0.0184
     EDDAV:  cpu time    2.0726: real time    2.0775
    CHARGE:  cpu time    0.1676: real time    0.1680
    MIXING:  cpu time    0.0077: real time    0.0077
    --------------------------------------------
      LOOP:  cpu time    2.3954: real time    2.4010

 eigenvalue-minimisations  :  1232
 total energy-change (2. order) : 0.7875648E+00  (-0.8389125E-01)
 number of electron     355.0000071 magnetization      12.2188424
 augmentation part      116.1574119 magnetization      11.5010004

 Broyden mixing:
  rms(total) = 0.33358E+01    rms(broyden)= 0.33358E+01
  rms(prec ) = 0.36621E+01
  weight for this iteration     100.00

 eigenvalues of (default mixing * dielectric matrix)
  average eigenvalue GAMMA=   0.5149
  1.5402  1.5402  1.0447  0.7358  0.7358  0.7969  0.7969  0.6545  0.4121  0.4121
  0.3846  0.3846  0.3233  0.2776  0.2776  0.2617  0.1729  0.1156  0.1156  0.1526
  0.1281  0.0646

 Free energy of the ion-electron system (eV)
  ---------------------------------------------------
  alpha Z        PSCENC =      1137.73380465
  Ewald energy   TEWEN  =    -20807.74408200
  -Hartree energ DENC   =    -11139.67044971
  -exchange      EXHF   =         0.00000000
  -V(xc)+E(xc)   XCENC  =      1438.92609572
  PAW double counting   =     35175.13273383   -36370.54139780
  entropy T*S    EENTRO =        -0.00705384
  eigenvalues    EBANDS =      -933.41380449
  atomic energy  EATOM  =     31214.68969437
  Solvation  Ediel_sol  =         0.00000000
  ---------------------------------------------------
  free energy    TOTEN  =      -284.89445926 eV

  energy without entropy =     -284.88740542  energy(sigma->0) =     -284.89093234


--------------------------------------------------------------------------------------------------------




--------------------------------------- Iteration      1(  28)  ---------------------------------------


    POTLOK:  cpu time    0.1479: real time    0.1483
    SETDIJ:  cpu time    0.0216: real time    0.0217
     EDDAV:  cpu time    2.2568: real time    2.2622
    CHARGE:  cpu time    0.1677: real time    0.1681
    MIXING:  cpu time    0.0079: real time    0.0079
    --------------------------------------------
[...]
  Ewald   -6937.68203 -6937.68213 -6937.68205  -161.92432   161.92454   161.92457
  Hartree  3690.18031  3690.18030  3690.18061   -93.98092    93.98091    93.98092
  E(xc)   -1813.85575 -1813.85570 -1813.85580    -0.12243     0.12244     0.12237
  Local   -3738.91261 -3738.91107 -3738.91410   243.20536  -243.20528  -243.20683
  n-local  -800.47049  -800.47058  -800.48282    -1.55880     1.55872     1.55890
  augment  3015.20815  3015.20708  3015.21020     7.53921    -7.53774    -7.53673
  Kinetic  5447.16124  5447.16131  5447.16137     6.85179    -6.85192    -6.85201
  Fock        0.00000     0.00000     0.00000     0.00000     0.00000     0.00000
  -------------------------------------------------------------------------------------
  Total       -0.0201636     -0.0201636     -0.0201636      0.0090050     -0.0090050     -0.0090050
  in kB       -0.0662036     -0.0662036     -0.0662036      0.0295664     -0.0295664     -0.0295664
  external PRESSURE =      -0.0662036 kB  Pullay stress =       0.0000000 kB


 VOLUME and BASIS-vectors are now :
 -----------------------------------------------------------------------------
  energy-cutoff  :      500.00
  volume of cell :      487.97
      direct lattice vectors                 reciprocal lattice vectors
    -0.000000000  3.957839403  3.957839403     0.062820324  0.062820324  0.189842783
     3.957839403 -3.957839403  0.000000000     0.157741715 -0.094921391  0.094921391
    11.703150509 11.703150509 -7.745311106     0.032101067  0.032101067 -0.032101067

  length of vectors
     5.597230161  5.597230161 18.273404385     0.209602167  0.207129404  0.055600680


 FORCES acting on ions
    electron-ion (+dipol)            ewald-force                    non-local-force                 convergence-correction
 -----------------------------------------------------------------------------------------------
   -.427E+01 -.427E+01 0.427E+01   0.419E+01 0.419E+01 -.419E+01   0.950E-01 0.950E-01 -.950E-01   0.621E-03 0.621E-03 -.622E-03
   0.139E+02 0.139E+02 -.293E+02   -.138E+02 -.138E+02 0.300E+02   -.154E+00 -.154E+00 -.604E+00   0.456E-01 0.456E-01 -.179E-01
   -.249E+02 -.249E+02 0.311E+02   0.252E+02 0.252E+02 -.314E+02   -.346E+00 -.346E+00 0.293E+00   -.433E-01 -.433E-01 0.264E-01
   -.837E+01 -.837E+01 0.844E+01   0.839E+01 0.839E+01 -.845E+01   -.167E-01 -.167E-01 0.548E-02   0.191E-02 0.191E-02 -.303E-02
   0.139E+02 0.139E+02 -.157E+02   -.139E+02 -.139E+02 0.157E+02   0.300E-01 0.300E-01 -.427E-01   0.493E-02 0.493E-02 0.352E-02
   0.139E+02 0.293E+02 -.139E+02   -.138E+02 -.300E+02 0.138E+02   -.154E+00 0.604E+00 0.154E+00   0.456E-01 0.179E-01 -.456E-01
   -.249E+02 -.311E+02 0.249E+02   0.252E+02 0.314E+02 -.252E+02   -.346E+00 -.293E+00 0.346E+00   -.433E-01 -.264E-01 0.433E-01
   -.837E+01 -.844E+01 0.837E+01   0.839E+01 0.845E+01 -.839E+01   -.167E-01 -.548E-02 0.167E-01   0.191E-02 0.303E-02 -.191E-02
   0.139E+02 0.157E+02 -.139E+02   -.139E+02 -.157E+02 0.139E+02   0.300E-01 0.427E-01 -.300E-01   0.493E-02 -.352E-02 -.493E-02
   0.293E+02 0.139E+02 -.139E+02   -.300E+02 -.138E+02 0.138E+02   0.604E+00 -.154E+00 0.154E+00   0.179E-01 0.456E-01 -.456E-01
   -.311E+02 -.249E+02 0.249E+02   0.314E+02 0.252E+02 -.252E+02   -.293E+00 -.346E+00 0.346E+00   -.264E-01 -.433E-01 0.433E-01
   -.844E+01 -.837E+01 0.837E+01   0.845E+01 0.839E+01 -.839E+01   -.548E-02 -.167E-01 0.167E-01   0.303E-02 0.191E-02 -.191E-02
   0.157E+02 0.139E+02 -.139E+02   -.157E+02 -.139E+02 0.139E+02   0.427E-01 0.300E-01 -.300E-01   -.352E-02 0.493E-02 -.493E-02
   0.173E+01 0.173E+01 -.173E+01   -.208E+01 -.208E+01 0.208E+01   0.363E+00 0.363E+00 -.363E+00   -.101E-01 -.101E-01 0.101E-01
   -.150E+02 -.150E+02 0.150E+02   0.150E+02 0.150E+02 -.150E+02   -.940E-02 -.940E-02 0.940E-02   0.465E-02 0.465E-02 -.465E-02
   0.229E+01 0.229E+01 -.229E+01   -.232E+01 -.232E+01 0.232E+01   0.310E-01 0.310E-01 -.310E-01   0.254E-02 0.254E-02 -.254E-02
   0.185E+02 0.185E+02 -.185E+02   -.186E+02 -.186E+02 0.186E+02   0.184E+00 0.184E+00 -.184E+00   -.733E-02 -.733E-02 0.733E-02
   0.201E+03 0.201E+03 0.224E+03   -.216E+03 -.216E+03 -.241E+03   0.151E+02 0.151E+02 0.163E+02   -.249E-01 -.249E-01 0.613E-01
   0.205E+03 0.205E+03 0.221E+03   -.221E+03 -.221E+03 -.238E+03   0.156E+02 0.156E+02 0.162E+02   0.245E-03 0.245E-03 0.307E-03
   0.219E+03 0.219E+03 0.208E+03   -.235E+03 -.235E+03 -.224E+03   0.156E+02 0.156E+02 0.160E+02   0.101E-03 0.101E-03 0.373E-02
   0.228E+03 0.228E+03 0.190E+03   -.244E+03 -.244E+03 -.206E+03   0.160E+02 0.160E+02 0.156E+02   0.200E-02 0.200E-02 -.119E-01
   0.201E+03 -.224E+03 -.201E+03   -.216E+03 0.241E+03 0.216E+03   0.151E+02 -.163E+02 -.151E+02   -.249E-01 -.613E-01 0.249E-01
   0.205E+03 -.221E+03 -.205E+03   -.221E+03 0.238E+03 0.221E+03   0.156E+02 -.162E+02 -.156E+02   0.246E-03 -.307E-03 -.246E-03
   0.219E+03 -.208E+03 -.219E+03   -.235E+03 0.224E+03 0.235E+03   0.156E+02 -.160E+02 -.156E+02   0.102E-03 -.373E-02 -.102E-03
   0.228E+03 -.190E+03 -.228E+03   -.244E+03 0.206E+03 0.244E+03   0.160E+02 -.156E+02 -.160E+02   0.200E-02 0.119E-01 -.200E-02
   -.224E+03 0.201E+03 -.201E+03   0.241E+03 -.216E+03 0.216E+03   -.163E+02 0.151E+02 -.151E+02   -.613E-01 -.249E-01 0.249E-01
   -.221E+03 0.205E+03 -.205E+03   0.238E+03 -.221E+03 0.221E+03   -.162E+02 0.156E+02 -.156E+02   -.307E-03 0.246E-03 -.246E-03
   -.208E+03 0.219E+03 -.219E+03   0.224E+03 -.235E+03 0.235E+03   -.160E+02 0.156E+02 -.156E+02   -.373E-02 0.102E-03 -.102E-03
   -.190E+03 0.228E+03 -.228E+03   0.206E+03 -.244E+03 0.244E+03   -.156E+02 0.160E+02 -.160E+02   0.119E-01 0.200E-02 -.200E-02
   -.212E+03 -.212E+03 0.212E+03   0.226E+03 0.226E+03 -.226E+03   -.141E+02 -.141E+02 0.141E+02   0.216E-01 0.216E-01 -.216E-01
   -.227E+03 -.227E+03 0.227E+03   0.242E+03 0.242E+03 -.242E+03   -.149E+02 -.149E+02 0.149E+02   -.287E-02 -.287E-02 0.287E-02
   -.217E+03 -.217E+03 0.217E+03   0.232E+03 0.232E+03 -.232E+03   -.150E+02 -.150E+02 0.150E+02   0.303E-02 0.303E-02 -.303E-02
   -.203E+03 -.203E+03 0.203E+03   0.218E+03 0.218E+03 -.218E+03   -.149E+02 -.149E+02 0.149E+02   0.150E-02 0.150E-02 -.150E-02
   -.181E+03 -.181E+03 -.176E+03   0.191E+03 0.191E+03 0.186E+03   -.995E+01 -.995E+01 -.948E+01   0.143E-01 0.143E-01 -.589E-01
   -.226E+03 -.226E+03 -.200E+03   0.241E+03 0.241E+03 0.216E+03   -.155E+02 -.155E+02 -.159E+02   0.165E-02 0.165E-02 0.988E-02
   -.215E+03 -.215E+03 -.211E+03   0.231E+03 0.231E+03 0.227E+03   -.156E+02 -.156E+02 -.160E+02   0.385E-02 0.385E-02 -.765E-02
   -.201E+03 -.201E+03 -.226E+03   0.217E+03 0.217E+03 0.242E+03   -.154E+02 -.154E+02 -.161E+02   -.210E-03 -.210E-03 -.331E-03
   -.181E+03 0.176E+03 0.181E+03   0.191E+03 -.186E+03 -.191E+03   -.995E+01 0.948E+01 0.995E+01   0.143E-01 0.589E-01 -.143E-01
   -.226E+03 0.200E+03 0.226E+03   0.241E+03 -.216E+03 -.241E+03   -.155E+02 0.159E+02 0.155E+02   0.165E-02 -.988E-02 -.165E-02
   -.215E+03 0.211E+03 0.215E+03   0.231E+03 -.227E+03 -.231E+03   -.156E+02 0.160E+02 0.156E+02   0.385E-02 0.765E-02 -.385E-02
   -.201E+03 0.226E+03 0.201E+03   0.217E+03 -.242E+03 -.217E+03   -.154E+02 0.161E+02 0.154E+02   -.211E-03 0.330E-03 0.211E-03
   0.176E+03 -.181E+03 0.181E+03   -.186E+03 0.191E+03 -.191E+03   0.948E+01 -.995E+01 0.995E+01   0.589E-01 0.143E-01 -.143E-01
   0.200E+03 -.226E+03 0.226E+03   -.216E+03 0.241E+03 -.241E+03   0.159E+02 -.155E+02 0.155E+02   -.988E-02 0.165E-02 -.165E-02
   0.211E+03 -.215E+03 0.215E+03   -.227E+03 0.231E+03 -.231E+03   0.160E+02 -.156E+02 0.156E+02   0.765E-02 0.385E-02 -.385E-02
   0.226E+03 -.201E+03 0.201E+03   -.242E+03 0.217E+03 -.217E+03   0.161E+02 -.154E+02 0.154E+02   0.330E-03 -.211E-03 0.211E-03
   0.226E+03 0.226E+03 -.226E+03   -.240E+03 -.240E+03 0.240E+03   0.144E+02 0.144E+02 -.144E+02   0.891E-02 0.891E-02 -.891E-02
   0.178E+03 0.178E+03 -.178E+03   -.188E+03 -.188E+03 0.188E+03   0.967E+01 0.967E+01 -.967E+01   -.292E-01 -.292E-01 0.292E-01
   0.208E+03 0.208E+03 -.208E+03   -.222E+03 -.222E+03 0.222E+03   0.150E+02 0.150E+02 -.150E+02   -.119E-02 -.119E-02 0.118E-02
   0.221E+03 0.221E+03 -.221E+03   -.236E+03 -.236E+03 0.236E+03   0.150E+02 0.150E+02 -.150E+02   0.156E-02 0.156E-02 -.156E-02
 -----------------------------------------------------------------------------------------------
   -.288E+00 -.288E+00 0.290E+00   0.369E-12 -.227E-12 -.853E-13   0.290E+00 0.290E+00 -.290E+00   0.550E-03 0.550E-03 -.551E-03
 
 
 POSITION                                       TOTAL-FORCE (eV/Angst)
 -----------------------------------------------------------------------------------
      2.93176      2.93176      3.00500         0.009806      0.009806     -0.009806
     15.64509     11.68725     -3.77706         0.000470      0.000470      0.001953
      3.92582      3.92582      0.02723        -0.000079     -0.000079      0.000127
      7.83249      7.83249      0.08353         0.003276      0.003276     -0.004063
     11.74226      7.78442     -3.82774        -0.003493     -0.003493      0.004041
     15.64509      9.71382     -5.75049         0.000470     -0.001953     -0.000470
      3.92582      5.90953      2.01094        -0.000079     -0.000127      0.000079
      7.83249      5.85323     -1.89573         0.003276      0.004063     -0.003276
     11.74226      5.80666     -5.80550        -0.003493     -0.004041      0.003493
     13.67166     11.68725     -5.75049        -0.001953      0.000470     -0.000470
      5.90953      3.92582      2.01094        -0.000127     -0.000079      0.000079
      9.81107      3.87465     -1.89573         0.004063      0.003276     -0.003276
      9.76450      7.78442     -5.80550        -0.004041     -0.003493      0.003493
      1.97417      1.97417      0.00475        -0.000027     -0.000027      0.000027
      5.88075      5.88075      0.05601         0.000796      0.000796     -0.000796
      9.78753      5.82969     -3.85077         0.001965      0.001965     -0.001965
     13.69576      9.73792     -3.80116        -0.002102     -0.002102      0.002102
      6.03149      2.07365      2.10194        -0.003602     -0.003602      0.000768
      5.98062      5.98062     -1.80402         0.002714      0.002714     -0.002655
      9.89200      9.89200     -1.75679        -0.006116     -0.006116      0.001401
     13.79774      9.83990     -5.67434        -0.000773     -0.000773     -0.004057
      6.03149     -0.12302     -0.09473        -0.003602     -0.000768      0.003602
      5.98062      7.74078     -0.04386         0.002714      0.002655     -0.002714
      9.89200      7.69355     -3.95524        -0.006116     -0.001401      0.006116
     13.79774     11.61110     -3.90314        -0.000773      0.004057      0.000773
      3.83482      2.07365     -0.09473        -0.000768     -0.003602      0.003602
      7.74078      5.98062     -0.04386         0.002655      0.002714     -0.002714
     11.65139      5.93416     -3.95524        -0.001401     -0.006116      0.006116
     11.61110     13.79774     -3.90314         0.004057     -0.000773      0.000773
      3.80139     -0.15645      2.13537         0.000536      0.000536     -0.000536
      3.78780      3.78780     -1.80888        -0.002401     -0.002401      0.002401
      7.68704      7.68704     -1.75028         0.003892      0.003892     -0.003892
     11.59812      7.64028     -5.66136        -0.001795     -0.001795      0.001795
      1.84612      1.84612      1.89140         0.000996      0.000996      0.000002
      5.77483      1.81700     -2.03558        -0.000012     -0.000012      0.001864
      9.68378      5.72594     -1.98930         0.003782      0.003782     -0.000801
      9.63781      9.63781     -5.90251        -0.000429     -0.000429      0.001537
      1.84612      0.08752      0.13280         0.000996     -0.000002     -0.000996
      5.77483      4.01450      0.16192        -0.000012     -0.001864      0.000012
      9.68378      3.96822     -3.74702         0.003782      0.000801     -0.003782
      9.63781     11.83927     -3.70105        -0.000429     -0.001537      0.000429
      4.04536     -2.11172      0.13280        -0.000002      0.000996     -0.000996
      4.01450      5.77483      0.16192        -0.001864     -0.000012      0.000012
      7.92606      5.72594     -3.74702         0.000801      0.003782     -0.003782
     11.83927      9.63781     -3.70105        -0.001537     -0.000429      0.000429
     11.83497     11.83497     -5.89821        -0.000580     -0.000580      0.000580
      4.06294      4.06294      1.87382        -0.001147     -0.001147      0.001147
      7.97698      4.01914     -2.04022         0.004277      0.004277     -0.004277
     11.88834      7.93050     -1.99374        -0.006569     -0.006569      0.006569
 -----------------------------------------------------------------------------------
    total drift:                                0.002404      0.002572     -0.000858


--------------------------------------------------------------------------------------------------------



  FREE ENERGIE OF THE ION-ELECTRON SYSTEM (eV)
  ---------------------------------------------------
  free  energy   TOTEN  =      -309.4601182077 eV

  energy  without entropy=     -309.4230671012  energy(sigma->0) =     -309.44159265
 
 d Force = 0.1296865E-03[ 0.426E-04, 0.217E-03]  d Energy = 0.2928051E-03-0.163E-03
 d Force = 0.3615927E+01[ 0.361E+01, 0.362E+01]  d Ewald  =-0.2551617E+00 0.387E+01


--------------------------------------------------------------------------------------------------------


    POTLOK:  cpu time    0.1695: real time    0.1699


--------------------------------------------------------------------------------------------------------


 Quasi-Newton relaxation of ions (Broydens 2nd method)
  g(Force)  = 0.660E-04   g(Stress)= 0.168E-05

 retain information from N=  1 steps
 eigenvalues of (default step * inverse Hessian matrix)
  average eigenvalue of G=   0.3684
 eigenvalue spectrum of G is  0.3684


--------------------------------------------------------------------------------------------------------


  
 reached required accuracy - stopping structural energy minimisation
     LOOP+:  cpu time   22.3874: real time   22.4974
    4ORBIT:  cpu time    0.0000: real time    0.0000

volume of typ            1:     1.6 %

volume of typ            2:    20.9 %

volume of typ            3:    10.7 %
 
total charge     
 
# of ion       s       p       d       tot
------------------------------------------
    1        2.109   0.340   0.130   2.579
    2        0.298   0.427   7.844   8.568
    3        0.299   0.428   7.843   8.570
    4        0.301   0.431   7.838   8.570
    5        0.301   0.430   7.838   8.569
    6        0.298   0.427   7.844   8.568
    7        0.299   0.428   7.843   8.570
    8        0.301   0.431   7.838   8.570
    9        0.301   0.430   7.838   8.569
   10        0.298   0.427   7.844   8.568
   11        0.299   0.428   7.843   8.570
   12        0.301   0.431   7.838   8.570
   13        0.301   0.430   7.838   8.569
   14        0.288   0.397   7.844   8.528
   15        0.296   0.415   7.838   8.550
   16        0.297   0.415   7.836   8.548
   17        0.295   0.412   7.839   8.547
   18        1.279   2.737   0.008   4.024
   19        1.281   2.730   0.008   4.020
   20        1.281   2.730   0.008   4.020
   21        1.281   2.732   0.008   4.021
   22        1.279   2.737   0.008   4.024
   23        1.281   2.730   0.008   4.020
   24        1.281   2.730   0.008   4.020
   25        1.281   2.732   0.008   4.021
   26        1.279   2.737   0.008   4.024
   27        1.281   2.730   0.008   4.020
   28        1.281   2.730   0.008   4.020
   29        1.281   2.732   0.008   4.021
   30        1.281   2.741   0.009   4.031
   31        1.284   2.727   0.009   4.020
   32        1.283   2.730   0.009   4.022
   33        1.283   2.731   0.009   4.023
   34        1.262   2.790   0.007   4.059
   35        1.281   2.731   0.008   4.020
   36        1.281   2.730   0.008   4.020
   37        1.282   2.730   0.008   4.020
   38        1.262   2.790   0.007   4.059
   39        1.281   2.731   0.008   4.020
   40        1.281   2.730   0.008   4.020
   41        1.282   2.730   0.008   4.020
   42        1.262   2.790   0.007   4.059
   43        1.281   2.731   0.008   4.020
   44        1.281   2.730   0.008   4.020
   45        1.282   2.730   0.008   4.020
   46        1.283   2.730   0.009   4.022
   47        1.267   2.782   0.008   4.057
   48        1.283   2.730   0.009   4.022
   49        1.283   2.729   0.009   4.021
--------------------------------------------------
tot          47.82   94.75  125.84  268.41
 
magnetization (x)
 
# of ion       s       p       d       tot
------------------------------------------
    1        0.001   0.003   0.001   0.005
    2       -0.000  -0.000   0.070   0.069
    3       -0.000  -0.000   0.051   0.050
    4       -0.000  -0.000   0.007   0.006
    5       -0.000  -0.000   0.009   0.009
    6       -0.000  -0.000   0.070   0.069
    7       -0.000  -0.000   0.051   0.050
    8       -0.000  -0.000   0.007   0.006
    9       -0.000  -0.000   0.009   0.009
   10       -0.000  -0.000   0.070   0.069
   11       -0.000  -0.000   0.051   0.050
   12       -0.000  -0.000   0.007   0.006
   13       -0.000  -0.000   0.009   0.009
   14       -0.000  -0.000   0.157   0.156
   15       -0.000  -0.000   0.026   0.026
   16       -0.000  -0.000   0.011   0.011
   17       -0.000  -0.000   0.023   0.023
   18        0.001   0.013   0.000   0.014
   19        0.000   0.001   0.000   0.002
   20        0.000   0.000   0.000   0.000
   21        0.000   0.007   0.000   0.008
   22        0.001   0.013   0.000   0.014
   23        0.000   0.001   0.000   0.002
   24        0.000   0.000   0.000   0.000
   25        0.000   0.007   0.000   0.008
   26        0.001   0.013   0.000   0.014
   27        0.000   0.001   0.000   0.002
   28        0.000   0.000   0.000   0.000
   29        0.000   0.007   0.000   0.008
   30        0.002   0.022   0.000   0.024
   31        0.003   0.037   0.000   0.039
   32        0.000   0.004   0.000   0.004
   33        0.000   0.003   0.000   0.003
   34        0.003   0.020   0.000   0.022
   35        0.000   0.002   0.000   0.003
   36        0.000   0.001   0.000   0.002
   37        0.000   0.004   0.000   0.005
   38        0.003   0.020   0.000   0.022
   39        0.000   0.002   0.000   0.003
   40        0.000   0.001   0.000   0.002
   41        0.000   0.004   0.000   0.005
   42        0.003   0.020   0.000   0.022
   43        0.000   0.002   0.000   0.003
   44        0.000   0.001   0.000   0.002
   45        0.000   0.004   0.000   0.005
   46        0.002   0.023   0.000   0.025
   47        0.003   0.020   0.000   0.024
   48        0.000   0.003   0.000   0.003
   49        0.000   0.004   0.000   0.004
--------------------------------------------------
tot           0.02    0.27    0.63    0.92
 

 total amount of memory used by VASP MPI-rank0    94738. kBytes
=======================================================================

   base      :      30000. kBytes
   nonlr-proj:      22938. kBytes
   fftplans  :       5613. kBytes
   grid      :      32304. kBytes
   one-center:        762. kBytes
   wavefun   :       3121. kBytes
 
  
  
 General timing and accounting informations for this job:
 ========================================================
  
                  Total CPU time used (sec):      204.232
                            User time (sec):      201.669
                          System time (sec):        2.563
                         Elapsed time (sec):      209.713
  
                   Maximum memory used (kb):      136792.
                   Average memory used (kb):           0.
  
                          Minor page faults:        29481
                          Major page faults:           48
                 Voluntary context switches:          852
