 vasp.5.4.4.18Apr17-6-g9f103f2a35 (build May 12 2020 05:39:39) gamma-only       
  
 MD_VERSION_INFO: Compiled 2020-05-12T12:39:39-UTC in devlin.sd.materialsdesign.
 com:/home/medea2/data/build/wwolf/vasp-gpu5.4.4/13047/x86_64/src/src/build/gam 
 from svn 13047
 
 This VASP executable licensed from Materials Design, Inc.
 
 executed on                        Lin64 date 2023.02.09  13:57:15
 running on   16 total cores
 distrk:  each k-point on   16 cores,    1 groups
 distr:  one band on NCORES_PER_BAND=   1 cores,   16 groups


--------------------------------------------------------------------------------------------------------


 INCAR:
 POTCAR:    PAW_PBE Li_sv 10Sep2004               
 POTCAR:    PAW_PBE Ni 02Aug2007                  
 POTCAR:    PAW_PBE O 08Apr2002                   

 ----------------------------------------------------------------------------- 
|                                                                             |
|           W    W    AA    RRRRR   N    N  II  N    N   GGGG   !!!           |
|           W    W   A  A   R    R  NN   N  II  NN   N  G    G  !!!           |
|           W    W  A    A  R    R  N N  N  II  N N  N  G       !!!           |
|           W WW W  AAAAAA  RRRRR   N  N N  II  N  N N  G  GGG   !            |
|           WW  WW  A    A  R   R   N   NN  II  N   NN  G    G                |
|           W    W  A    A  R    R  N    N  II  N    N   GGGG   !!!           |
|                                                                             |
|      For optimal performance we recommend to set                            |
|        NCORE= 4 - approx SQRT( number of cores)                             |
|      NCORE specifies how many cores store one orbital (NPAR=cpu/NCORE).     |
|      This setting can  greatly improve the performance of VASP for DFT.     |
|      The default,   NCORE=1            might be grossly inefficient         |
|      on modern multi-core architectures or massively parallel machines.     |
|      Do your own testing !!!!                                               |
|      Unfortunately you need to use the default for GW and RPA calculations. |
|      (for HF NCORE is supported but not extensively tested yet)             |
|                                                                             |
 ----------------------------------------------------------------------------- 

 POTCAR:    PAW_PBE Li_sv 10Sep2004               
  local pseudopotential read in
  atomic valenz-charges read in
  non local Contribution for L=           0  read in
    real space projection operators read in
  non local Contribution for L=           0  read in
    real space projection operators read in
  non local Contribution for L=           1  read in
    real space projection operators read in
    PAW grid and wavefunctions read in
 
   number of l-projection  operators is LMAX  =           3
   number of lm-projection operators is LMMAX =           5
 
 POTCAR:    PAW_PBE Ni 02Aug2007                  
  local pseudopotential read in
  partial core-charges read in
  partial kinetic energy density read in
  atomic valenz-charges read in
  non local Contribution for L=           2  read in
    real space projection operators read in
  non local Contribution for L=           2  read in
    real space projection operators read in
  non local Contribution for L=           0  read in
    real space projection operators read in
  non local Contribution for L=           0  read in
    real space projection operators read in
  non local Contribution for L=           1  read in
    real space projection operators read in
  non local Contribution for L=           1  read in
    real space projection operators read in
    PAW grid and wavefunctions read in
 
   number of l-projection  operators is LMAX  =           6
   number of lm-projection operators is LMMAX =          18
 
 POTCAR:    PAW_PBE O 08Apr2002                   
  local pseudopotential read in
  partial core-charges read in
  partial kinetic energy density read in
  kinetic energy density of atom read in
  atomic valenz-charges read in
  non local Contribution for L=           0  read in
    real space projection operators read in
  non local Contribution for L=           0  read in
    real space projection operators read in
  non local Contribution for L=           1  read in
    real space projection operators read in
  non local Contribution for L=           1  read in
    real space projection operators read in
    PAW grid and wavefunctions read in
 
   number of l-projection  operators is LMAX  =           4
   number of lm-projection operators is LMMAX =           8
 
 Optimization of the real space projectors (new method)

 maximal supplied QI-value         = 22.11
 optimisation between [QCUT,QGAM] = [ 11.28, 22.77] = [ 35.61,145.23] Ry 
 Optimized for a Real-space Cutoff    1.10 Angstroem

   l    n(q)    QCUT    max X(q) W(low)/X(q) W(high)/X(q)  e(spline) 
   0      7    11.276    10.506    0.54E-04    0.58E-04    0.16E-07
   0      7    11.276     8.367    0.11E-03    0.14E-03    0.35E-07
   1      7    11.276     8.983    0.23E-03    0.43E-03    0.86E-07
 Optimization of the real space projectors (new method)

 maximal supplied QI-value         = 16.25
 optimisation between [QCUT,QGAM] = [ 11.38, 22.75] = [ 36.24,144.96] Ry 
 Optimized for a Real-space Cutoff    1.47 Angstroem

   l    n(q)    QCUT    max X(q) W(low)/X(q) W(high)/X(q)  e(spline) 
   2      9    11.376    60.317    0.17E-03    0.16E-04    0.16E-06
   2      9    11.376    55.921    0.17E-03    0.16E-04    0.17E-06
   0     10    11.376    51.690    0.45E-04    0.60E-04    0.21E-06
   0     10    11.376    30.015    0.37E-04    0.55E-04    0.19E-06
   1     10    11.376    18.849    0.83E-04    0.11E-03    0.92E-07
   1     10    11.376    14.624    0.69E-04    0.92E-04    0.82E-07
 Optimization of the real space projectors (new method)

 maximal supplied QI-value         = 24.76
 optimisation between [QCUT,QGAM] = [ 11.39, 22.77] = [ 36.31,145.25] Ry 
 Optimized for a Real-space Cutoff    1.10 Angstroem

   l    n(q)    QCUT    max X(q) W(low)/X(q) W(high)/X(q)  e(spline) 
   0      7    11.387    20.381    0.22E-03    0.48E-03    0.18E-06
   0      7    11.387    15.268    0.22E-03    0.52E-03    0.19E-06
   1      7    11.387     5.964    0.22E-03    0.73E-03    0.24E-06
   1      7    11.387     5.382    0.19E-03    0.60E-03    0.21E-06

 ----------------------------------------------------------------------------- 
|                                                                             |
|  ADVICE TO THIS USER RUNNING 'VASP/VAMP'   (HEAR YOUR MASTER'S VOICE ...):  |
|                                                                             |
|      You enforced a specific xc-type in the INCAR file,                     |
|      a different type was found on the POTCAR file                          |
|          I HOPE YOU KNOW, WHAT YOU ARE  DOING                               |
|                                                                             |
 ----------------------------------------------------------------------------- 

  PAW_PBE Li_sv 10Sep2004               :
 energy of atom  1       EATOM= -202.7858
 kinetic energy error for atom=    0.0143 (will be added to EATOM!!)
  PAW_PBE Ni 02Aug2007                  :
 energy of atom  2       EATOM=-1077.6739
 kinetic energy error for atom=    0.0030 (will be added to EATOM!!)
  PAW_PBE O 08Apr2002                   :
 energy of atom  3       EATOM= -432.3788
 kinetic energy error for atom=    0.0224 (will be added to EATOM!!)
 
 
 POSCAR: ce23_1                                  
  positions in direct lattice
  No initial velocities read in
 exchange correlation table for  LEXCH =       14
   RHO(1)=    0.500       N(1)  =     2000
   RHO(2)=  100.500       N(2)  =     4000
 


--------------------------------------------------------------------------------------------------------


 ion  position               nearest neighbor table
   1  0.000  0.500  0.122-  30 1.90  27 1.90  33 1.90  37 1.96
   2  0.333  0.667  0.667-  23 1.85  35 1.85  22 1.86  19 1.86  29 1.86  32 1.86  11 2.76  13 2.77
                             5 2.80   8 2.80   8 2.81   5 2.81
   3  0.999  1.000  0.999-  24 1.84  36 1.85  20 1.86  17 1.86  33 1.87  30 1.87  11 2.76   9 2.80
                             6 2.80   6 2.81   9 2.81  12 2.82
   4  0.666  0.333  0.335-  25 1.85  34 1.86  31 1.86  18 1.86  21 1.86  37 1.86  12 2.76  13 2.76
                             7 2.80  10 2.80  10 2.81   7 2.81
   5  0.833  0.667  0.667-  23 1.85  35 1.85  16 1.86  22 1.86  32 1.86  26 1.86  11 2.76  13 2.77
                             2 2.80   8 2.80   8 2.81   2 2.81
   6  0.500  1.000  0.999-  24 1.84  36 1.85  14 1.86  20 1.86  33 1.87  27 1.87  11 2.76   9 2.80
                             3 2.80   9 2.81   3 2.81  12 2.82
   7  0.167  0.333  0.335-  25 1.85  28 1.86  34 1.86  21 1.86  15 1.86  37 1.86  12 2.76  13 2.76
                             4 2.80  10 2.80  10 2.81   4 2.81
   8  0.833  0.167  0.667-  23 1.85  35 1.85  16 1.86  19 1.86  29 1.86  26 1.86  11 2.76  13 2.77
                             2 2.80   5 2.80   5 2.81   2 2.81
   9  0.500  0.501  0.999-  24 1.84  36 1.85  14 1.86  17 1.86  27 1.87  30 1.87  11 2.76   6 2.80
                             3 2.80   6 2.81   3 2.81  12 2.82
  10  0.167  0.834  0.335-  25 1.85  28 1.86  31 1.86  18 1.86  15 1.86  37 1.86  12 2.76  13 2.76
                             4 2.80   7 2.80   7 2.81   4 2.81
  11  0.667  0.833  0.832-  29 1.86  26 1.86  32 1.86  20 1.88  14 1.88  17 1.88   5 2.76   2 2.76
                             8 2.76   3 2.76   9 2.76   6 2.76
  12  0.333  0.167  0.169-  18 1.86  15 1.86  21 1.86  33 1.89  27 1.89  30 1.89   7 2.76   4 2.76
                            10 2.76   9 2.82   3 2.82   6 2.82
  13  0.000  0.500  0.500-  16 1.87  19 1.87  22 1.87  31 1.87  34 1.87  28 1.87   4 2.76  10 2.76
                             7 2.76   8 2.77   2 2.77   5 2.77
  14  0.370  0.685  0.921-   9 1.86   6 1.86  11 1.88
  15  0.038  0.019  0.257-   7 1.86  10 1.86  12 1.86
  16  0.704  0.352  0.589-   8 1.86   5 1.86  13 1.87
  17  0.815  0.685  0.921-   3 1.86   9 1.86  11 1.88
  18  0.481  0.019  0.257-   4 1.86  10 1.86  12 1.86
  19  0.148  0.352  0.589-   2 1.86   8 1.86  13 1.87
  20  0.815  0.130  0.921-   3 1.86   6 1.86  11 1.88
  21  0.481  0.462  0.257-   7 1.86   4 1.86  12 1.86
  22  0.148  0.796  0.589-   2 1.86   5 1.86  13 1.87
  23  0.000  0.500  0.733-   2 1.85   8 1.85   5 1.85
  24  0.667  0.833  0.065-   3 1.84   9 1.84   6 1.84
  25  0.333  0.167  0.401-   7 1.85   4 1.85  10 1.85
  26  0.962  0.981  0.744-   5 1.86   8 1.86  11 1.86
  27  0.629  0.314  0.078-   9 1.87   6 1.87  12 1.89   1 1.90
  28  0.296  0.648  0.412-  10 1.86   7 1.86  13 1.87
  29  0.519  0.981  0.744-   8 1.86   2 1.86  11 1.86
  30  0.186  0.314  0.078-   3 1.87   9 1.87  12 1.89   1 1.90
  31  0.852  0.648  0.412-   4 1.86  10 1.86  13 1.87
  32  0.519  0.538  0.744-   5 1.86   2 1.86  11 1.86
  33  0.186  0.871  0.078-   3 1.87   6 1.87  12 1.89   1 1.90
  34  0.852  0.204  0.412-   4 1.86   7 1.86  13 1.87
  35  0.667  0.833  0.601-   5 1.85   2 1.85   8 1.85
  36  0.333  0.167  0.933-   3 1.85   9 1.85   6 1.85
  37  0.000  0.500  0.267-   4 1.86  10 1.86   7 1.86   1 1.96
 
  LATTYP: Found a hexagonal cell.
 ALAT       =     5.6085369037
 C/A-ratio  =     2.4071328429
  
  Lattice vectors:
  
 A1 = (   0.0000000000,   3.9658344772,   3.9658344772)
 A2 = (   3.9658344772,  -3.9658344772,   0.0000000000)
 A3 = (   7.7945134882,   7.7945134882,  -7.7945134882)


Analysis of symmetry for initial positions (statically):
=====================================================================
 Subroutine PRICEL returns:
 Original cell was already a primitive cell.
 

 Routine SETGRP: Setting up the symmetry group for a 
 hexagonal supercell.


 Subroutine GETGRP returns: Found  6 space group operations
 (whereof  2 operations were pure point group operations)
 out of a pool of 24 trial point group operations.


The static configuration has the point symmetry C_1h.
 The point group associated with its full space group is C_3v.


Analysis of symmetry for dynamics (positions and initial velocities):
=====================================================================
 Subroutine PRICEL returns:
 Original cell was already a primitive cell.
 

 Routine SETGRP: Setting up the symmetry group for a 
 hexagonal supercell.


 Subroutine GETGRP returns: Found  6 space group operations
 (whereof  2 operations were pure point group operations)
 out of a pool of 24 trial point group operations.


The dynamic configuration has the point symmetry C_1h.
 The point group associated with its full space group is C_3v.


Analysis of structural, dynamic, and magnetic symmetry:
=====================================================================
 Subroutine PRICEL returns:
 Original cell was already a primitive cell.
 

 Routine SETGRP: Setting up the symmetry group for a 
 hexagonal supercell.


 Subroutine GETGRP returns: Found  6 space group operations
 (whereof  2 operations were pure point group operations)
 out of a pool of 24 trial point group operations.


The magnetic configuration has the point symmetry C_1h.
 The point group associated with its full space group is C_3v.


 Subroutine INISYM returns: Found  6 space group operations
 (whereof  2 operations are pure point group operations),
 and found     1 'primitive' translations

 
 
 KPOINTS: Automatic mesh                          

Automatic generation of k-mesh.
Space group operators:
 irot       det(A)        alpha          n_x          n_y          n_z        tau_x        tau_y        tau_z
    1     1.000000     0.000000     1.000000     0.000000     0.000000     0.000000     0.000000     0.000000
    2    -1.000000   180.000000     0.707107    -0.707107     0.000000     0.000000     0.000000     0.000000
    3     1.000000   120.000000    -0.577350    -0.577350     0.577350     0.500000     0.000000     0.000000
    4     1.000000   120.000000     0.577350     0.577350    -0.577350     0.500000     0.500000     0.000000
    5    -1.000000   180.000000     0.000000     0.707107     0.707107     0.500000     0.000000     0.000000
    6    -1.000000   180.000000     0.707107     0.000000     0.707107     0.500000     0.500000     0.000000
 
 Subroutine IBZKPT returns following result:
 ===========================================
 
 Found      1 irreducible k-points:
 
 Following reciprocal coordinates:
            Coordinates               Weight
  0.000000  0.000000  0.000000      1.000000
 
 Following cartesian coordinates:
            Coordinates               Weight
  0.000000  0.000000  0.000000      1.000000
 


--------------------------------------------------------------------------------------------------------




 Dimension of arrays:
   k-points           NKPTS =      1   k-points in BZ     NKDIM =      1   number of bands    NBANDS=    176
   number of dos      NEDOS =    301   number of ions     NIONS =     37
   non local maximal  LDIM  =      6   non local SUM 2l+1 LMDIM =     18
   total plane-waves  NPLWV = 172872
   max r-space proj   IRMAX =   6360   max aug-charges    IRDMAX=  15434
   dimension x,y,z NGX =    42 NGY =   42 NGZ =   98
   dimension x,y,z NGXF=    84 NGYF=   84 NGZF=  196
   support grid    NGXF=    84 NGYF=   84 NGZF=  196
   ions per type =               1  12  24
   NGX,Y,Z   is equivalent  to a cutoff of  12.45, 12.45, 12.07 a.u.
   NGXF,Y,Z  is equivalent  to a cutoff of  24.90, 24.90, 24.14 a.u.

 SYSTEM =  unknown system                          
 POSCAR =  ce23_1                                  

 Startparameter for this run:
   NWRITE =      1    write-flag & timer
   PREC   = accura    normal or accurate (medium, high low for compatibility)
   ISTART =      0    job   : 0-new  1-cont  2-samecut
   ICHARG =      2    charge: 1-file 2-atom 10-const
   ISPIN  =      2    spin polarized calculation?
   LNONCOLLINEAR =      F non collinear calculations
   LSORBIT =      F    spin-orbit coupling
   INIWAV =      1    electr: 0-lowe 1-rand  2-diag
   LASPH  =      F    aspherical Exc in radial PAW
   METAGGA=      F    non-selfconsistent MetaGGA calc.

 Electronic Relaxation 1
   ENCUT  =  500.0 eV  36.75 Ry    6.06 a.u.  10.23 10.23 24.61*2*pi/ulx,y,z
   ENINI  =  500.0     initial cutoff
   ENAUG  =  628.9 eV  augmentation charge cutoff
   NELM   =     80;   NELMIN=  2; NELMDL= -5     # of ELM steps 
   EDIFF  = 0.1E-04   stopping-criterion for ELM
   LREAL  =      T    real-space projection
   NLSPLINE    = F    spline interpolate recip. space projectors
   LCOMPAT=      F    compatible to vasp.4.4
   GGA_COMPAT  = T    GGA compatible to vasp.4.4-vasp.4.6
   LMAXPAW     = -100 max onsite density
   LMAXMIX     =    2 max onsite mixed and CHGCAR
   VOSKOWN=      1    Vosko Wilk Nusair interpolation
   ROPT   =   -0.00025  -0.00025  -0.00025
 Ionic relaxation
   EDIFFG = -.2E-01   stopping-criterion for IOM
   NSW    =     20    number of steps for IOM
   NBLOCK =      1;   KBLOCK =     20    inner block; outer block 
   IBRION =      1    ionic relax: 0-MD 1-quasi-New 2-CG
   NFREE  =      0    steps in history (QN), initial steepest desc. (CG)
   ISIF   =      3    stress and relaxation
   IWAVPR =     11    prediction:  0-non 1-charg 2-wave 3-comb
   ISYM   =      2    0-nonsym 1-usesym 2-fastsym
   LCORR  =      T    Harris-Foulkes like correction to forces

   POTIM  = 0.5000    time-step for ionic-motion
   TEIN   =    0.0    initial temperature
   TEBEG  =    0.0;   TEEND  =   0.0 temperature during run
   SMASS  =  -3.00    Nose mass-parameter (am)
   estimated Nose-frequenzy (Omega)   =  0.10E-29 period in steps =****** mass=  -0.719E-27a.u.
   SCALEE = 1.0000    scale energy and forces
   NPACO  =    256;   APACO  = 16.0  distance and # of slots for P.C.
   PSTRESS=    0.0 pullay stress

  Mass of Ions in am
   POMASS =   7.01 58.69 16.00
  Ionic Valenz
   ZVAL   =   3.00 10.00  6.00
  Atomic Wigner-Seitz radii
   RWIGS  =   1.23  1.15  0.73
  virtual crystal weights 
   VCA    =   1.00  1.00  1.00
   NELECT =     267.0000    total number of electrons
   NUPDOWN=      -1.0000    fix difference up-down

 DOS related values:
   EMIN   =  10.00;   EMAX   =-10.00  energy-range for DOS
   EFERMI =   0.00
   ISMEAR =     0;   SIGMA  =   0.05  broadening in eV -4-tet -1-fermi 0-gaus

 Electronic relaxation 2 (details)
   IALGO  =     38    algorithm
   LDIAG  =      T    sub-space diagonalisation (order eigenvalues)
   LSUBROT=      F    optimize rotation matrix (better conditioning)
   TURBO    =      0    0=normal 1=particle mesh
   IRESTART =      0    0=no restart 2=restart with 2 vectors
   NREBOOT  =      0    no. of reboots
   NMIN     =      0    reboot dimension
   EREF     =   0.00    reference energy to select bands
   IMIX   =      4    mixing-type and parameters
     AMIX     =   0.40;   BMIX     =  1.00
     AMIX_MAG =   1.60;   BMIX_MAG =  1.00
     AMIN     =   0.10
     WC   =   100.;   INIMIX=   1;  MIXPRE=   1;  MAXMIX= -45

 Intra band minimization:
   WEIMIN = 0.0010     energy-eigenvalue tresh-hold
   EBREAK =  0.14E-07  absolut break condition
   DEPER  =   0.30     relativ break condition  

   TIME   =   0.40     timestep for ELM

  volume/ion in A,a.u.               =       9.94        67.08
  Fermi-wavevector in a.u.,A,eV,Ry     =   1.471359  2.780466 29.455233  2.164899
  Thomas-Fermi vector in A             =   2.586505
 
 Write flags
   LWAVE        =      F    write WAVECAR
   LDOWNSAMPLE  =      F    k-point downsampling of WAVECAR
   LCHARG       =      T    write CHGCAR
   LVTOT        =      F    write LOCPOT, total local potential
   LVHAR        =      F    write LOCPOT, Hartree potential only
   LELF         =      F    write electronic localiz. function (ELF)
   LORBIT       =      0    0 simple, 1 ext, 2 COOP (PROOUT), +10 PAW based schemes


 Dipole corrections
   LMONO  =      F    monopole corrections only (constant potential shift)
   LDIPOL =      F    correct potential (dipole corrections)
   IDIPOL =      0    1-x, 2-y, 3-z, 4-all directions 
   EPSILON=  1.0000000 bulk dielectric constant

 Exchange correlation treatment:
   GGA     =    PS    GGA type
   LEXCH   =    14    internal setting for exchange type
   VOSKOWN=      1    Vosko Wilk Nusair interpolation
   LHFCALC =     F    Hartree Fock is set to
   LHFONE  =     F    Hartree Fock one center treatment
   AEXX    =    0.0000 exact exchange contribution

 Linear response parameters
   LEPSILON=     F    determine dielectric tensor
   LRPA    =     F    only Hartree local field effects (RPA)
   LNABLA  =     F    use nabla operator in PAW spheres
   LVEL    =     F    velocity operator in full k-point grid
   LINTERFAST=   F  fast interpolation
   KINTER  =     0    interpolate to denser k-point grid
   CSHIFT  =0.1000    complex shift for real part using Kramers Kronig
   OMEGAMAX=  -1.0    maximum frequency
   DEG_THRESHOLD= 0.2000000E-02 threshold for treating states as degnerate
   RTIME   =   -0.100 relaxation time in fs
  (WPLASMAI=    0.000 imaginary part of plasma frequency in eV, 0.658/RTIME)
   DFIELD  = 0.0000000 0.0000000 0.0000000 field for delta impulse in time
 
 Orbital magnetization related:
   ORBITALMAG=     F  switch on orbital magnetization
   LCHIMAG   =     F  perturbation theory with respect to B field
   DQ        =  0.001000  dq finite difference perturbation B field
   LLRAUG    =     F  two centre corrections for induced B field



--------------------------------------------------------------------------------------------------------


 quasi-Newton-method for relaxation of ions
 charge density and potential will be updated during run
 spin polarized calculation
 Variant of blocked Davidson
 Davidson routine will perform the subspace rotation
 perform sub-space diagonalisation
    after iterative eigenvector-optimisation
 modified Broyden-mixing scheme, WC =      100.0
 initial mixing is a Kerker type mixing with AMIX =  0.4000 and BMIX =      1.0000
 Hartree-type preconditioning will be used
 using additional bands           42
 real space projection scheme for non local part
 use partial core corrections
 calculate Harris-corrections to forces 
   (improved forces if not selfconsistent)
 use gradient corrections 
 use of overlap-Matrix (Vanderbilt PP)
 Gauss-broadening in eV      SIGMA  =   0.05


--------------------------------------------------------------------------------------------------------


  energy-cutoff  :      500.00
  volume of cell :      367.77
      direct lattice vectors                 reciprocal lattice vectors
     0.000000000  3.965834477  3.965834477     0.084051247  0.084051247  0.168102494
     3.965834477 -3.965834477  0.000000000     0.168102494 -0.084051247  0.084051247
     7.794513488  7.794513488 -7.794513488     0.042765124  0.042765124 -0.042765124

  length of vectors
     5.608536904  5.608536904 13.500493382     0.205882667  0.205882667  0.074071367


 
 k-points in units of 2pi/SCALE and weight: Automatic mesh                          
   0.00000000  0.00000000  0.00000000       1.000
 
 k-points in reciprocal lattice and weights: Automatic mesh                          
   0.00000000  0.00000000  0.00000000       1.000
 
 position of ions in fractional coordinates (direct lattice) 
   0.00000000  0.50000000  0.12232974
   0.33320792  0.66660397  0.66656447
   0.99906978  0.99953489  0.99850326
   0.66584224  0.33292111  0.33468705
   0.83339603  0.66660397  0.66656447
   0.50046511  0.99953489  0.99850326
   0.16707889  0.33292111  0.33468705
   0.83339603  0.16679208  0.66656447
   0.50046511  0.50093022  0.99850326
   0.16707889  0.83415776  0.33468705
   0.66666667  0.83333333  0.83237703
   0.33333333  0.16666667  0.16884522
   0.00000000  0.50000000  0.50044577
   0.36976395  0.68488197  0.92116749
   0.03762405  0.01881203  0.25690785
   0.70439034  0.35219517  0.58902970
   0.81511803  0.68488197  0.92116749
   0.48118797  0.01881203  0.25690785
   0.14780483  0.35219517  0.58902970
   0.81511803  0.13023605  0.92116749
   0.48118797  0.46237595  0.25690785
   0.14780483  0.79560966  0.58902970
   0.00000000  0.50000000  0.73256752
   0.66666667  0.83333333  0.06457124
   0.33333333  0.16666667  0.40142324
   0.96198432  0.98099215  0.74436753
   0.62889195  0.31444598  0.07759131
   0.29573751  0.64786875  0.41173887
   0.51900785  0.98099215  0.74436753
   0.18555402  0.31444598  0.07759131
   0.85213125  0.64786875  0.41173887
   0.51900785  0.53801568  0.74436753
   0.18555402  0.87110805  0.07759131
   0.85213125  0.20426249  0.41173887
   0.66666667  0.83333333  0.60060151
   0.33333333  0.16666667  0.93292797
   0.00000000  0.50000000  0.26723814
 
 position of ions in cartesian coordinates  (Angst):
   2.93641805 -1.02941643 -0.95350081
   7.83918676  3.87335220 -3.87409829
  11.74683706  7.78100258 -3.82070175
   3.92903274  3.92903282  0.03189739
   7.83918676  5.85701545 -1.89043504
  11.74683706  5.80361899 -5.79808534
   3.92903274  1.95101993 -1.94611550
   5.85701553  7.83918668 -1.89043504
   9.76945347  7.78100258 -5.79808534
   5.91685433 -0.03680166 -1.94611550
   9.79283604  5.82700160 -3.84408432
   1.97703877  1.97703873  0.00587847
   5.88364854  1.91781407 -3.90073130
   9.89618096  5.93034652 -5.71362980
   2.07707710  2.07707706 -1.85326095
   5.98794769  5.98794769 -1.79770445
   9.89618096  7.69654708 -3.94742924
   2.07707710  3.83617815 -0.09415986
   5.98794769  3.78062168 -4.00503045
   7.69654704  9.89618099 -3.94742924
   3.83617819  2.07707706 -0.09415986
   7.74645616  2.02211321 -4.00503045
   7.69292465  3.72709018 -5.71000742
   3.80816345 -0.15767099  2.14058826
   3.78987128  3.78987125 -1.80695405
   9.69243524  5.72660085 -1.98691217
   1.85182722  1.85182718  1.88929487
   5.77864440  1.81280996 -2.03645816
   9.69243524  3.96982949 -3.74368353
   1.85182722  0.09362233  0.13109002
   5.77864440  4.01937544  0.17010731
   7.93566389  5.72660085 -3.74368353
   4.05945685 -2.11400730  0.13109002
   4.01937540  5.77864444  0.17010731
   7.98625862  4.02042418 -2.03750691
   7.93269207  7.93269203 -5.94977483
   4.06590853  0.10007405 -2.08299129
 


--------------------------------------------------------------------------------------------------------


 use serial FFT for orbitals x direction half grid
 k-point  1 :   0.0000 0.0000 0.0000  plane waves:    4672

 maximum and minimum number of plane-waves per node :      4672     4672

 maximum number of plane-waves:      4672
 maximum index in each direction: 
   IXMAX=   10   IYMAX=    8   IZMAX=   24
   IXMIN=    0   IYMIN=  -10   IZMIN=  -24

 The following grids will avoid any aliasing or wrap around errors in the Hartre
 e energy
  - symmetry arguments have not been applied
  - exchange correlation energies might require even more grid points
  - we recommend to set PREC=Normal or Accurate and rely on VASP defaults
 NGX is ok and might be reduce to    42
 NGY is ok and might be reduce to    40
 NGZ is ok and might be reduce to    98

 serial   3D FFT for wavefunctions
 parallel 3D FFT for charge:
    minimum data exchange during FFTs selected (reduces bandwidth)


 total amount of memory used by VASP MPI-rank0    74912. kBytes
=======================================================================

   base      :      30000. kBytes
   nonlr-proj:      16025. kBytes
   fftplans  :       3944. kBytes
   grid      :      22651. kBytes
   one-center:        575. kBytes
   wavefun   :       1717. kBytes
 
     INWAV:  cpu time    0.0000: real time    0.0000
 Broyden mixing: mesh for mixing (old mesh)
   NGX = 21   NGY = 21   NGZ = 49
  (NGX  = 84   NGY  = 84   NGZ  =196)
  gives a total of  21609 points

 initial charge density was supplied:
 charge density of overlapping atoms calculated
 number of electron     267.0000000 magnetization      30.0000000
 keeping initial charge density in first step


--------------------------------------------------------------------------------------------------------


 Maximum index for non-local projection operator         6171
 Maximum index for augmentation-charges         1343 (set IRDMAX)


--------------------------------------------------------------------------------------------------------


 First call to EWALD:  gamma=   0.247
 Maximum number of real-space cells 4x 4x 2
 Maximum number of reciprocal cells 2x 2x 5

    FEWALD:  cpu time    0.0052: real time    0.0052


--------------------------------------- Iteration      1(   1)  ---------------------------------------


    POTLOK:  cpu time    0.1092: real time    0.1550
    SETDIJ:  cpu time    0.0132: real time    0.0133
     EDDAV:  cpu time    0.7675: real time    0.8073
    --------------------------------------------
      LOOP:  cpu time    0.8903: real time    0.9759

 eigenvalue-minimisations  :   704
 total energy-change (2. order) : 0.4621580E+04  (-0.1261043E+05)
 number of electron     267.0000000 magnetization      30.0000000
 augmentation part      267.0000000 magnetization      30.0000000

 Free energy of the ion-electron system (eV)
  ---------------------------------------------------
  alpha Z        PSCENC =       853.39190890
  Ewald energy   TEWEN  =    -15642.36521300
  -Hartree energ DENC   =     -8554.38571131
  -exchange      EXHF   =         0.00000000
  -V(xc)+E(xc)   XCENC  =      1081.49542102
  PAW double counting   =     19927.67021237   -20779.64171471
  entropy T*S    EENTRO =        -0.00000000
  eigenvalues    EBANDS =      4274.14386615
  atomic energy  EATOM  =     23461.27160591
  Solvation  Ediel_sol  =         0.00000000
  ---------------------------------------------------
  free energy    TOTEN  =      4621.58037533 eV

  energy without entropy =     4621.58037533  energy(sigma->0) =     4621.58037533


--------------------------------------------------------------------------------------------------------




--------------------------------------- Iteration      1(   2)  ---------------------------------------


     EDDAV:  cpu time    0.8382: real time    0.8402
    --------------------------------------------
      LOOP:  cpu time    0.8381: real time    0.8401

 eigenvalue-minimisations  :   768
 total energy-change (2. order) :-0.3807094E+04  (-0.3438178E+04)
 number of electron     267.0000000 magnetization      30.0000000
 augmentation part      267.0000000 magnetization      30.0000000

 Free energy of the ion-electron system (eV)
  ---------------------------------------------------
  alpha Z        PSCENC =       853.39190890
  Ewald energy   TEWEN  =    -15642.36521300
  -Hartree energ DENC   =     -8554.38571131
  -exchange      EXHF   =         0.00000000
  -V(xc)+E(xc)   XCENC  =      1081.49542102
  PAW double counting   =     19927.67021237   -20779.64171471
  entropy T*S    EENTRO =        -0.00137145
  eigenvalues    EBANDS =       467.05152691
  atomic energy  EATOM  =     23461.27160591
  Solvation  Ediel_sol  =         0.00000000
  ---------------------------------------------------
  free energy    TOTEN  =       814.48666464 eV

  energy without entropy =      814.48803610  energy(sigma->0) =      814.48735037


--------------------------------------------------------------------------------------------------------




--------------------------------------- Iteration      1(   3)  ---------------------------------------


     EDDAV:  cpu time    0.7943: real time    0.7962
    --------------------------------------------
      LOOP:  cpu time    0.7944: real time    0.7962

 eigenvalue-minimisations  :   800
 total energy-change (2. order) :-0.9923563E+03  (-0.8285369E+03)
 number of electron     267.0000000 magnetization      30.0000000
 augmentation part      267.0000000 magnetization      30.0000000

 Free energy of the ion-electron system (eV)
  ---------------------------------------------------
  alpha Z        PSCENC =       853.39190890
  Ewald energy   TEWEN  =    -15642.36521300
  -Hartree energ DENC   =     -8554.38571131
  -exchange      EXHF   =         0.00000000
  -V(xc)+E(xc)   XCENC  =      1081.49542102
  PAW double counting   =     19927.67021237   -20779.64171471
  entropy T*S    EENTRO =        -0.08459720
  eigenvalues    EBANDS =      -525.22158042
  atomic energy  EATOM  =     23461.27160591
  Solvation  Ediel_sol  =         0.00000000
  ---------------------------------------------------
  free energy    TOTEN  =      -177.86966844 eV

  energy without entropy =     -177.78507124  energy(sigma->0) =     -177.82736984


--------------------------------------------------------------------------------------------------------




--------------------------------------- Iteration      1(   4)  ---------------------------------------


     EDDAV:  cpu time    0.9541: real time    0.9564
    --------------------------------------------
      LOOP:  cpu time    0.9541: real time    0.9564

 eigenvalue-minimisations  :   848
 total energy-change (2. order) :-0.1317344E+03  (-0.1275816E+03)
 number of electron     267.0000000 magnetization      30.0000000
 augmentation part      267.0000000 magnetization      30.0000000

 Free energy of the ion-electron system (eV)
  ---------------------------------------------------
  alpha Z        PSCENC =       853.39190890
  Ewald energy   TEWEN  =    -15642.36521300
  -Hartree energ DENC   =     -8554.38571131
  -exchange      EXHF   =         0.00000000
  -V(xc)+E(xc)   XCENC  =      1081.49542102
  PAW double counting   =     19927.67021237   -20779.64171471
  entropy T*S    EENTRO =        -0.11331550
  eigenvalues    EBANDS =      -656.92723175
  atomic energy  EATOM  =     23461.27160591
  Solvation  Ediel_sol  =         0.00000000
  ---------------------------------------------------
  free energy    TOTEN  =      -309.60403806 eV

  energy without entropy =     -309.49072256  energy(sigma->0) =     -309.54738031


--------------------------------------------------------------------------------------------------------




--------------------------------------- Iteration      1(   5)  ---------------------------------------


     EDDAV:  cpu time    1.0966: real time    1.0993
    CHARGE:  cpu time    0.0967: real time    0.0969
    MIXING:  cpu time    0.0028: real time    0.0029
    --------------------------------------------
      LOOP:  cpu time    1.1959: real time    1.1988

 eigenvalue-minimisations  :   944
 total energy-change (2. order) :-0.4124154E+01  (-0.4101670E+01)
 number of electron     266.9999939 magnetization      26.9789852
 augmentation part       76.9083714 magnetization      22.9849397

 Broyden mixing:
  rms(total) = 0.10584E+02    rms(broyden)= 0.10583E+02
  rms(prec ) = 0.11957E+02
  weight for this iteration     100.00

 Free energy of the ion-electron system (eV)
  ---------------------------------------------------
  alpha Z        PSCENC =       853.39190890
  Ewald energy   TEWEN  =    -15642.36521300
  -Hartree energ DENC   =     -8554.38571131
  -exchange      EXHF   =         0.00000000
  -V(xc)+E(xc)   XCENC  =      1081.49542102
  PAW double counting   =     19927.67021237   -20779.64171471
  entropy T*S    EENTRO =        -0.11451028
  eigenvalues    EBANDS =      -661.05019094
  atomic energy  EATOM  =     23461.27160591
  Solvation  Ediel_sol  =         0.00000000
  ---------------------------------------------------
  free energy    TOTEN  =      -313.72819203 eV

  energy without entropy =     -313.61368176  energy(sigma->0) =     -313.67093690


--------------------------------------------------------------------------------------------------------




--------------------------------------- Iteration      1(   6)  ---------------------------------------


    POTLOK:  cpu time    0.1021: real time    0.1024
    SETDIJ:  cpu time    0.0156: real time    0.0156
     EDDAV:  cpu time    1.2130: real time    1.2159
    CHARGE:  cpu time    0.0936: real time    0.0938
    MIXING:  cpu time    0.0029: real time    0.0029
    --------------------------------------------
      LOOP:  cpu time    1.4272: real time    1.4306

 eigenvalue-minimisations  :  1072
 total energy-change (2. order) :-0.1330135E+03  (-0.1106390E+03)
 number of electron     266.9999902 magnetization      25.7776260
 augmentation part       99.9595417 magnetization      23.6330781

 Broyden mixing:
  rms(total) = 0.21967E+02    rms(broyden)= 0.21966E+02
  rms(prec ) = 0.25098E+02
  weight for this iteration     100.00

 eigenvalues of (default mixing * dielectric matrix)
  average eigenvalue GAMMA=   0.1282
  0.1282

 Free energy of the ion-electron system (eV)
  ---------------------------------------------------
  alpha Z        PSCENC =       853.39190890
  Ewald energy   TEWEN  =    -15642.36521300
  -Hartree energ DENC   =     -8121.72869224
  -exchange      EXHF   =         0.00000000
  -V(xc)+E(xc)   XCENC  =      1078.15358084
  PAW double counting   =     22143.99615045   -22857.12423872
  entropy T*S    EENTRO =        -0.03748008
  eigenvalues    EBANDS =     -1362.29934085
  atomic energy  EATOM  =     23461.27160591
  Solvation  Ediel_sol  =         0.00000000
  ---------------------------------------------------
  free energy    TOTEN  =      -446.74171880 eV

  energy without entropy =     -446.70423871  energy(sigma->0) =     -446.72297875


--------------------------------------------------------------------------------------------------------




--------------------------------------- Iteration      1(   7)  ---------------------------------------


    POTLOK:  cpu time    0.1017: real time    0.1020
    SETDIJ:  cpu time    0.0154: real time    0.0155
     EDDAV:  cpu time    1.0686: real time    1.0712
    CHARGE:  cpu time    0.0748: real time    0.0750
    MIXING:  cpu time    0.0022: real time    0.0022
    --------------------------------------------
      LOOP:  cpu time    1.2628: real time    1.2658

 eigenvalue-minimisations  :   944
 total energy-change (2. order) : 0.1229902E+03  (-0.3874557E+02)
 number of electron     266.9999911 magnetization      23.8678015
 augmentation part       99.6555849 magnetization      19.9127683

 Broyden mixing:
  rms(total) = 0.11363E+02    rms(broyden)= 0.11361E+02
  rms(prec ) = 0.12673E+02
  weight for this iteration     100.00

 eigenvalues of (default mixing * dielectric matrix)
  average eigenvalue GAMMA=   0.3399
  0.3399  0.3399

 Free energy of the ion-electron system (eV)
  ---------------------------------------------------
  alpha Z        PSCENC =       853.39190890
  Ewald energy   TEWEN  =    -15642.36521300
  -Hartree energ DENC   =     -8196.87990014
  -exchange      EXHF   =         0.00000000
  -V(xc)+E(xc)   XCENC  =      1078.10183649
  PAW double counting   =     22737.30576199   -23498.75520750
  entropy T*S    EENTRO =        -0.03628202
  eigenvalues    EBANDS =     -1115.78606251
  atomic energy  EATOM  =     23461.27160591
  Solvation  Ediel_sol  =         0.00000000
  ---------------------------------------------------
  free energy    TOTEN  =      -323.75155189 eV

  energy without entropy =     -323.71526987  energy(sigma->0) =     -323.73341088


--------------------------------------------------------------------------------------------------------




--------------------------------------- Iteration      1(   8)  ---------------------------------------


    POTLOK:  cpu time    0.0858: real time    0.0860
    SETDIJ:  cpu time    0.0135: real time    0.0135
     EDDAV:  cpu time    1.0076: real time    1.0100
    CHARGE:  cpu time    0.0734: real time    0.0735
    MIXING:  cpu time    0.0022: real time    0.0023
    --------------------------------------------
      LOOP:  cpu time    1.1826: real time    1.1854

 eigenvalue-minimisations  :  1072
 total energy-change (2. order) :-0.1446924E+02  (-0.4553563E+02)
 number of electron     266.9999912 magnetization      21.3059060
 augmentation part       88.6094220 magnetization      19.6594122

 Broyden mixing:
  rms(total) = 0.12549E+02    rms(broyden)= 0.12548E+02
  rms(prec ) = 0.17893E+02
  weight for this iteration     100.00

 eigenvalues of (default mixing * dielectric matrix)
  average eigenvalue GAMMA=   0.4481
  0.5891  0.5891  0.1660

 Free energy of the ion-electron system (eV)
  ---------------------------------------------------
  alpha Z        PSCENC =       853.39190890
  Ewald energy   TEWEN  =    -15642.36521300
  -Hartree energ DENC   =     -8349.73131268
  -exchange      EXHF   =         0.00000000
  -V(xc)+E(xc)   XCENC  =      1076.64486229
  PAW double counting   =     23602.43352236   -24453.05820547
  entropy T*S    EENTRO =        -0.02821454
  eigenvalues    EBANDS =      -886.77974340
  atomic energy  EATOM  =     23461.27160591
  Solvation  Ediel_sol  =         0.00000000
  ---------------------------------------------------
  free energy    TOTEN  =      -338.22078963 eV

  energy without entropy =     -338.19257510  energy(sigma->0) =     -338.20668237


--------------------------------------------------------------------------------------------------------




--------------------------------------- Iteration      1(   9)  ---------------------------------------


    POTLOK:  cpu time    0.0860: real time    0.0862
    SETDIJ:  cpu time    0.0137: real time    0.0137
     EDDAV:  cpu time    0.8692: real time    0.8713
    CHARGE:  cpu time    0.0741: real time    0.0743
    MIXING:  cpu time    0.0025: real time    0.0025
    --------------------------------------------
      LOOP:  cpu time    1.0455: real time    1.0479

 eigenvalue-minimisations  :   896
 total energy-change (2. order) : 0.4189509E+02  (-0.3808529E+02)
 number of electron     266.9999915 magnetization      18.7170186
 augmentation part       86.6370510 magnetization      16.5970017

 Broyden mixing:
  rms(total) = 0.93644E+01    rms(broyden)= 0.93635E+01
  rms(prec ) = 0.10707E+02
  weight for this iteration     100.00

 eigenvalues of (default mixing * dielectric matrix)
  average eigenvalue GAMMA=   0.4109
  0.6232  0.6232  0.2553  0.1420

 Free energy of the ion-electron system (eV)
  ---------------------------------------------------
  alpha Z        PSCENC =       853.39190890
  Ewald energy   TEWEN  =    -15642.36521300
  -Hartree energ DENC   =     -8336.76330242
  -exchange      EXHF   =         0.00000000
  -V(xc)+E(xc)   XCENC  =      1075.97680941
  PAW double counting   =     24264.56667080   -25131.66209007
  entropy T*S    EENTRO =        -0.04797281
  eigenvalues    EBANDS =      -840.69411141
  atomic energy  EATOM  =     23461.27160591
  Solvation  Ediel_sol  =         0.00000000
  ---------------------------------------------------
  free energy    TOTEN  =      -296.32569469 eV

  energy without entropy =     -296.27772188  energy(sigma->0) =     -296.30170829


--------------------------------------------------------------------------------------------------------




--------------------------------------- Iteration      1(  10)  ---------------------------------------


    POTLOK:  cpu time    0.0860: real time    0.0862
    SETDIJ:  cpu time    0.0136: real time    0.0136
     EDDAV:  cpu time    0.8929: real time    0.8951
    CHARGE:  cpu time    0.0741: real time    0.0743
    MIXING:  cpu time    0.0024: real time    0.0024
    --------------------------------------------
      LOOP:  cpu time    1.0690: real time    1.0716

 eigenvalue-minimisations  :   928
 total energy-change (2. order) : 0.2811434E+02  (-0.2467775E+02)
 number of electron     266.9999939 magnetization      17.2765368
 augmentation part       84.5185903 magnetization      13.0051855

 Broyden mixing:
  rms(total) = 0.89322E+01    rms(broyden)= 0.89317E+01
  rms(prec ) = 0.10833E+02
  weight for this iteration     100.00

 eigenvalues of (default mixing * dielectric matrix)
  average eigenvalue GAMMA=   0.4169
  0.9925  0.4035  0.2607  0.2607  0.1672

 Free energy of the ion-electron system (eV)
  ---------------------------------------------------
  alpha Z        PSCENC =       853.39190890
  Ewald energy   TEWEN  =    -15642.36521300
  -Hartree energ DENC   =     -8332.24884386
  -exchange      EXHF   =         0.00000000
  -V(xc)+E(xc)   XCENC  =      1076.61278378
  PAW double counting   =     25011.12693149   -25901.11960003
  entropy T*S    EENTRO =        -0.06045282
  eigenvalues    EBANDS =      -794.82047143
  atomic energy  EATOM  =     23461.27160591
  Solvation  Ediel_sol  =         0.00000000
  ---------------------------------------------------
  free energy    TOTEN  =      -268.21135105 eV

  energy without entropy =     -268.15089824  energy(sigma->0) =     -268.18112465


--------------------------------------------------------------------------------------------------------




--------------------------------------- Iteration      1(  11)  ---------------------------------------


    POTLOK:  cpu time    0.0859: real time    0.0861
    SETDIJ:  cpu time    0.0135: real time    0.0135
     EDDAV:  cpu time    0.9533: real time    0.9556
    CHARGE:  cpu time    0.0929: real time    0.0931
    MIXING:  cpu time    0.0033: real time    0.0033
    --------------------------------------------
      LOOP:  cpu time    1.1490: real time    1.1517

 eigenvalue-minimisations  :   864
 total energy-change (2. order) : 0.1657482E+02  (-0.8993853E+01)
 number of electron     266.9999915 magnetization      15.0461663
 augmentation part       85.3432476 magnetization      13.3755122

 Broyden mixing:
  rms(total) = 0.71356E+01    rms(broyden)= 0.71352E+01
  rms(prec ) = 0.88973E+01
  weight for this iteration     100.00

 eigenvalues of (default mixing * dielectric matrix)
  average eigenvalue GAMMA=   0.4460
  1.0556  0.5684  0.3789  0.3789  0.1491  0.1448

 Free energy of the ion-electron system (eV)
  ---------------------------------------------------
  alpha Z        PSCENC =       853.39190890
  Ewald energy   TEWEN  =    -15642.36521300
  -Hartree energ DENC   =     -8328.32863039
  -exchange      EXHF   =         0.00000000
  -V(xc)+E(xc)   XCENC  =      1076.11589486
  PAW double counting   =     25532.31285184   -26433.18761714
  entropy T*S    EENTRO =        -0.03673049
  eigenvalues    EBANDS =      -770.81059808
  atomic energy  EATOM  =     23461.27160591
  Solvation  Ediel_sol  =         0.00000000
  ---------------------------------------------------
  free energy    TOTEN  =      -251.63652759 eV

  energy without entropy =     -251.59979709  energy(sigma->0) =     -251.61816234


--------------------------------------------------------------------------------------------------------




--------------------------------------- Iteration      1(  12)  ---------------------------------------


    POTLOK:  cpu time    0.1017: real time    0.1019
    SETDIJ:  cpu time    0.0156: real time    0.0157
     EDDAV:  cpu time    1.0818: real time    1.0844
    CHARGE:  cpu time    0.0963: real time    0.0966
    MIXING:  cpu time    0.0034: real time    0.0034
    --------------------------------------------
      LOOP:  cpu time    1.2988: real time    1.3019

 eigenvalue-minimisations  :   928
 total energy-change (2. order) : 0.1929927E+02  (-0.1110560E+02)
 number of electron     266.9999919 magnetization      13.9013887
 augmentation part       88.9353801 magnetization      13.0691419

 Broyden mixing:
  rms(total) = 0.37105E+01    rms(broyden)= 0.37097E+01
  rms(prec ) = 0.42372E+01
  weight for this iteration     100.00

 eigenvalues of (default mixing * dielectric matrix)
  average eigenvalue GAMMA=   0.4718
  0.9524  0.9524  0.4094  0.4094  0.2929  0.1566  0.1293

 Free energy of the ion-electron system (eV)
  ---------------------------------------------------
  alpha Z        PSCENC =       853.39190890
  Ewald energy   TEWEN  =    -15642.36521300
  -Hartree energ DENC   =     -8307.24174499
  -exchange      EXHF   =         0.00000000
  -V(xc)+E(xc)   XCENC  =      1076.01019647
  PAW double counting   =     26026.90404514   -26928.79922916
  entropy T*S    EENTRO =        -0.02959290
  eigenvalues    EBANDS =      -771.47923763
  atomic energy  EATOM  =     23461.27160591
  Solvation  Ediel_sol  =         0.00000000
  ---------------------------------------------------
  free energy    TOTEN  =      -232.33726126 eV

  energy without entropy =     -232.30766836  energy(sigma->0) =     -232.32246481


--------------------------------------------------------------------------------------------------------




--------------------------------------- Iteration      1(  13)  ---------------------------------------


    POTLOK:  cpu time    0.1020: real time    0.1022
    SETDIJ:  cpu time    0.0155: real time    0.0155
     EDDAV:  cpu time    1.1827: real time    1.1855
    CHARGE:  cpu time    0.0927: real time    0.0929
    MIXING:  cpu time    0.0029: real time    0.0029
    --------------------------------------------
      LOOP:  cpu time    1.3957: real time    1.3990

 eigenvalue-minimisations  :  1072
 total energy-change (2. order) : 0.6540036E+01  (-0.2423792E+01)
 number of electron     266.9999920 magnetization      13.0427215
 augmentation part       87.3624008 magnetization      12.2257857

 Broyden mixing:
  rms(total) = 0.26935E+01    rms(broyden)= 0.26929E+01
  rms(prec ) = 0.29890E+01
  weight for this iteration     100.00

 eigenvalues of (default mixing * dielectric matrix)
  average eigenvalue GAMMA=   0.4369
  0.8452  0.8452  0.4072  0.4072  0.3531  0.3531  0.1543  0.1300

 Free energy of the ion-electron system (eV)
  ---------------------------------------------------
  alpha Z        PSCENC =       853.39190890
  Ewald energy   TEWEN  =    -15642.36521300
  -Hartree energ DENC   =     -8329.82832503
  -exchange      EXHF   =         0.00000000
  -V(xc)+E(xc)   XCENC  =      1075.98917030
  PAW double counting   =     25971.89350146   -26873.40049563
  entropy T*S    EENTRO =        -0.02820939
  eigenvalues    EBANDS =      -742.72116869
  atomic energy  EATOM  =     23461.27160591
  Solvation  Ediel_sol  =         0.00000000
  ---------------------------------------------------
  free energy    TOTEN  =      -225.79722518 eV

  energy without entropy =     -225.76901579  energy(sigma->0) =     -225.78312048


--------------------------------------------------------------------------------------------------------




--------------------------------------- Iteration      1(  14)  ---------------------------------------


    POTLOK:  cpu time    0.0862: real time    0.0864
    SETDIJ:  cpu time    0.0134: real time    0.0135
     EDDAV:  cpu time    0.8934: real time    0.8955
    CHARGE:  cpu time    0.0735: real time    0.0737
    MIXING:  cpu time    0.0031: real time    0.0031
    --------------------------------------------
      LOOP:  cpu time    1.0696: real time    1.0721

 eigenvalue-minimisations  :   928
 total energy-change (2. order) : 0.5484765E+00  (-0.1212739E+01)
 number of electron     266.9999919 magnetization      12.1039107
 augmentation part       87.4529932 magnetization      11.2476086

 Broyden mixing:
  rms(total) = 0.19356E+01    rms(broyden)= 0.19354E+01
  rms(prec ) = 0.21801E+01
  weight for this iteration     100.00

 eigenvalues of (default mixing * dielectric matrix)
  average eigenvalue GAMMA=   0.4419
  0.8323  0.7146  0.7146  0.3904  0.3904  0.4366  0.2128  0.1554  0.1302

 Free energy of the ion-electron system (eV)
  ---------------------------------------------------
  alpha Z        PSCENC =       853.39190890
  Ewald energy   TEWEN  =    -15642.36521300
  -Hartree energ DENC   =     -8328.30494272
  -exchange      EXHF   =         0.00000000
  -V(xc)+E(xc)   XCENC  =      1075.73706158
  PAW double counting   =     26049.87990324   -26950.78681065
  entropy T*S    EENTRO =        -0.01700565
  eigenvalues    EBANDS =      -744.05525630
  atomic energy  EATOM  =     23461.27160591
  Solvation  Ediel_sol  =         0.00000000
  ---------------------------------------------------
  free energy    TOTEN  =      -225.24874869 eV

  energy without entropy =     -225.23174304  energy(sigma->0) =     -225.24024586


--------------------------------------------------------------------------------------------------------




--------------------------------------- Iteration      1(  15)  ---------------------------------------


    POTLOK:  cpu time    0.0859: real time    0.0861
    SETDIJ:  cpu time    0.0135: real time    0.0136
     EDDAV:  cpu time    1.0561: real time    1.0586
    CHARGE:  cpu time    0.0953: real time    0.0956
    MIXING:  cpu time    0.0039: real time    0.0039
    --------------------------------------------
      LOOP:  cpu time    1.2547: real time    1.2577

 eigenvalue-minimisations  :   976
 total energy-change (2. order) : 0.2680863E+00  (-0.1901933E+00)
 number of electron     266.9999920 magnetization       9.7380824
 augmentation part       87.7654812 magnetization       8.8353477

 Broyden mixing:
  rms(total) = 0.16448E+01    rms(broyden)= 0.16448E+01
  rms(prec ) = 0.18383E+01
  weight for this iteration     100.00

 eigenvalues of (default mixing * dielectric matrix)
  average eigenvalue GAMMA=   0.5303
  1.0344  1.0344  1.0060  0.6223  0.4006  0.4006  0.2977  0.1549  0.1301  0.2219

 Free energy of the ion-electron system (eV)
  ---------------------------------------------------
  alpha Z        PSCENC =       853.39190890
  Ewald energy   TEWEN  =    -15642.36521300
  -Hartree energ DENC   =     -8324.34812335
  -exchange      EXHF   =         0.00000000
  -V(xc)+E(xc)   XCENC  =      1075.43352708
  PAW double counting   =     26120.47360535   -27019.00800301
  entropy T*S    EENTRO =        -0.03778602
  eigenvalues    EBANDS =      -749.79218420
  atomic energy  EATOM  =     23461.27160591
  Solvation  Ediel_sol  =         0.00000000
  ---------------------------------------------------
  free energy    TOTEN  =      -224.98066235 eV

  energy without entropy =     -224.94287632  energy(sigma->0) =     -224.96176933


--------------------------------------------------------------------------------------------------------




--------------------------------------- Iteration      1(  16)  ---------------------------------------


    POTLOK:  cpu time    0.1280: real time    0.1283
    SETDIJ:  cpu time    0.0168: real time    0.0168
     EDDAV:  cpu time    1.0839: real time    1.0865
    CHARGE:  cpu time    0.0740: real time    0.0741
    MIXING:  cpu time    0.0033: real time    0.0034
    --------------------------------------------
      LOOP:  cpu time    1.3060: real time    1.3091

 eigenvalue-minimisations  :  1024
 total energy-change (2. order) :-0.2238668E+01  (-0.3786637E+00)
 number of electron     266.9999918 magnetization       8.7089672
 augmentation part       87.9243846 magnetization       7.8584048

 Broyden mixing:
  rms(total) = 0.14391E+01    rms(broyden)= 0.14389E+01
  rms(prec ) = 0.15997E+01
  weight for this iteration     100.00

 eigenvalues of (default mixing * dielectric matrix)
  average eigenvalue GAMMA=   0.5088
  1.0631  1.0631  1.0305  0.6139  0.4025  0.4025  0.2729  0.2729  0.1301  0.1550
  0.1906

 Free energy of the ion-electron system (eV)
  ---------------------------------------------------
  alpha Z        PSCENC =       853.39190890
  Ewald energy   TEWEN  =    -15642.36521300
  -Hartree energ DENC   =     -8325.16957593
  -exchange      EXHF   =         0.00000000
  -V(xc)+E(xc)   XCENC  =      1074.28296570
  PAW double counting   =     26285.81835289   -27181.12325407
  entropy T*S    EENTRO =        -0.00212763
  eigenvalues    EBANDS =      -753.32399307
  atomic energy  EATOM  =     23461.27160591
  Solvation  Ediel_sol  =         0.00000000
  ---------------------------------------------------
  free energy    TOTEN  =      -227.21933031 eV

  energy without entropy =     -227.21720267  energy(sigma->0) =     -227.21826649


--------------------------------------------------------------------------------------------------------




--------------------------------------- Iteration      1(  17)  ---------------------------------------


    POTLOK:  cpu time    0.0859: real time    0.0861
    SETDIJ:  cpu time    0.0134: real time    0.0135
     EDDAV:  cpu time    0.9308: real time    0.9330
    CHARGE:  cpu time    0.0742: real time    0.0743
    MIXING:  cpu time    0.0036: real time    0.0036
    --------------------------------------------
      LOOP:  cpu time    1.1078: real time    1.1105

 eigenvalue-minimisations  :   976
 total energy-change (2. order) :-0.1168232E+01  (-0.3373597E+00)
 number of electron     266.9999919 magnetization       5.9551188
 augmentation part       87.8778048 magnetization       5.1796860

 Broyden mixing:
  rms(total) = 0.11083E+01    rms(broyden)= 0.11081E+01
  rms(prec ) = 0.13158E+01
  weight for this iteration     100.00

 eigenvalues of (default mixing * dielectric matrix)
  average eigenvalue GAMMA=   0.5738
  1.3678  1.3678  0.9387  0.9387  0.4018  0.4018  0.4522  0.3071  0.1301  0.1549
  0.2127  0.2127

 Free energy of the ion-electron system (eV)
  ---------------------------------------------------
  alpha Z        PSCENC =       853.39190890
  Ewald energy   TEWEN  =    -15642.36521300
  -Hartree energ DENC   =     -8327.28006229
  -exchange      EXHF   =         0.00000000
  -V(xc)+E(xc)   XCENC  =      1073.65649997
  PAW double counting   =     26345.14457806   -27240.00687215
  entropy T*S    EENTRO =        -0.01463290
  eigenvalues    EBANDS =      -752.18537459
  atomic energy  EATOM  =     23461.27160591
  Solvation  Ediel_sol  =         0.00000000
  ---------------------------------------------------
  free energy    TOTEN  =      -228.38756209 eV

  energy without entropy =     -228.37292919  energy(sigma->0) =     -228.38024564


--------------------------------------------------------------------------------------------------------




--------------------------------------- Iteration      1(  18)  ---------------------------------------


    POTLOK:  cpu time    0.0859: real time    0.0861
    SETDIJ:  cpu time    0.0135: real time    0.0135
     EDDAV:  cpu time    0.8808: real time    0.8829
    CHARGE:  cpu time    0.0744: real time    0.0746
    MIXING:  cpu time    0.0036: real time    0.0036
    --------------------------------------------
      LOOP:  cpu time    1.0582: real time    1.0607

 eigenvalue-minimisations  :   912
 total energy-change (2. order) :-0.3252399E+01  (-0.4677226E+00)
 number of electron     266.9999919 magnetization       3.5828577
 augmentation part       87.6535167 magnetization       3.0201755

 Broyden mixing:
  rms(total) = 0.72808E+00    rms(broyden)= 0.72762E+00
  rms(prec ) = 0.87611E+00
  weight for this iteration     100.00

 eigenvalues of (default mixing * dielectric matrix)
  average eigenvalue GAMMA=   0.6196
  1.4981  1.4981  1.0068  1.0068  0.8495  0.4012  0.4012  0.4017  0.3022  0.1301
  0.1549  0.2024  0.2024

 Free energy of the ion-electron system (eV)
  ---------------------------------------------------
  alpha Z        PSCENC =       853.39190890
  Ewald energy   TEWEN  =    -15642.36521300
  -Hartree energ DENC   =     -8332.22805534
  -exchange      EXHF   =         0.00000000
  -V(xc)+E(xc)   XCENC  =      1072.26312455
  PAW double counting   =     26448.40672234   -27340.84671015
  entropy T*S    EENTRO =        -0.00394453
  eigenvalues    EBANDS =      -751.52939928
  atomic energy  EATOM  =     23461.27160591
  Solvation  Ediel_sol  =         0.00000000
  ---------------------------------------------------
  free energy    TOTEN  =      -231.63996060 eV

  energy without entropy =     -231.63601607  energy(sigma->0) =     -231.63798833


--------------------------------------------------------------------------------------------------------




--------------------------------------- Iteration      1(  19)  ---------------------------------------


    POTLOK:  cpu time    0.0862: real time    0.0864
    SETDIJ:  cpu time    0.0135: real time    0.0135
     EDDAV:  cpu time    0.8930: real time    0.8951
    CHARGE:  cpu time    0.0738: real time    0.0739
    MIXING:  cpu time    0.0037: real time    0.0037
    --------------------------------------------
      LOOP:  cpu time    1.0701: real time    1.0726

 eigenvalue-minimisations  :   928
 total energy-change (2. order) :-0.1588847E+01  (-0.3373282E+00)
 number of electron     266.9999919 magnetization       2.9963509
 augmentation part       87.8087440 magnetization       2.6681369

 Broyden mixing:
  rms(total) = 0.78267E+00    rms(broyden)= 0.78233E+00
  rms(prec ) = 0.87511E+00
  weight for this iteration     100.00

 eigenvalues of (default mixing * dielectric matrix)
  average eigenvalue GAMMA=   0.5830
  1.3827  1.3827  1.0441  1.0441  0.9985  0.4012  0.4012  0.4105  0.2989  0.1301
  0.1549  0.2055  0.2055  0.1017

 Free energy of the ion-electron system (eV)
  ---------------------------------------------------
  alpha Z        PSCENC =       853.39190890
  Ewald energy   TEWEN  =    -15642.36521300
  -Hartree energ DENC   =     -8325.51670179
  -exchange      EXHF   =         0.00000000
  -V(xc)+E(xc)   XCENC  =      1071.41742078
  PAW double counting   =     26577.14297244   -27467.32057845
  entropy T*S    EENTRO =        -0.04219642
  eigenvalues    EBANDS =      -761.20802599
  atomic energy  EATOM  =     23461.27160591
  Solvation  Ediel_sol  =         0.00000000
  ---------------------------------------------------
  free energy    TOTEN  =      -233.22880764 eV

  energy without entropy =     -233.18661121  energy(sigma->0) =     -233.20770942


--------------------------------------------------------------------------------------------------------




--------------------------------------- Iteration      1(  20)  ---------------------------------------


    POTLOK:  cpu time    0.0859: real time    0.0861
    SETDIJ:  cpu time    0.0135: real time    0.0135
     EDDAV:  cpu time    0.9175: real time    0.9197
    CHARGE:  cpu time    0.0739: real time    0.0741
    MIXING:  cpu time    0.0037: real time    0.0037
    --------------------------------------------
      LOOP:  cpu time    1.0945: real time    1.0971

 eigenvalue-minimisations  :   960
 total energy-change (2. order) :-0.1086367E+00  (-0.1184110E+00)
 number of electron     266.9999919 magnetization       2.4629378
 augmentation part       87.9623356 magnetization       2.0523980

 Broyden mixing:
  rms(total) = 0.42516E+00    rms(broyden)= 0.42499E+00
  rms(prec ) = 0.48819E+00
  weight for this iteration     100.00

 eigenvalues of (default mixing * dielectric matrix)
  average eigenvalue GAMMA=   0.6072
  1.8893  1.2525  1.2525  0.9058  0.9058  0.4012  0.4012  0.4406  0.4406  0.2876
  0.2588  0.1301  0.1549  0.2121  0.1748

 Free energy of the ion-electron system (eV)
  ---------------------------------------------------
  alpha Z        PSCENC =       853.39190890
  Ewald energy   TEWEN  =    -15642.36521300
  -Hartree energ DENC   =     -8321.21289149
  -exchange      EXHF   =         0.00000000
  -V(xc)+E(xc)   XCENC  =      1071.20564995
  PAW double counting   =     26625.05892077   -27515.06988978
  entropy T*S    EENTRO =        -0.04062019
  eigenvalues    EBANDS =      -765.57691535
  atomic energy  EATOM  =     23461.27160591
  Solvation  Ediel_sol  =         0.00000000
  ---------------------------------------------------
  free energy    TOTEN  =      -233.33744429 eV

  energy without entropy =     -233.29682410  energy(sigma->0) =     -233.31713419


--------------------------------------------------------------------------------------------------------




--------------------------------------- Iteration      1(  21)  ---------------------------------------


    POTLOK:  cpu time    0.0860: real time    0.0862
    SETDIJ:  cpu time    0.0134: real time    0.0135
     EDDAV:  cpu time    0.9102: real time    0.9124
    CHARGE:  cpu time    0.0744: real time    0.0746
    MIXING:  cpu time    0.0040: real time    0.0041
    --------------------------------------------
      LOOP:  cpu time    1.0881: real time    1.0907

 eigenvalue-minimisations  :   912
 total energy-change (2. order) :-0.7296463E-01  (-0.4618575E-01)
 number of electron     266.9999919 magnetization       2.3602151
 augmentation part       87.9874607 magnetization       2.0063797

 Broyden mixing:
  rms(total) = 0.51853E+00    rms(broyden)= 0.51841E+00
  rms(prec ) = 0.57555E+00
  weight for this iteration     100.00

 eigenvalues of (default mixing * dielectric matrix)
  average eigenvalue GAMMA=   0.6176
  1.7401  1.3816  1.3816  0.8915  0.8915  0.6316  0.6316  0.4010  0.4010  0.3755
  0.3047  0.2069  0.2069  0.1301  0.1549  0.1509

 Free energy of the ion-electron system (eV)
  ---------------------------------------------------
  alpha Z        PSCENC =       853.39190890
  Ewald energy   TEWEN  =    -15642.36521300
  -Hartree energ DENC   =     -8317.76957401
  -exchange      EXHF   =         0.00000000
  -V(xc)+E(xc)   XCENC  =      1071.05039461
  PAW double counting   =     26658.28972415   -27548.68959765
  entropy T*S    EENTRO =        -0.03997393
  eigenvalues    EBANDS =      -768.54968389
  atomic energy  EATOM  =     23461.27160591
  Solvation  Ediel_sol  =         0.00000000
  ---------------------------------------------------
  free energy    TOTEN  =      -233.41040892 eV

  energy without entropy =     -233.37043499  energy(sigma->0) =     -233.39042195


--------------------------------------------------------------------------------------------------------




--------------------------------------- Iteration      1(  22)  ---------------------------------------


    POTLOK:  cpu time    0.0858: real time    0.0860
    SETDIJ:  cpu time    0.0134: real time    0.0135
     EDDAV:  cpu time    0.9767: real time    0.9790
    CHARGE:  cpu time    0.0746: real time    0.0748
    MIXING:  cpu time    0.0042: real time    0.0042
    --------------------------------------------
      LOOP:  cpu time    1.1547: real time    1.1574

 eigenvalue-minimisations  :  1040
 total energy-change (2. order) : 0.3775877E-01  (-0.8659980E-02)
 number of electron     266.9999919 magnetization       2.2041241
 augmentation part       87.8948398 magnetization       1.7830638

 Broyden mixing:
  rms(total) = 0.40313E+00    rms(broyden)= 0.40312E+00
  rms(prec ) = 0.44455E+00
  weight for this iteration     100.00

 eigenvalues of (default mixing * dielectric matrix)
  average eigenvalue GAMMA=   0.6404
  1.6125  1.6125  1.5609  0.9354  0.9354  0.7422  0.7422  0.4011  0.4011  0.3897
  0.3897  0.2973  0.2121  0.2121  0.1301  0.1549  0.1583

 Free energy of the ion-electron system (eV)
  ---------------------------------------------------
  alpha Z        PSCENC =       853.39190890
  Ewald energy   TEWEN  =    -15642.36521300
  -Hartree energ DENC   =     -8317.06562370
  -exchange      EXHF   =         0.00000000
  -V(xc)+E(xc)   XCENC  =      1071.02916112
  PAW double counting   =     26655.92497218   -27547.61375934
  entropy T*S    EENTRO =        -0.03674421
  eigenvalues    EBANDS =      -767.90895800
  atomic energy  EATOM  =     23461.27160591
  Solvation  Ediel_sol  =         0.00000000
  ---------------------------------------------------
  free energy    TOTEN  =      -233.37265015 eV

  energy without entropy =     -233.33590594  energy(sigma->0) =     -233.35427804


--------------------------------------------------------------------------------------------------------




--------------------------------------- Iteration      1(  23)  ---------------------------------------


    POTLOK:  cpu time    0.0858: real time    0.0860
    SETDIJ:  cpu time    0.0135: real time    0.0135
     EDDAV:  cpu time    1.2086: real time    1.2115
    CHARGE:  cpu time    0.1013: real time    0.1016
    MIXING:  cpu time    0.0054: real time    0.0054
    --------------------------------------------
      LOOP:  cpu time    1.4147: real time    1.4180

 eigenvalue-minimisations  :  1072
 total energy-change (2. order) :-0.6077083E-02  (-0.6421416E-02)
 number of electron     266.9999919 magnetization       1.4910821
 augmentation part       87.8438458 magnetization       1.1094737

 Broyden mixing:
  rms(total) = 0.34104E+00    rms(broyden)= 0.34102E+00
  rms(prec ) = 0.39494E+00
  weight for this iteration     100.00

 eigenvalues of (default mixing * dielectric matrix)
  average eigenvalue GAMMA=   0.7214
  2.7752  1.5429  1.5429  0.9333  0.9333  0.9776  0.9776  0.4012  0.4012  0.5534
  0.4224  0.3599  0.3021  0.1301  0.2100  0.2100  0.1549  0.1567

 Free energy of the ion-electron system (eV)
  ---------------------------------------------------
  alpha Z        PSCENC =       853.39190890
  Ewald energy   TEWEN  =    -15642.36521300
  -Hartree energ DENC   =     -8314.12587033
  -exchange      EXHF   =         0.00000000
  -V(xc)+E(xc)   XCENC  =      1070.92076033
  PAW double counting   =     26655.81733411   -27548.65112166
  entropy T*S    EENTRO =        -0.03303470
  eigenvalues    EBANDS =      -769.60509680
  atomic energy  EATOM  =     23461.27160591
  Solvation  Ediel_sol  =         0.00000000
  ---------------------------------------------------
  free energy    TOTEN  =      -233.37872723 eV

  energy without entropy =     -233.34569253  energy(sigma->0) =     -233.36220988


--------------------------------------------------------------------------------------------------------




--------------------------------------- Iteration      1(  24)  ---------------------------------------


    POTLOK:  cpu time    0.0869: real time    0.0871
    SETDIJ:  cpu time    0.0135: real time    0.0135
     EDDAV:  cpu time    1.0039: real time    1.0063
    CHARGE:  cpu time    0.0850: real time    0.0852
    MIXING:  cpu time    0.0052: real time    0.0053
    --------------------------------------------
      LOOP:  cpu time    1.1945: real time    1.1973

 eigenvalue-minimisations  :  1008
 total energy-change (2. order) :-0.1524589E-02  (-0.1014988E-01)
 number of electron     266.9999919 magnetization       1.4160393
 augmentation part       87.8918077 magnetization       1.0648739

 Broyden mixing:
  rms(total) = 0.16719E+00    rms(broyden)= 0.16711E+00
  rms(prec ) = 0.19107E+00
  weight for this iteration     100.00

 eigenvalues of (default mixing * dielectric matrix)
  average eigenvalue GAMMA=   0.7079
  2.8700  1.5364  1.5364  0.9233  0.9233  0.9585  0.9585  0.4011  0.4011  0.4912
  0.4912  0.4306  0.3650  0.3017  0.1301  0.2101  0.2101  0.1549  0.1567

 Free energy of the ion-electron system (eV)
  ---------------------------------------------------
  alpha Z        PSCENC =       853.39190890
  Ewald energy   TEWEN  =    -15642.36521300
  -Hartree energ DENC   =     -8309.88675618
  -exchange      EXHF   =         0.00000000
  -V(xc)+E(xc)   XCENC  =      1070.77120618
  PAW double counting   =     26683.75178013   -27576.68461836
  entropy T*S    EENTRO =        -0.03622027
  eigenvalues    EBANDS =      -773.59394514
  atomic energy  EATOM  =     23461.27160591
  Solvation  Ediel_sol  =         0.00000000
  ---------------------------------------------------
  free energy    TOTEN  =      -233.38025182 eV

  energy without entropy =     -233.34403155  energy(sigma->0) =     -233.36214169


--------------------------------------------------------------------------------------------------------




--------------------------------------- Iteration      1(  25)  ---------------------------------------


    POTLOK:  cpu time    0.0985: real time    0.0987
    SETDIJ:  cpu time    0.0156: real time    0.0157
     EDDAV:  cpu time    0.9776: real time    0.9799
    CHARGE:  cpu time    0.0742: real time    0.0743
    MIXING:  cpu time    0.0045: real time    0.0046
    --------------------------------------------
      LOOP:  cpu time    1.1704: real time    1.1732

 eigenvalue-minimisations  :   976
 total energy-change (2. order) :-0.5463121E-02  (-0.3796402E-02)
 number of electron     266.9999919 magnetization       1.4015831
 augmentation part       87.8675818 magnetization       1.0578408

 Broyden mixing:
  rms(total) = 0.18096E+00    rms(broyden)= 0.18088E+00
  rms(prec ) = 0.19426E+00
  weight for this iteration     100.00

 eigenvalues of (default mixing * dielectric matrix)
  average eigenvalue GAMMA=   0.6839
  2.8376  1.5418  1.5418  0.9252  0.9252  0.9739  0.9739  0.4009  0.4009  0.4209
  0.4209  0.4315  0.3597  0.3597  0.3011  0.1301  0.2101  0.2101  0.1549  0.1567

 Free energy of the ion-electron system (eV)
  ---------------------------------------------------
  alpha Z        PSCENC =       853.39190890
  Ewald energy   TEWEN  =    -15642.36521300
  -Hartree energ DENC   =     -8310.06648425
  -exchange      EXHF   =         0.00000000
  -V(xc)+E(xc)   XCENC  =      1070.77023782
  PAW double counting   =     26680.25743438   -27573.21654900
  entropy T*S    EENTRO =        -0.03846913
  eigenvalues    EBANDS =      -773.39018657
  atomic energy  EATOM  =     23461.27160591
  Solvation  Ediel_sol  =         0.00000000
  ---------------------------------------------------
  free energy    TOTEN  =      -233.38571494 eV

  energy without entropy =     -233.34724581  energy(sigma->0) =     -233.36648038


--------------------------------------------------------------------------------------------------------




--------------------------------------- Iteration      1(  26)  ---------------------------------------


    POTLOK:  cpu time    0.0860: real time    0.0862
    SETDIJ:  cpu time    0.0136: real time    0.0136
     EDDAV:  cpu time    0.8301: real time    0.8321
    CHARGE:  cpu time    0.0742: real time    0.0744
    MIXING:  cpu time    0.0045: real time    0.0045
    --------------------------------------------
      LOOP:  cpu time    1.0085: real time    1.0109

 eigenvalue-minimisations  :   848
 total energy-change (2. order) :-0.5638326E-03  (-0.4498643E-03)
 number of electron     266.9999919 magnetization       1.2585741
 augmentation part       87.8619643 magnetization       0.9169357

 Broyden mixing:
  rms(total) = 0.16278E+00    rms(broyden)= 0.16277E+00
  rms(prec ) = 0.17455E+00
  weight for this iteration     100.00

 eigenvalues of (default mixing * dielectric matrix)
  average eigenvalue GAMMA=   0.7265
  3.0034  1.5331  1.5331  1.4006  0.8877  0.8877  0.8238  0.8238  0.7168  0.4011
  0.4011  0.4526  0.4337  0.4337  0.3604  0.3016  0.1301  0.2101  0.2101  0.1549
  0.1567

 Free energy of the ion-electron system (eV)
  ---------------------------------------------------
  alpha Z        PSCENC =       853.39190890
  Ewald energy   TEWEN  =    -15642.36521300
  -Hartree energ DENC   =     -8309.92378473
  -exchange      EXHF   =         0.00000000
  -V(xc)+E(xc)   XCENC  =      1070.76410190
  PAW double counting   =     26678.57003745   -27571.58551471
  entropy T*S    EENTRO =        -0.03799096
  eigenvalues    EBANDS =      -773.47142954
  atomic energy  EATOM  =     23461.27160591
  Solvation  Ediel_sol  =         0.00000000
  ---------------------------------------------------
  free energy    TOTEN  =      -233.38627877 eV

  energy without entropy =     -233.34828782  energy(sigma->0) =     -233.36728329


--------------------------------------------------------------------------------------------------------




--------------------------------------- Iteration      1(  27)  ---------------------------------------


    POTLOK:  cpu time    0.0858: real time    0.0860
    SETDIJ:  cpu time    0.0134: real time    0.0134
     EDDAV:  cpu time    0.9409: real time    0.9431
    CHARGE:  cpu time    0.0743: real time    0.0744
    MIXING:  cpu time    0.0048: real time    0.0048
    --------------------------------------------
      LOOP:  cpu time    1.1191: real time    1.1218

 eigenvalue-minimisations  :   992
 total energy-change (2. order) :-0.6445017E-02  (-0.1624477E-02)
 number of electron     266.9999919 magnetization       1.1587199
 augmentation part       87.8483308 magnetization       0.8154199

 Broyden mixing:
  rms(total) = 0.15032E+00    rms(broyden)= 0.15031E+00
  rms(prec ) = 0.16790E+00
  weight for this iteration     100.00

 eigenvalues of (default mixing * dielectric matrix)
  average eigenvalue GAMMA=   0.7391
  2.8899  1.5358  1.5358  1.5438  1.0417  1.0417  0.8946  0.8946  0.6074  0.5833
  0.5833  0.4011  0.4011  0.4419  0.3873  0.3010  0.3133  0.1301  0.2101  0.2101
  0.1549  0.1567

 Free energy of the ion-electron system (eV)
  ---------------------------------------------------
  alpha Z        PSCENC =       853.39190890
  Ewald energy   TEWEN  =    -15642.36521300
  -Hartree energ DENC   =     -8310.03738002
  -exchange      EXHF   =         0.00000000
  -V(xc)+E(xc)   XCENC  =      1070.74632628
  PAW double counting   =     26673.07073255   -27565.87687230
  entropy T*S    EENTRO =        -0.03832609
  eigenvalues    EBANDS =      -773.55550602
  atomic energy  EATOM  =     23461.27160591
  Solvation  Ediel_sol  =         0.00000000
  ---------------------------------------------------
  free energy    TOTEN  =      -233.39272379 eV

  energy without entropy =     -233.35439770  energy(sigma->0) =     -233.37356074


--------------------------------------------------------------------------------------------------------




--------------------------------------- Iteration      1(  28)  ---------------------------------------


    POTLOK:  cpu time    0.0857: real time    0.0860
    SETDIJ:  cpu time    0.0135: real time    0.0135
     EDDAV:  cpu time    0.9891: real time    0.9915
    CHARGE:  cpu time    0.0744: real time    0.0745
    MIXING:  cpu time    0.0050: real time    0.0050
    --------------------------------------------
      LOOP:  cpu time    1.1677: real time    1.1705

 eigenvalue-minimisations  :  1056
 total energy-change (2. order) : 0.1220393E-02  (-0.1131341E-02)
 number of electron     266.9999919 magnetization       1.0642140
 augmentation part       87.8423956 magnetization       0.7206550

 Broyden mixing:
  rms(total) = 0.84494E-01    rms(broyden)= 0.84483E-01
  rms(prec ) = 0.96202E-01
  weight for this iteration     100.00

 eigenvalues of (default mixing * dielectric matrix)
  average eigenvalue GAMMA=   0.7596
  3.2241  1.6339  1.6339  1.5364  0.9946  0.9946  0.9599  0.9599  0.7255  0.7255
  0.4011  0.4011  0.5091  0.5091  0.4094  0.3974  0.3022  0.2905  0.1301  0.2101
  0.2101  0.1549  0.1567

 Free energy of the ion-electron system (eV)
  ---------------------------------------------------
  alpha Z        PSCENC =       853.39190890
  Ewald energy   TEWEN  =    -15642.36521300
  -Hartree energ DENC   =     -8309.98544050
  -exchange      EXHF   =         0.00000000
  -V(xc)+E(xc)   XCENC  =      1070.73885671
  PAW double counting   =     26667.77539555   -27560.48615547
  entropy T*S    EENTRO =        -0.03814725
  eigenvalues    EBANDS =      -773.69431425
  atomic energy  EATOM  =     23461.27160591
  Solvation  Ediel_sol  =         0.00000000
  ---------------------------------------------------
  free energy    TOTEN  =      -233.39150340 eV

  energy without entropy =     -233.35335615  energy(sigma->0) =     -233.37242977


--------------------------------------------------------------------------------------------------------




--------------------------------------- Iteration      1(  29)  ---------------------------------------


    POTLOK:  cpu time    0.0857: real time    0.0859
    SETDIJ:  cpu time    0.0134: real time    0.0135
     EDDAV:  cpu time    0.9685: real time    0.9708
    CHARGE:  cpu time    0.0745: real time    0.0746
    MIXING:  cpu time    0.0049: real time    0.0049
    --------------------------------------------
      LOOP:  cpu time    1.1470: real time    1.1498

[...]
    142       4.8516      0.00000
    143       4.8516      0.00000
    144       4.9236      0.00000
    145       4.9944      0.00000
    146       4.9944      0.00000
    147       5.2125      0.00000
    148       5.3071      0.00000
    149       5.3768      0.00000
    150       5.3768      0.00000
    151       5.4075      0.00000
    152       5.4075      0.00000
    153       5.4322      0.00000
    154       5.4322      0.00000
    155       5.4660      0.00000
    156       5.5121      0.00000
    157       5.5121      0.00000
    158      10.7089      0.00000
    159      11.9587      0.00000
    160      12.0387      0.00000
    161      13.4203      0.00000
    162      13.8017      0.00000
    163      13.8228      0.00000
    164      13.8228      0.00000
    165      14.2176      0.00000
    166      14.4674      0.00000
    167      14.4674      0.00000
    168      14.7674      0.00000
    169      15.3907      0.00000
    170      15.3907      0.00000
    171      15.4741      0.00000
    172      15.4741      0.00000
    173      15.8159      0.00000
    174      15.9749      0.00000
    175      16.0883      0.00000
    176      16.0883      0.00000


--------------------------------------------------------------------------------------------------------


 soft charge-density along one line, spin component           1
         0         1         2         3         4         5         6         7         8         9
 total charge-density along one line
 
 soft charge-density along one line, spin component           2
         0         1         2         3         4         5         6         7         8         9
 total charge-density along one line
 
 pseudopotential strength for first ion, spin component:           1
-36.978   3.869   0.000  -0.000   0.000
  3.869 -10.388  -0.000   0.000  -0.000
  0.000  -0.000   0.055  -0.000   0.000
 -0.000   0.000  -0.000   0.055  -0.000
  0.000  -0.000   0.000  -0.000   0.055
 pseudopotential strength for first ion, spin component:           2
-36.977   3.870   0.000  -0.000   0.000
  3.870 -10.389  -0.000   0.000  -0.000
  0.000  -0.000   0.057  -0.000   0.000
 -0.000   0.000  -0.000   0.057  -0.000
  0.000  -0.000   0.000  -0.000   0.057
 total augmentation occupancy for first ion, spin component:           1
  2.004   0.034   0.000  -0.000   0.000
  0.034   0.803  -0.001   0.001  -0.001
  0.000  -0.001   0.033   0.002  -0.002
 -0.000   0.001   0.002   0.033   0.002
  0.000  -0.001  -0.002   0.002   0.033
 total augmentation occupancy for first ion, spin component:           2
  0.000  -0.000  -0.000   0.000  -0.000
 -0.000   0.008   0.001  -0.001   0.001
 -0.000   0.001   0.001  -0.000   0.000
  0.000  -0.001  -0.000   0.001  -0.000
 -0.000   0.001   0.000  -0.000   0.001


------------------------ aborting loop because EDIFF is reached ----------------------------------------


    CHARGE:  cpu time    0.0730: real time    0.0732
    FORLOC:  cpu time    0.0138: real time    0.0138
    FORNL :  cpu time    0.2952: real time    0.2959
    STRESS:  cpu time    0.8924: real time    0.8945
    FORCOR:  cpu time    0.0895: real time    0.0898
    FORHAR:  cpu time    0.0212: real time    0.0213
    MIXING:  cpu time    0.0023: real time    0.0023
    OFIELD:  cpu time    0.0000: real time    0.0000

  FORCE on cell =-STRESS in cart. coord.  units (eV):
  Direction    XX          YY          ZZ          XY          YZ          ZX
  --------------------------------------------------------------------------------------
  Alpha Z   853.26343   853.26343   853.26343
  Ewald   -5213.84189 -5213.84191 -5213.84189  -109.85477   109.85477   109.85473
  Hartree  2770.15453  2770.15453  2770.15453   -61.15068    61.15068    61.15068
  E(xc)   -1363.90056 -1363.90052 -1363.90056    -0.09234     0.09234     0.09230
  Local   -2802.10587 -2802.10476 -2802.10587   161.68596  -161.68596  -161.68703
  n-local  -606.11805  -606.11808  -606.11805    -1.12126     1.12126     1.12128
  augment  2266.32301  2266.32219  2266.32301     5.52470    -5.52470    -5.52389
  Kinetic  4096.08221  4096.08229  4096.08221     4.96773    -4.96773    -4.96770
  Fock        0.00000     0.00000     0.00000     0.00000     0.00000     0.00000
  -------------------------------------------------------------------------------------
  Total       -0.1430760     -0.1430760     -0.1430760     -0.0405646      0.0405646      0.0405646
  in kB       -0.6232074     -0.6232074     -0.6232074     -0.1766905      0.1766905      0.1766905
  external PRESSURE =      -0.6232074 kB  Pullay stress =       0.0000000 kB


 VOLUME and BASIS-vectors are now :
 -----------------------------------------------------------------------------
  energy-cutoff  :      500.00
  volume of cell :      367.83
      direct lattice vectors                 reciprocal lattice vectors
    -0.000000000  3.966329151  3.966329151     0.084040764  0.084040764  0.168081529
     3.966329151 -3.966329151  0.000000000     0.168081529 -0.084040764  0.084040764
     7.793742725  7.793742725 -7.793742725     0.042769353  0.042769353 -0.042769353

  length of vectors
     5.609236478  5.609236478 13.499158381     0.205856990  0.205856990  0.074078692


 FORCES acting on ions
    electron-ion (+dipol)            ewald-force                    non-local-force                 convergence-correction
 -----------------------------------------------------------------------------------------------
   -.272E+01 -.272E+01 0.272E+01   0.270E+01 0.270E+01 -.270E+01   0.288E-01 0.288E-01 -.288E-01   0.539E-02 0.539E-02 -.539E-02
   0.351E+01 0.351E+01 -.485E+01   -.353E+01 -.353E+01 0.486E+01   0.389E-01 0.389E-01 -.347E-01   -.180E-01 -.180E-01 0.187E-01
   0.125E+02 0.125E+02 -.277E+02   -.124E+02 -.124E+02 0.283E+02   -.126E+00 -.126E+00 -.583E+00   0.406E-01 0.406E-01 -.227E-01
   -.213E+02 -.213E+02 0.271E+02   0.216E+02 0.216E+02 -.274E+02   -.318E+00 -.318E+00 0.277E+00   -.141E-01 -.141E-01 -.107E-01
   0.351E+01 0.485E+01 -.351E+01   -.353E+01 -.486E+01 0.353E+01   0.389E-01 0.347E-01 -.389E-01   -.180E-01 -.187E-01 0.180E-01
   0.125E+02 0.277E+02 -.125E+02   -.124E+02 -.283E+02 0.124E+02   -.126E+00 0.583E+00 0.126E+00   0.406E-01 0.227E-01 -.406E-01
   -.213E+02 -.271E+02 0.213E+02   0.216E+02 0.274E+02 -.216E+02   -.318E+00 -.277E+00 0.318E+00   -.141E-01 0.107E-01 0.141E-01
   0.485E+01 0.351E+01 -.351E+01   -.486E+01 -.353E+01 0.353E+01   0.347E-01 0.389E-01 -.389E-01   -.187E-01 -.180E-01 0.180E-01
   0.277E+02 0.125E+02 -.125E+02   -.283E+02 -.124E+02 0.124E+02   0.583E+00 -.126E+00 0.126E+00   0.227E-01 0.406E-01 -.406E-01
   -.271E+02 -.213E+02 0.213E+02   0.274E+02 0.216E+02 -.216E+02   -.277E+00 -.318E+00 0.318E+00   0.107E-01 -.141E-01 0.141E-01
   0.119E+02 0.119E+02 -.119E+02   -.120E+02 -.120E+02 0.120E+02   0.665E-01 0.665E-01 -.665E-01   -.705E-02 -.705E-02 0.705E-02
   0.332E+01 0.332E+01 -.332E+01   -.372E+01 -.372E+01 0.372E+01   0.397E+00 0.397E+00 -.397E+00   0.638E-02 0.637E-02 -.638E-02
   -.907E+01 -.907E+01 0.907E+01   0.910E+01 0.910E+01 -.910E+01   -.541E-02 -.541E-02 0.541E-02   -.197E-01 -.197E-01 0.197E-01
   0.225E+03 0.225E+03 0.196E+03   -.241E+03 -.241E+03 -.211E+03   0.157E+02 0.157E+02 0.154E+02   -.762E-03 -.762E-03 -.143E-01
   0.203E+03 0.203E+03 0.225E+03   -.218E+03 -.218E+03 -.241E+03   0.150E+02 0.150E+02 0.163E+02   0.650E-02 0.650E-02 0.811E-02
   0.211E+03 0.211E+03 0.216E+03   -.227E+03 -.227E+03 -.232E+03   0.155E+02 0.155E+02 0.159E+02   -.112E-01 -.112E-01 0.161E-01
   0.225E+03 -.196E+03 -.225E+03   -.241E+03 0.211E+03 0.241E+03   0.157E+02 -.154E+02 -.157E+02   -.762E-03 0.143E-01 0.762E-03
   0.203E+03 -.225E+03 -.203E+03   -.218E+03 0.241E+03 0.218E+03   0.150E+02 -.163E+02 -.150E+02   0.650E-02 -.811E-02 -.650E-02
   0.211E+03 -.216E+03 -.211E+03   -.227E+03 0.232E+03 0.227E+03   0.155E+02 -.159E+02 -.155E+02   -.112E-01 -.161E-01 0.112E-01
   -.196E+03 0.225E+03 -.225E+03   0.211E+03 -.241E+03 0.241E+03   -.154E+02 0.157E+02 -.157E+02   0.143E-01 -.762E-03 0.762E-03
   -.225E+03 0.203E+03 -.203E+03   0.241E+03 -.218E+03 0.218E+03   -.163E+02 0.150E+02 -.150E+02   -.811E-02 0.650E-02 -.650E-02
   -.216E+03 0.211E+03 -.211E+03   0.232E+03 -.227E+03 0.227E+03   -.159E+02 0.155E+02 -.155E+02   -.161E-01 -.112E-01 0.112E-01
   -.209E+03 -.209E+03 0.209E+03   0.224E+03 0.224E+03 -.224E+03   -.149E+02 -.149E+02 0.149E+02   -.106E-01 -.106E-01 0.106E-01
   -.211E+03 -.211E+03 0.211E+03   0.225E+03 0.225E+03 -.225E+03   -.140E+02 -.140E+02 0.140E+02   0.250E-01 0.250E-01 -.250E-01
   -.224E+03 -.224E+03 0.224E+03   0.239E+03 0.239E+03 -.239E+03   -.145E+02 -.145E+02 0.145E+02   -.939E-02 -.939E-02 0.939E-02
   -.207E+03 -.207E+03 -.222E+03   0.222E+03 0.222E+03 0.238E+03   -.154E+02 -.154E+02 -.161E+02   -.855E-02 -.855E-02 0.973E-02
   -.180E+03 -.180E+03 -.180E+03   0.190E+03 0.190E+03 0.189E+03   -.978E+01 -.978E+01 -.955E+01   0.242E-01 0.242E-01 -.303E-01
   -.223E+03 -.223E+03 -.205E+03   0.238E+03 0.238E+03 0.221E+03   -.154E+02 -.154E+02 -.160E+02   -.863E-02 -.863E-02 0.508E-02
   -.207E+03 0.222E+03 0.207E+03   0.222E+03 -.238E+03 -.222E+03   -.154E+02 0.161E+02 0.154E+02   -.855E-02 -.973E-02 0.855E-02
   -.180E+03 0.180E+03 0.180E+03   0.190E+03 -.189E+03 -.190E+03   -.978E+01 0.955E+01 0.978E+01   0.242E-01 0.303E-01 -.242E-01
   -.223E+03 0.205E+03 0.223E+03   0.238E+03 -.221E+03 -.238E+03   -.154E+02 0.160E+02 0.154E+02   -.863E-02 -.508E-02 0.863E-02
   0.222E+03 -.207E+03 0.207E+03   -.238E+03 0.222E+03 -.222E+03   0.161E+02 -.154E+02 0.154E+02   -.973E-02 -.855E-02 0.855E-02
   0.180E+03 -.180E+03 0.180E+03   -.189E+03 0.190E+03 -.190E+03   0.955E+01 -.978E+01 0.978E+01   0.303E-01 0.242E-01 -.242E-01
   0.205E+03 -.223E+03 0.223E+03   -.221E+03 0.238E+03 -.238E+03   0.160E+02 -.154E+02 0.154E+02   -.508E-02 -.863E-02 0.863E-02
   0.214E+03 0.214E+03 -.214E+03   -.228E+03 -.228E+03 0.228E+03   0.149E+02 0.149E+02 -.149E+02   -.101E-01 -.101E-01 0.101E-01
   0.223E+03 0.223E+03 -.223E+03   -.238E+03 -.238E+03 0.238E+03   0.143E+02 0.143E+02 -.143E+02   0.754E-02 0.754E-02 -.754E-02
   0.179E+03 0.179E+03 -.179E+03   -.189E+03 -.189E+03 0.189E+03   0.931E+01 0.931E+01 -.931E+01   0.320E-02 0.320E-02 -.320E-02
 -----------------------------------------------------------------------------------------------
   -.299E+00 -.299E+00 0.299E+00   -.568E-13 0.568E-13 -.369E-12   0.265E+00 0.265E+00 -.265E+00   0.308E-01 0.308E-01 -.308E-01
 
 
 POSITION                                       TOTAL-FORCE (eV/Angst)
 -----------------------------------------------------------------------------------
      2.93815     -1.02818     -0.95499         0.011170      0.011170     -0.011170
      7.83909      3.87276     -3.87338        -0.000301     -0.000301     -0.003116
     11.74645      7.78012     -3.81923        -0.006507     -0.006507      0.007429
      3.92893      3.92893      0.03241         0.000494      0.000494      0.000924
      7.83909      5.85654     -1.88959        -0.000301      0.003116      0.000301
     11.74645      5.80240     -5.79696        -0.006507     -0.007429      0.006507
      3.92893      1.95075     -1.94577         0.000494     -0.000924     -0.000494
      5.85654      7.83909     -1.88959         0.003116     -0.000301      0.000301
      9.76873      7.78012     -5.79696        -0.007429     -0.006507      0.006507
      5.91708     -0.03740     -1.94577        -0.000924      0.000494     -0.000494
      9.79267      5.82634     -3.84318        -0.002114     -0.002114      0.002114
      1.97665      1.97665      0.00652         0.001941      0.001941     -0.001941
      5.88352      1.91719     -3.90036         0.004240      0.004240     -0.004240
      9.89565      5.92932     -5.71245         0.001246      0.001246      0.001302
      2.07639      2.07639     -1.85250        -0.001173     -0.001173      0.005599
      5.98779      5.98779     -1.79663         0.000868      0.000868      0.002918
      9.89565      7.69561     -3.94616         0.001246     -0.001302     -0.001246
      2.07639      3.83567     -0.09323        -0.001173     -0.005599      0.001173
      5.98779      3.77980     -4.00463         0.000868     -0.002918     -0.000868
      7.69561      9.89565     -3.94616        -0.001302      0.001246     -0.001246
      3.83567      2.07639     -0.09323        -0.005599     -0.001173      0.001173
      7.74613      2.02146     -4.00463        -0.002918      0.000868     -0.000868
      7.69238      3.72605     -5.70922        -0.001489     -0.001489      0.001489
      3.80865     -0.15768      2.14084         0.003152      0.003152     -0.003152
      3.78973      3.78973     -1.80656        -0.001021     -0.001021      0.001021
      9.69257      5.72624     -1.98623        -0.000424     -0.000424     -0.002360
      1.85191      1.85191      1.88970         0.001391      0.001391      0.000033
      5.77862      1.81230     -2.03642        -0.000171     -0.000171     -0.001263
      9.69257      3.96940     -3.74308        -0.000424      0.002360      0.000424
      1.85191      0.09346      0.13125         0.001391     -0.000033     -0.001391
      5.77862      4.01958      0.17087        -0.000171      0.001263      0.000171
      7.93573      5.72624     -3.74308         0.002360     -0.000424      0.000424
      4.05979     -2.11442      0.13125        -0.000033      0.001391     -0.001391
      4.01958      5.77862      0.17087         0.001263     -0.000171      0.000171
      7.98605      4.01972     -2.03656         0.000238      0.000238     -0.000238
      7.93151      7.93151     -5.94834         0.001632      0.001632     -0.001632
      4.06663      0.10031     -2.08347         0.002872      0.002872     -0.002872
 -----------------------------------------------------------------------------------
    total drift:                               -0.002842     -0.003111      0.002842


--------------------------------------------------------------------------------------------------------



  FREE ENERGIE OF THE ION-ELECTRON SYSTEM (eV)
  ---------------------------------------------------
  free  energy   TOTEN  =      -233.3899167329 eV

  energy  without entropy=     -233.3500779487  energy(sigma->0) =     -233.36999734
 
 d Force = 0.4028932E-04[ 0.116E-04, 0.690E-04]  d Energy = 0.3673177E-04 0.356E-05
 d Force = 0.1767823E+00[ 0.176E+00, 0.177E+00]  d Ewald  = 0.1109701E+00 0.658E-01


--------------------------------------------------------------------------------------------------------


    POTLOK:  cpu time    0.1001: real time    0.1004


--------------------------------------------------------------------------------------------------------


 Quasi-Newton relaxation of ions (Broydens 2nd method)
  g(Force)  = 0.560E-04   g(Stress)= 0.929E-04

 retain information from N=  1 steps
 eigenvalues of (default step * inverse Hessian matrix)
  average eigenvalue of G=   0.3170
 eigenvalue spectrum of G is  0.3170


--------------------------------------------------------------------------------------------------------


  
 reached required accuracy - stopping structural energy minimisation
     LOOP+:  cpu time    6.2879: real time    6.3534
    4ORBIT:  cpu time    0.0000: real time    0.0000

volume of typ            1:     2.1 %

volume of typ            2:    20.8 %

volume of typ            3:    10.6 %
 
total charge     
 
# of ion       s       p       d       tot
------------------------------------------
    1        2.108   0.337   0.129   2.573
    2        0.300   0.428   7.837   8.565
    3        0.296   0.422   7.844   8.562
    4        0.298   0.425   7.842   8.565
    5        0.300   0.428   7.837   8.565
    6        0.296   0.422   7.844   8.562
    7        0.298   0.425   7.842   8.565
    8        0.300   0.428   7.837   8.565
    9        0.296   0.422   7.844   8.562
   10        0.298   0.425   7.842   8.565
   11        0.296   0.414   7.837   8.547
   12        0.289   0.400   7.842   8.532
   13        0.296   0.414   7.837   8.547
   14        1.280   2.732   0.008   4.020
   15        1.279   2.736   0.008   4.024
   16        1.281   2.730   0.008   4.020
   17        1.280   2.732   0.008   4.020
   18        1.279   2.736   0.008   4.024
   19        1.281   2.730   0.008   4.020
   20        1.280   2.732   0.008   4.020
   21        1.279   2.736   0.008   4.024
   22        1.281   2.730   0.008   4.020
   23        1.283   2.729   0.009   4.021
   24        1.281   2.740   0.009   4.030
   25        1.284   2.728   0.009   4.020
   26        1.282   2.730   0.008   4.020
   27        1.263   2.789   0.007   4.058
   28        1.281   2.731   0.008   4.020
   29        1.282   2.730   0.008   4.020
   30        1.263   2.789   0.007   4.058
   31        1.281   2.731   0.008   4.020
   32        1.282   2.730   0.008   4.020
   33        1.263   2.789   0.007   4.058
   34        1.281   2.731   0.008   4.020
   35        1.284   2.727   0.009   4.020
   36        1.283   2.730   0.009   4.022
   37        1.268   2.781   0.008   4.056
--------------------------------------------------
tot          36.35   71.17   94.41  201.93
 
magnetization (x)
 
# of ion       s       p       d       tot
------------------------------------------
    1        0.001   0.004   0.001   0.006
    2       -0.000  -0.000   0.010   0.009
    3       -0.000  -0.000   0.086   0.085
    4       -0.000  -0.000   0.065   0.064
    5       -0.000  -0.000   0.010   0.009
    6       -0.000  -0.000   0.086   0.085
    7       -0.000  -0.000   0.065   0.064
    8       -0.000  -0.000   0.010   0.009
    9       -0.000  -0.000   0.086   0.085
   10       -0.000  -0.000   0.065   0.064
   11       -0.000  -0.000  -0.003  -0.003
   12       -0.000  -0.000   0.115   0.115
   13       -0.000  -0.000   0.012   0.012
   14        0.001   0.016   0.000   0.016
   15        0.001   0.012   0.000   0.013
   16        0.000   0.005   0.000   0.005
   17        0.001   0.016   0.000   0.016
   18        0.001   0.012   0.000   0.013
   19        0.000   0.005   0.000   0.005
   20        0.001   0.016   0.000   0.016
   21        0.001   0.012   0.000   0.013
   22        0.000   0.005   0.000   0.005
   23        0.000   0.004   0.000   0.004
   24        0.002   0.022   0.000   0.024
   25        0.003   0.049   0.000   0.053
   26        0.000  -0.000   0.000  -0.000
   27        0.003   0.020   0.000   0.023
   28        0.000   0.002   0.000   0.002
   29        0.000  -0.000   0.000  -0.000
   30        0.003   0.020   0.000   0.023
   31        0.000   0.002   0.000   0.002
   32        0.000  -0.000   0.000  -0.000
   33        0.003   0.020   0.000   0.023
   34        0.000   0.002   0.000   0.002
   35        0.000   0.003   0.000   0.004
   36        0.002   0.022   0.000   0.024
   37        0.004   0.028   0.000   0.032
--------------------------------------------------
tot           0.03    0.29    0.61    0.92
 

 total amount of memory used by VASP MPI-rank0    74912. kBytes
=======================================================================

   base      :      30000. kBytes
   nonlr-proj:      16025. kBytes
   fftplans  :       3944. kBytes
   grid      :      22651. kBytes
   one-center:        575. kBytes
   wavefun   :       1717. kBytes
 
  
  
 General timing and accounting informations for this job:
 ========================================================
  
                  Total CPU time used (sec):       69.989
                            User time (sec):       68.609
                          System time (sec):        1.380
                         Elapsed time (sec):       74.726
  
                   Maximum memory used (kb):      107932.
                   Average memory used (kb):           0.
  
                          Minor page faults:        28116
                          Major page faults:           49
                 Voluntary context switches:          862
