 vasp.5.4.4.18Apr17-6-g9f103f2a35 (build May 12 2020 05:39:39) gamma-only       
  
 MD_VERSION_INFO: Compiled 2020-05-12T12:39:39-UTC in devlin.sd.materialsdesign.
 com:/home/medea2/data/build/wwolf/vasp-gpu5.4.4/13047/x86_64/src/src/build/gam 
 from svn 13047
 
 This VASP executable licensed from Materials Design, Inc.
 
 executed on                        Lin64 date 2023.02.09  14:33:06
 running on   16 total cores
 distrk:  each k-point on   16 cores,    1 groups
 distr:  one band on NCORES_PER_BAND=   1 cores,   16 groups


--------------------------------------------------------------------------------------------------------


 INCAR:
 POTCAR:    PAW_PBE Li_sv 10Sep2004               
 POTCAR:    PAW_PBE Ni 02Aug2007                  
 POTCAR:    PAW_PBE O 08Apr2002                   

 ----------------------------------------------------------------------------- 
|                                                                             |
|           W    W    AA    RRRRR   N    N  II  N    N   GGGG   !!!           |
|           W    W   A  A   R    R  NN   N  II  NN   N  G    G  !!!           |
|           W    W  A    A  R    R  N N  N  II  N N  N  G       !!!           |
|           W WW W  AAAAAA  RRRRR   N  N N  II  N  N N  G  GGG   !            |
|           WW  WW  A    A  R   R   N   NN  II  N   NN  G    G                |
|           W    W  A    A  R    R  N    N  II  N    N   GGGG   !!!           |
|                                                                             |
|      For optimal performance we recommend to set                            |
|        NCORE= 4 - approx SQRT( number of cores)                             |
|      NCORE specifies how many cores store one orbital (NPAR=cpu/NCORE).     |
|      This setting can  greatly improve the performance of VASP for DFT.     |
|      The default,   NCORE=1            might be grossly inefficient         |
|      on modern multi-core architectures or massively parallel machines.     |
|      Do your own testing !!!!                                               |
|      Unfortunately you need to use the default for GW and RPA calculations. |
|      (for HF NCORE is supported but not extensively tested yet)             |
|                                                                             |
 ----------------------------------------------------------------------------- 

 POTCAR:    PAW_PBE Li_sv 10Sep2004               
  local pseudopotential read in
  atomic valenz-charges read in
  non local Contribution for L=           0  read in
    real space projection operators read in
  non local Contribution for L=           0  read in
    real space projection operators read in
  non local Contribution for L=           1  read in
    real space projection operators read in
    PAW grid and wavefunctions read in
 
   number of l-projection  operators is LMAX  =           3
   number of lm-projection operators is LMMAX =           5
 
 POTCAR:    PAW_PBE Ni 02Aug2007                  
  local pseudopotential read in
  partial core-charges read in
  partial kinetic energy density read in
  atomic valenz-charges read in
  non local Contribution for L=           2  read in
    real space projection operators read in
  non local Contribution for L=           2  read in
    real space projection operators read in
  non local Contribution for L=           0  read in
    real space projection operators read in
  non local Contribution for L=           0  read in
    real space projection operators read in
  non local Contribution for L=           1  read in
    real space projection operators read in
  non local Contribution for L=           1  read in
    real space projection operators read in
    PAW grid and wavefunctions read in
 
   number of l-projection  operators is LMAX  =           6
   number of lm-projection operators is LMMAX =          18
 
 POTCAR:    PAW_PBE O 08Apr2002                   
  local pseudopotential read in
  partial core-charges read in
  partial kinetic energy density read in
  kinetic energy density of atom read in
  atomic valenz-charges read in
  non local Contribution for L=           0  read in
    real space projection operators read in
  non local Contribution for L=           0  read in
    real space projection operators read in
  non local Contribution for L=           1  read in
    real space projection operators read in
  non local Contribution for L=           1  read in
    real space projection operators read in
    PAW grid and wavefunctions read in
 
   number of l-projection  operators is LMAX  =           4
   number of lm-projection operators is LMMAX =           8
 
 Optimization of the real space projectors (new method)

 maximal supplied QI-value         = 22.11
 optimisation between [QCUT,QGAM] = [ 11.28, 22.77] = [ 35.61,145.23] Ry 
 Optimized for a Real-space Cutoff    1.10 Angstroem

   l    n(q)    QCUT    max X(q) W(low)/X(q) W(high)/X(q)  e(spline) 
   0      7    11.276    10.506    0.54E-04    0.58E-04    0.16E-07
   0      7    11.276     8.367    0.11E-03    0.14E-03    0.35E-07
   1      7    11.276     8.983    0.23E-03    0.43E-03    0.86E-07
 Optimization of the real space projectors (new method)

 maximal supplied QI-value         = 16.25
 optimisation between [QCUT,QGAM] = [ 11.38, 22.75] = [ 36.24,144.96] Ry 
 Optimized for a Real-space Cutoff    1.47 Angstroem

   l    n(q)    QCUT    max X(q) W(low)/X(q) W(high)/X(q)  e(spline) 
   2      9    11.376    60.317    0.17E-03    0.16E-04    0.16E-06
   2      9    11.376    55.921    0.17E-03    0.16E-04    0.17E-06
   0     10    11.376    51.690    0.45E-04    0.60E-04    0.21E-06
   0     10    11.376    30.015    0.37E-04    0.55E-04    0.19E-06
   1     10    11.376    18.849    0.83E-04    0.11E-03    0.92E-07
   1     10    11.376    14.624    0.69E-04    0.92E-04    0.82E-07
 Optimization of the real space projectors (new method)

 maximal supplied QI-value         = 24.76
 optimisation between [QCUT,QGAM] = [ 11.39, 22.77] = [ 36.31,145.25] Ry 
 Optimized for a Real-space Cutoff    1.10 Angstroem

   l    n(q)    QCUT    max X(q) W(low)/X(q) W(high)/X(q)  e(spline) 
   0      7    11.387    20.381    0.22E-03    0.48E-03    0.18E-06
   0      7    11.387    15.268    0.22E-03    0.52E-03    0.19E-06
   1      7    11.387     5.964    0.22E-03    0.73E-03    0.24E-06
   1      7    11.387     5.382    0.19E-03    0.60E-03    0.21E-06

 ----------------------------------------------------------------------------- 
|                                                                             |
|  ADVICE TO THIS USER RUNNING 'VASP/VAMP'   (HEAR YOUR MASTER'S VOICE ...):  |
|                                                                             |
|      You enforced a specific xc-type in the INCAR file,                     |
|      a different type was found on the POTCAR file                          |
|          I HOPE YOU KNOW, WHAT YOU ARE  DOING                               |
|                                                                             |
 ----------------------------------------------------------------------------- 

  PAW_PBE Li_sv 10Sep2004               :
 energy of atom  1       EATOM= -202.7858
 kinetic energy error for atom=    0.0143 (will be added to EATOM!!)
  PAW_PBE Ni 02Aug2007                  :
 energy of atom  2       EATOM=-1077.6739
 kinetic energy error for atom=    0.0030 (will be added to EATOM!!)
  PAW_PBE O 08Apr2002                   :
 energy of atom  3       EATOM= -432.3788
 kinetic energy error for atom=    0.0224 (will be added to EATOM!!)
 
 
 POSCAR: ce75_1                                  
  positions in direct lattice
  No initial velocities read in
 exchange correlation table for  LEXCH =       14
   RHO(1)=    0.500       N(1)  =     2000
   RHO(2)=  100.500       N(2)  =     4000
 


--------------------------------------------------------------------------------------------------------


 ion  position               nearest neighbor table
   1  0.942  0.471  0.087-  39 1.88  43 1.88  35 1.88  48 2.05
   2  0.558  0.779  0.163-  23 1.88  27 1.88  19 1.88  31 2.05
   3  0.001  0.001  0.998-  30 1.85  26 1.85  47 1.86  39 1.86  43 1.86  31 1.87  18 2.76  15 2.81
                             7 2.81  11 2.81  11 2.81   7 2.81
   4  0.499  0.249  0.252-  44 1.85  40 1.85  32 1.86  23 1.86  27 1.86  48 1.87  16 2.76  15 2.81
                             8 2.81  12 2.81  12 2.81   8 2.81
   5  1.000  0.500  0.501-  33 1.85  49 1.85  45 1.86  41 1.86  24 1.86  28 1.86  16 2.76  17 2.77
                             9 2.81  13 2.81  13 2.81   9 2.81
   6  0.500  0.750  0.749-  50 1.85  34 1.85  25 1.86  29 1.86  42 1.86  46 1.86  18 2.76  17 2.77
                            10 2.81  14 2.81  14 2.81  10 2.81
   7  0.502  0.001  0.998-  22 1.85  30 1.85  47 1.86  35 1.86  43 1.86  31 1.87  18 2.76  15 2.81
                             3 2.81  11 2.81  11 2.81   3 2.81
   8  0.998  0.249  0.252-  36 1.85  44 1.85  32 1.86  19 1.86  27 1.86  48 1.87  16 2.76  15 2.81
                             4 2.81  12 2.81  12 2.81   4 2.81
   9  0.500  0.500  0.501-  33 1.85  49 1.85  37 1.86  45 1.86  20 1.86  28 1.86  16 2.76  17 2.77
                             5 2.81  13 2.81  13 2.81   5 2.81
  10  0.000  0.750  0.749-  50 1.85  34 1.85  21 1.86  29 1.86  38 1.86  46 1.86  18 2.76  17 2.77
                             6 2.81  14 2.81  14 2.81   6 2.81
  11  0.502  0.501  0.998-  26 1.85  22 1.85  47 1.86  35 1.86  39 1.86  31 1.87  18 2.76  15 2.81
                             3 2.81   7 2.81   7 2.81   3 2.81
  12  0.998  0.749  0.252-  40 1.85  36 1.85  32 1.86  19 1.86  23 1.86  48 1.87  16 2.76  15 2.81
                             4 2.81   8 2.81   8 2.81   4 2.81
  13  0.500  1.000  0.501-  33 1.85  49 1.85  37 1.86  41 1.86  20 1.86  24 1.86  16 2.76  17 2.77
                             5 2.81   9 2.81   9 2.81   5 2.81
  14  0.000  0.250  0.749-  50 1.85  34 1.85  21 1.86  25 1.86  38 1.86  42 1.86  18 2.76  17 2.77
                             6 2.81  10 2.81  10 2.81   6 2.81
  15  0.250  0.125  0.125-  19 1.92  35 1.92  27 1.92  23 1.92  39 1.92  43 1.92   3 2.81   4 2.81
                            11 2.81  12 2.81   7 2.81   8 2.81
  16  0.749  0.375  0.376-  24 1.87  20 1.87  28 1.87  36 1.89  44 1.89  40 1.89   8 2.76   4 2.76
                            12 2.76  13 2.76   5 2.76   9 2.76
  17  0.250  0.625  0.625-  21 1.87  37 1.87  25 1.87  41 1.87  29 1.87  45 1.87   5 2.77   6 2.77
                            13 2.77  14 2.77   9 2.77  10 2.77
  18  0.751  0.875  0.874-  42 1.87  38 1.87  46 1.87  22 1.89  30 1.89  26 1.89   7 2.76   3 2.76
                            11 2.76  14 2.76   6 2.76  10 2.76
  19  0.906  0.953  0.195-   8 1.86  12 1.86   2 1.88  15 1.92
  20  0.410  0.205  0.442-   9 1.86  13 1.86  16 1.87
  21  0.910  0.455  0.691-  10 1.86  14 1.86  17 1.87
  22  0.409  0.704  0.941-   7 1.85  11 1.85  18 1.89
  23  0.352  0.953  0.195-   4 1.86  12 1.86   2 1.88  15 1.92
  24  0.853  0.205  0.442-   5 1.86  13 1.86  16 1.87
  25  0.353  0.455  0.691-   6 1.86  14 1.86  17 1.87
  26  0.855  0.704  0.941-   3 1.85  11 1.85  18 1.89
  27  0.352  0.399  0.195-   4 1.86   8 1.86   2 1.88  15 1.92
  28  0.853  0.648  0.442-   5 1.86   9 1.86  16 1.87
  29  0.353  0.898  0.691-   6 1.86  10 1.86  17 1.87
  30  0.855  0.150  0.941-   3 1.85   7 1.85  18 1.89
  31  0.634  0.817  0.049-   7 1.87   3 1.87  11 1.87   2 2.05
  32  0.132  0.066  0.303-   4 1.86   8 1.86  12 1.86
  33  0.633  0.317  0.550-   5 1.85   9 1.85  13 1.85
  34  0.134  0.567  0.799-   6 1.85  10 1.85  14 1.85
  35  0.594  0.297  0.055-   7 1.86  11 1.86   1 1.88  15 1.92
  36  0.091  0.546  0.309-   8 1.85  12 1.85  16 1.89
  37  0.590  0.795  0.559-   9 1.86  13 1.86  17 1.87
  38  0.090  0.045  0.808-  10 1.86  14 1.86  18 1.87
  39  0.148  0.297  0.055-   3 1.86  11 1.86   1 1.88  15 1.92
  40  0.645  0.546  0.309-   4 1.85  12 1.85  16 1.89
  41  0.147  0.795  0.559-   5 1.86  13 1.86  17 1.87
  42  0.647  0.045  0.808-   6 1.86  14 1.86  18 1.87
  43  0.148  0.851  0.055-   3 1.86   7 1.86   1 1.88  15 1.92
  44  0.645  0.100  0.309-   4 1.85   8 1.85  16 1.89
  45  0.147  0.352  0.559-   5 1.86   9 1.86  17 1.87
  46  0.647  0.602  0.808-   6 1.86  10 1.86  18 1.87
  47  0.368  0.184  0.947-   3 1.86   7 1.86  11 1.86
  48  0.866  0.433  0.201-   8 1.87   4 1.87  12 1.87   1 2.05
  49  0.366  0.683  0.451-   5 1.85   9 1.85  13 1.85
  50  0.867  0.933  0.700-   6 1.85  10 1.85  14 1.85
 
  LATTYP: Found a trigonal (rhomboedric) cell.
 ALAT       =    18.2781303185
 COS(alpha) =     0.9526801943
  
  Lattice vectors:
  
 A1 = ( -11.7104504117, -11.7104504117,   7.7343875163)
 A2 = (  -7.7343875163, -11.7104504117,  11.7104504117)
 A3 = ( -11.7104504117,  -7.7343875163,  11.7104504117)


Analysis of symmetry for initial positions (statically):
=====================================================================
 Subroutine PRICEL returns:
 Original cell was already a primitive cell.
 

 Routine SETGRP: Setting up the symmetry group for a 
 trigonal (rhombohedral) supercell.


 Subroutine GETGRP returns: Found 12 space group operations
 (whereof  2 operations were pure point group operations)
 out of a pool of 12 trial point group operations.


The static configuration has the point symmetry C_1h.
 The point group associated with its full space group is D_3d.


Analysis of symmetry for dynamics (positions and initial velocities):
=====================================================================
 Subroutine PRICEL returns:
 Original cell was already a primitive cell.
 

 Routine SETGRP: Setting up the symmetry group for a 
 trigonal (rhombohedral) supercell.


 Subroutine GETGRP returns: Found 12 space group operations
 (whereof  2 operations were pure point group operations)
 out of a pool of 12 trial point group operations.


The dynamic configuration has the point symmetry C_1h.
 The point group associated with its full space group is D_3d.


Analysis of structural, dynamic, and magnetic symmetry:
=====================================================================
 Subroutine PRICEL returns:
 Original cell was already a primitive cell.
 

 Routine SETGRP: Setting up the symmetry group for a 
 trigonal (rhombohedral) supercell.


 Subroutine GETGRP returns: Found 12 space group operations
 (whereof  2 operations were pure point group operations)
 out of a pool of 12 trial point group operations.


The magnetic configuration has the point symmetry C_1h.
 The point group associated with its full space group is D_3d.


 Subroutine INISYM returns: Found 12 space group operations
 (whereof  2 operations are pure point group operations),
 and found     1 'primitive' translations

 
 
 KPOINTS: Automatic mesh                          

Automatic generation of k-mesh.
Space group operators:
 irot       det(A)        alpha          n_x          n_y          n_z        tau_x        tau_y        tau_z
    1     1.000000     0.000000     1.000000     0.000000     0.000000     0.000000     0.000000     0.000000
    2    -1.000000   180.000000    -0.707107     0.707107     0.000000     0.000000     0.000000     0.000000
    3    -1.000000     0.000000     1.000000     0.000000     0.000000     0.500000     0.250000    -0.750000
    4     1.000000   180.000000    -0.707107     0.707107     0.000000     0.500000     0.250000    -0.750000
    5     1.000000   120.000000     0.577350     0.577350    -0.577350     0.500000     0.500000    -1.000000
    6    -1.000000   120.000000     0.577350     0.577350    -0.577350     1.000000     0.750000    -1.750000
    7     1.000000   180.000000     0.707107     0.000000     0.707107     1.000000     0.750000    -1.750000
    8    -1.000000   180.000000     0.707107     0.000000     0.707107     0.500000     0.500000    -1.000000
    9     1.000000   120.000000    -0.577350    -0.577350     0.577350     0.500000     0.000000    -1.000000
   10    -1.000000   120.000000    -0.577350    -0.577350     0.577350     1.000000     0.250000    -1.750000
   11     1.000000   180.000000    -0.000000    -0.707107    -0.707107     1.000000     0.250000    -1.750000
   12    -1.000000   180.000000    -0.000000    -0.707107    -0.707107     0.500000    -0.000000    -1.000000
 
 Subroutine IBZKPT returns following result:
 ===========================================
 
 Found      1 irreducible k-points:
 
 Following reciprocal coordinates:
            Coordinates               Weight
  0.000000  0.000000  0.000000      1.000000
 
 Following cartesian coordinates:
            Coordinates               Weight
  0.000000  0.000000  0.000000      1.000000
 


--------------------------------------------------------------------------------------------------------




 Dimension of arrays:
   k-points           NKPTS =      1   k-points in BZ     NKDIM =      1   number of bands    NBANDS=    240
   number of dos      NEDOS =    301   number of ions     NIONS =     50
   non local maximal  LDIM  =      6   non local SUM 2l+1 LMDIM =     18
   total plane-waves  NPLWV = 246960
   max r-space proj   IRMAX =   6781   max aug-charges    IRDMAX=  16451
   dimension x,y,z NGX =    42 NGY =   42 NGZ =  140
   dimension x,y,z NGXF=    84 NGYF=   84 NGZF=  280
   support grid    NGXF=    84 NGYF=   84 NGZF=  280
   ions per type =               2  16  32
   NGX,Y,Z   is equivalent  to a cutoff of  12.42, 12.42, 12.73 a.u.
   NGXF,Y,Z  is equivalent  to a cutoff of  24.83, 24.83, 25.47 a.u.

 SYSTEM =  unknown system                          
 POSCAR =  ce75_1                                  

 Startparameter for this run:
   NWRITE =      1    write-flag & timer
   PREC   = accura    normal or accurate (medium, high low for compatibility)
   ISTART =      0    job   : 0-new  1-cont  2-samecut
   ICHARG =      2    charge: 1-file 2-atom 10-const
   ISPIN  =      2    spin polarized calculation?
   LNONCOLLINEAR =      F non collinear calculations
   LSORBIT =      F    spin-orbit coupling
   INIWAV =      1    electr: 0-lowe 1-rand  2-diag
   LASPH  =      F    aspherical Exc in radial PAW
   METAGGA=      F    non-selfconsistent MetaGGA calc.

 Electronic Relaxation 1
   ENCUT  =  500.0 eV  36.75 Ry    6.06 a.u.  10.25 10.25 33.33*2*pi/ulx,y,z
   ENINI  =  500.0     initial cutoff
   ENAUG  =  628.9 eV  augmentation charge cutoff
   NELM   =     80;   NELMIN=  2; NELMDL= -5     # of ELM steps 
   EDIFF  = 0.1E-04   stopping-criterion for ELM
   LREAL  =      T    real-space projection
   NLSPLINE    = F    spline interpolate recip. space projectors
   LCOMPAT=      F    compatible to vasp.4.4
   GGA_COMPAT  = T    GGA compatible to vasp.4.4-vasp.4.6
   LMAXPAW     = -100 max onsite density
   LMAXMIX     =    2 max onsite mixed and CHGCAR
   VOSKOWN=      1    Vosko Wilk Nusair interpolation
   ROPT   =   -0.00025  -0.00025  -0.00025
 Ionic relaxation
   EDIFFG = -.2E-01   stopping-criterion for IOM
   NSW    =     20    number of steps for IOM
   NBLOCK =      1;   KBLOCK =     20    inner block; outer block 
   IBRION =      1    ionic relax: 0-MD 1-quasi-New 2-CG
   NFREE  =      0    steps in history (QN), initial steepest desc. (CG)
   ISIF   =      3    stress and relaxation
   IWAVPR =     11    prediction:  0-non 1-charg 2-wave 3-comb
   ISYM   =      2    0-nonsym 1-usesym 2-fastsym
   LCORR  =      T    Harris-Foulkes like correction to forces

   POTIM  = 0.5000    time-step for ionic-motion
   TEIN   =    0.0    initial temperature
   TEBEG  =    0.0;   TEEND  =   0.0 temperature during run
   SMASS  =  -3.00    Nose mass-parameter (am)
   estimated Nose-frequenzy (Omega)   =  0.10E-29 period in steps =****** mass=  -0.723E-27a.u.
   SCALEE = 1.0000    scale energy and forces
   NPACO  =    256;   APACO  = 16.0  distance and # of slots for P.C.
   PSTRESS=    0.0 pullay stress

  Mass of Ions in am
   POMASS =   7.01 58.69 16.00
  Ionic Valenz
   ZVAL   =   3.00 10.00  6.00
  Atomic Wigner-Seitz radii
   RWIGS  =   1.23  1.15  0.73
  virtual crystal weights 
   VCA    =   1.00  1.00  1.00
   NELECT =     358.0000    total number of electrons
   NUPDOWN=      -1.0000    fix difference up-down

 DOS related values:
   EMIN   =  10.00;   EMAX   =-10.00  energy-range for DOS
   EFERMI =   0.00
   ISMEAR =     0;   SIGMA  =   0.05  broadening in eV -4-tet -1-fermi 0-gaus

 Electronic relaxation 2 (details)
   IALGO  =     38    algorithm
   LDIAG  =      T    sub-space diagonalisation (order eigenvalues)
   LSUBROT=      F    optimize rotation matrix (better conditioning)
   TURBO    =      0    0=normal 1=particle mesh
   IRESTART =      0    0=no restart 2=restart with 2 vectors
   NREBOOT  =      0    no. of reboots
   NMIN     =      0    reboot dimension
   EREF     =   0.00    reference energy to select bands
   IMIX   =      4    mixing-type and parameters
     AMIX     =   0.40;   BMIX     =  1.00
     AMIX_MAG =   1.60;   BMIX_MAG =  1.00
     AMIN     =   0.10
     WC   =   100.;   INIMIX=   1;  MIXPRE=   1;  MAXMIX= -45

 Intra band minimization:
   WEIMIN = 0.0010     energy-eigenvalue tresh-hold
   EBREAK =  0.10E-07  absolut break condition
   DEPER  =   0.30     relativ break condition  

   TIME   =   0.40     timestep for ELM

  volume/ion in A,a.u.               =       9.85        66.48
  Fermi-wavevector in a.u.,A,eV,Ry     =   1.471939  2.781561 29.478434  2.166604
  Thomas-Fermi vector in A             =   2.587014
 
 Write flags
   LWAVE        =      F    write WAVECAR
   LDOWNSAMPLE  =      F    k-point downsampling of WAVECAR
   LCHARG       =      T    write CHGCAR
   LVTOT        =      F    write LOCPOT, total local potential
   LVHAR        =      F    write LOCPOT, Hartree potential only
   LELF         =      F    write electronic localiz. function (ELF)
   LORBIT       =      0    0 simple, 1 ext, 2 COOP (PROOUT), +10 PAW based schemes


 Dipole corrections
   LMONO  =      F    monopole corrections only (constant potential shift)
   LDIPOL =      F    correct potential (dipole corrections)
   IDIPOL =      0    1-x, 2-y, 3-z, 4-all directions 
   EPSILON=  1.0000000 bulk dielectric constant

 Exchange correlation treatment:
   GGA     =    PS    GGA type
   LEXCH   =    14    internal setting for exchange type
   VOSKOWN=      1    Vosko Wilk Nusair interpolation
   LHFCALC =     F    Hartree Fock is set to
   LHFONE  =     F    Hartree Fock one center treatment
   AEXX    =    0.0000 exact exchange contribution

 Linear response parameters
   LEPSILON=     F    determine dielectric tensor
   LRPA    =     F    only Hartree local field effects (RPA)
   LNABLA  =     F    use nabla operator in PAW spheres
   LVEL    =     F    velocity operator in full k-point grid
   LINTERFAST=   F  fast interpolation
   KINTER  =     0    interpolate to denser k-point grid
   CSHIFT  =0.1000    complex shift for real part using Kramers Kronig
   OMEGAMAX=  -1.0    maximum frequency
   DEG_THRESHOLD= 0.2000000E-02 threshold for treating states as degnerate
   RTIME   =   -0.100 relaxation time in fs
  (WPLASMAI=    0.000 imaginary part of plasma frequency in eV, 0.658/RTIME)
   DFIELD  = 0.0000000 0.0000000 0.0000000 field for delta impulse in time
 
 Orbital magnetization related:
   ORBITALMAG=     F  switch on orbital magnetization
   LCHIMAG   =     F  perturbation theory with respect to B field
   DQ        =  0.001000  dq finite difference perturbation B field
   LLRAUG    =     F  two centre corrections for induced B field



--------------------------------------------------------------------------------------------------------


 quasi-Newton-method for relaxation of ions
 charge density and potential will be updated during run
 spin polarized calculation
 Variant of blocked Davidson
 Davidson routine will perform the subspace rotation
 perform sub-space diagonalisation
    after iterative eigenvector-optimisation
 modified Broyden-mixing scheme, WC =      100.0
 initial mixing is a Kerker type mixing with AMIX =  0.4000 and BMIX =      1.0000
 Hartree-type preconditioning will be used
 using additional bands           61
 real space projection scheme for non local part
 use partial core corrections
 calculate Harris-corrections to forces 
   (improved forces if not selfconsistent)
 use gradient corrections 
 use of overlap-Matrix (Vanderbilt PP)
 Gauss-broadening in eV      SIGMA  =   0.05


--------------------------------------------------------------------------------------------------------


  energy-cutoff  :      500.00
  volume of cell :      492.54
      direct lattice vectors                 reciprocal lattice vectors
     0.000000000  3.976062895  3.976062895     0.062436839  0.062436839  0.189068237
     3.976062895 -3.976062895  0.000000000     0.156970957 -0.094534118  0.094534118
    11.710450412 11.710450412 -7.734387516     0.032097280  0.032097280 -0.032097280

  length of vectors
     5.623002072  5.623002072 18.278130319     0.208670831  0.206187489  0.055594119


 
 k-points in units of 2pi/SCALE and weight: Automatic mesh                          
   0.00000000  0.00000000  0.00000000       1.000
 
 k-points in reciprocal lattice and weights: Automatic mesh                          
   0.00000000  0.00000000  0.00000000       1.000
 
 position of ions in fractional coordinates (direct lattice) 
   0.94211896  0.47105948  0.08682156
   0.55788104  0.77894052  0.16317844
   0.00146223  0.00073112  0.99765973
   0.49853777  0.24926888  0.25234027
   0.99973648  0.49986824  0.50053916
   0.50026352  0.75013176  0.74946084
   0.50160916  0.00073112  0.99765973
   0.99839084  0.24926888  0.25234027
   0.49959260  0.49986824  0.50053916
   0.00040740  0.75013176  0.74946084
   0.50160916  0.50087804  0.99765973
   0.99839084  0.74912196  0.25234027
   0.49959260  0.99972436  0.50053916
   0.00040740  0.25027564  0.74946084
   0.25000000  0.12500000  0.12500000
   0.74912231  0.37456115  0.37631654
   0.25000000  0.62500000  0.62500000
   0.75087769  0.87543885  0.87368346
   0.90586622  0.95293311  0.19464305
   0.40974861  0.20487431  0.44243219
   0.91045782  0.45522891  0.69146896
   0.40892442  0.70446221  0.94086632
   0.35242385  0.95293311  0.19464305
   0.85269351  0.20487431  0.44243219
   0.35330214  0.45522891  0.69146896
   0.85467148  0.70446221  0.94086632
   0.35242385  0.39949074  0.19464305
   0.85269351  0.64781920  0.44243219
   0.35330214  0.89807323  0.69146896
   0.85467148  0.15020927  0.94086632
   0.63375507  0.81687754  0.04936740
   0.13155725  0.06577863  0.30266413
   0.63334654  0.31667327  0.54998020
   0.13399568  0.56699784  0.79900649
   0.59413378  0.29706689  0.05535695
   0.09107558  0.54553779  0.30913368
   0.58954218  0.79477109  0.55853104
   0.09025139  0.04512569  0.80756781
   0.14757615  0.29706689  0.05535695
   0.64532852  0.54553779  0.30913368
   0.14669786  0.79477109  0.55853104
   0.64730649  0.04512569  0.80756781
   0.14757615  0.85050926  0.05535695
   0.64532852  0.09979073  0.30913368
   0.14669786  0.35192677  0.55853104
   0.64730649  0.60218080  0.80756781
   0.36844275  0.18422137  0.94733587
   0.86624493  0.43312246  0.20063260
   0.36600432  0.68300216  0.45099351
   0.86665346  0.93332673  0.70001980
 
 position of ions in cartesian coordinates  (Angst):
   2.88968169  2.88968169  3.07441265
   5.00800953  1.03194663  0.95608481
  11.68595177 11.68595174 -7.71047304
   3.94612696  3.94612700  0.03052010
   7.84904657  7.84904657  0.10365129
  11.75909506  7.78303216 -3.80754135
  11.68595177 13.67456739 -5.72185739
   3.94612696  5.93357425  2.01796734
   7.84904657  5.86044305 -1.88495223
  11.75909506  5.79557279 -5.79500072
  13.67456739 11.68595177 -5.72185739
   5.93357425  3.94612696  2.01796734
   9.83650595  3.87298368 -1.88495223
   9.77163569  7.78303216 -5.79500072
   1.96081416  1.96081416  0.02721728
   5.89611487  5.89611491  0.06797947
   9.80407082  5.82800792 -3.83997647
  13.71202676  9.73596383 -3.77186952
   6.06827977  2.09221687  2.09633629
   5.99567336  5.99567332 -1.79275576
   9.90743175  9.90743175 -1.72805134
  13.81895444  9.84289154 -5.65111551
   6.06827977 -0.10830480 -0.10418538
   5.99567336  7.75685011 -0.03157898
   9.90743175  7.69214572 -3.94333736
  13.81895444 11.61520989 -3.87879716
   3.86775809  2.09221687 -0.10418538
   7.75685011  5.99567336 -0.03157898
  11.66820861  5.93136885 -3.94333736
  11.61520989 13.81895444 -3.87879716
   3.82607097 -0.14999197  2.13802342
   3.80587326  3.80587322 -1.81784177
   7.69962870  7.69962870 -1.73553432
  11.61114495  7.63508206 -5.64705057
   1.82941146  1.82941146  1.93416117
   5.78918720  1.81312430 -2.02883744
   9.70070989  5.72464699 -1.97583872
   9.63640537  9.63640541 -5.88719719
   1.82941146  0.05387023  0.15861995
   5.78918720  4.01686885  0.17490711
   9.70070989  3.96387012 -3.73661559
   9.63640537 11.85129153 -3.67231107
   4.02993313 -2.14665144  0.15861995
   4.01686885  5.78918720  0.17490711
   7.93993302  5.72464699 -3.73661559
  11.85129153  9.63640537 -3.67231107
  11.82620548 11.82620552 -5.86211118
   4.07162026  4.07162030  1.89247405
   7.99699668  4.02093379 -2.03290238
  11.90851294  7.93245004 -1.96835574
 


--------------------------------------------------------------------------------------------------------


 use serial FFT for orbitals x direction half grid
 k-point  1 :   0.0000 0.0000 0.0000  plane waves:    6243

 maximum and minimum number of plane-waves per node :      6243     6243

 maximum number of plane-waves:      6243
 maximum index in each direction: 
   IXMAX=   10   IYMAX=    8   IZMAX=   33
   IXMIN=    0   IYMIN=  -10   IZMIN=  -32

 The following grids will avoid any aliasing or wrap around errors in the Hartre
 e energy
  - symmetry arguments have not been applied
  - exchange correlation energies might require even more grid points
  - we recommend to set PREC=Normal or Accurate and rely on VASP defaults
 NGX is ok and might be reduce to    42
 NGY is ok and might be reduce to    40
 NGZ is ok and might be reduce to   140

 serial   3D FFT for wavefunctions
 parallel 3D FFT for charge:
    minimum data exchange during FFTs selected (reduces bandwidth)


 total amount of memory used by VASP MPI-rank0    94701. kBytes
=======================================================================

   base      :      30000. kBytes
   nonlr-proj:      22870. kBytes
   fftplans  :       5613. kBytes
   grid      :      32304. kBytes
   one-center:        777. kBytes
   wavefun   :       3137. kBytes
 
     INWAV:  cpu time    0.0000: real time    0.0000
 Broyden mixing: mesh for mixing (old mesh)
   NGX = 21   NGY = 21   NGZ = 67
  (NGX  = 84   NGY  = 84   NGZ  =280)
  gives a total of  29547 points

 initial charge density was supplied:
 charge density of overlapping atoms calculated
 number of electron     358.0000000 magnetization      40.0000000
 keeping initial charge density in first step


--------------------------------------------------------------------------------------------------------


 Maximum index for non-local projection operator         6554
 Maximum index for augmentation-charges         1444 (set IRDMAX)


--------------------------------------------------------------------------------------------------------


 First call to EWALD:  gamma=   0.224
 Maximum number of real-space cells 4x 4x 1
 Maximum number of reciprocal cells 2x 2x 6

    FEWALD:  cpu time    0.0037: real time    0.0037


--------------------------------------- Iteration      1(   1)  ---------------------------------------


    POTLOK:  cpu time    0.1619: real time    0.1637
    SETDIJ:  cpu time    0.0180: real time    0.0181
     EDDAV:  cpu time    1.4598: real time    1.4861
    --------------------------------------------
      LOOP:  cpu time    1.6402: real time    1.6684

 eigenvalue-minimisations  :   960
 total energy-change (2. order) : 0.6290320E+04  (-0.1639314E+05)
 number of electron     358.0000000 magnetization      40.0000000
 augmentation part      358.0000000 magnetization      40.0000000

 Free energy of the ion-electron system (eV)
  ---------------------------------------------------
  alpha Z        PSCENC =      1142.91878713
  Ewald energy   TEWEN  =    -21026.94881324
  -Hartree energ DENC   =    -11357.70571171
  -exchange      EXHF   =         0.00000000
  -V(xc)+E(xc)   XCENC  =      1450.72922253
  PAW double counting   =     26623.38945734   -27769.50388409
  entropy T*S    EENTRO =        -0.02307355
  eigenvalues    EBANDS =      5811.75736576
  atomic energy  EATOM  =     31415.70703490
  Solvation  Ediel_sol  =         0.00000000
  ---------------------------------------------------
  free energy    TOTEN  =      6290.32038508 eV

  energy without entropy =     6290.34345863  energy(sigma->0) =     6290.33192185


--------------------------------------------------------------------------------------------------------




--------------------------------------- Iteration      1(   2)  ---------------------------------------


     EDDAV:  cpu time    1.4831: real time    1.4866
    --------------------------------------------
      LOOP:  cpu time    1.4829: real time    1.4864

 eigenvalue-minimisations  :   992
 total energy-change (2. order) :-0.5059511E+04  (-0.4553744E+04)
 number of electron     358.0000000 magnetization      40.0000000
 augmentation part      358.0000000 magnetization      40.0000000

 Free energy of the ion-electron system (eV)
  ---------------------------------------------------
  alpha Z        PSCENC =      1142.91878713
  Ewald energy   TEWEN  =    -21026.94881324
  -Hartree energ DENC   =    -11357.70571171
  -exchange      EXHF   =         0.00000000
  -V(xc)+E(xc)   XCENC  =      1450.72922253
  PAW double counting   =     26623.38945734   -27769.50388409
  entropy T*S    EENTRO =        -0.00284654
  eigenvalues    EBANDS =       752.22594009
  atomic energy  EATOM  =     31415.70703490
  Solvation  Ediel_sol  =         0.00000000
  ---------------------------------------------------
  free energy    TOTEN  =      1230.80918641 eV

  energy without entropy =     1230.81203295  energy(sigma->0) =     1230.81060968


--------------------------------------------------------------------------------------------------------




--------------------------------------- Iteration      1(   3)  ---------------------------------------


     EDDAV:  cpu time    1.6111: real time    1.6149
    --------------------------------------------
      LOOP:  cpu time    1.6111: real time    1.6150

 eigenvalue-minimisations  :  1104
 total energy-change (2. order) :-0.1432854E+04  (-0.1177178E+04)
 number of electron     358.0000000 magnetization      40.0000000
 augmentation part      358.0000000 magnetization      40.0000000

 Free energy of the ion-electron system (eV)
  ---------------------------------------------------
  alpha Z        PSCENC =      1142.91878713
  Ewald energy   TEWEN  =    -21026.94881324
  -Hartree energ DENC   =    -11357.70571171
  -exchange      EXHF   =         0.00000000
  -V(xc)+E(xc)   XCENC  =      1450.72922253
  PAW double counting   =     26623.38945734   -27769.50388409
  entropy T*S    EENTRO =        -0.08817701
  eigenvalues    EBANDS =      -680.54279547
  atomic energy  EATOM  =     31415.70703490
  Solvation  Ediel_sol  =         0.00000000
  ---------------------------------------------------
  free energy    TOTEN  =      -202.04487961 eV

  energy without entropy =     -201.95670260  energy(sigma->0) =     -202.00079111


--------------------------------------------------------------------------------------------------------




--------------------------------------- Iteration      1(   4)  ---------------------------------------


     EDDAV:  cpu time    1.6459: real time    1.6498
    --------------------------------------------
      LOOP:  cpu time    1.6459: real time    1.6498

 eigenvalue-minimisations  :  1136
 total energy-change (2. order) :-0.2133171E+03  (-0.2060364E+03)
 number of electron     358.0000000 magnetization      40.0000000
 augmentation part      358.0000000 magnetization      40.0000000

 Free energy of the ion-electron system (eV)
  ---------------------------------------------------
  alpha Z        PSCENC =      1142.91878713
  Ewald energy   TEWEN  =    -21026.94881324
  -Hartree energ DENC   =    -11357.70571171
  -exchange      EXHF   =         0.00000000
  -V(xc)+E(xc)   XCENC  =      1450.72922253
  PAW double counting   =     26623.38945734   -27769.50388409
  entropy T*S    EENTRO =        -0.19027356
  eigenvalues    EBANDS =      -893.75779941
  atomic energy  EATOM  =     31415.70703490
  Solvation  Ediel_sol  =         0.00000000
  ---------------------------------------------------
  free energy    TOTEN  =      -415.36198011 eV

  energy without entropy =     -415.17170655  energy(sigma->0) =     -415.26684333


--------------------------------------------------------------------------------------------------------




--------------------------------------- Iteration      1(   5)  ---------------------------------------


     EDDAV:  cpu time    1.7895: real time    1.7938
    CHARGE:  cpu time    0.1379: real time    0.1382
    MIXING:  cpu time    0.0028: real time    0.0029
    --------------------------------------------
      LOOP:  cpu time    1.9299: real time    1.9345

 eigenvalue-minimisations  :  1264
 total energy-change (2. order) :-0.7450742E+01  (-0.7396817E+01)
 number of electron     357.9999988 magnetization      37.7828486
 augmentation part      103.5452487 magnetization      32.0108506

 Broyden mixing:
  rms(total) = 0.12436E+02    rms(broyden)= 0.12435E+02
  rms(prec ) = 0.13672E+02
  weight for this iteration     100.00

 Free energy of the ion-electron system (eV)
  ---------------------------------------------------
  alpha Z        PSCENC =      1142.91878713
  Ewald energy   TEWEN  =    -21026.94881324
  -Hartree energ DENC   =    -11357.70571171
  -exchange      EXHF   =         0.00000000
  -V(xc)+E(xc)   XCENC  =      1450.72922253
  PAW double counting   =     26623.38945734   -27769.50388409
  entropy T*S    EENTRO =        -0.18784536
  eigenvalues    EBANDS =      -901.21096915
  atomic energy  EATOM  =     31415.70703490
  Solvation  Ediel_sol  =         0.00000000
  ---------------------------------------------------
  free energy    TOTEN  =      -422.81272165 eV

  energy without entropy =     -422.62487629  energy(sigma->0) =     -422.71879897


--------------------------------------------------------------------------------------------------------




--------------------------------------- Iteration      1(   6)  ---------------------------------------


    POTLOK:  cpu time    0.1376: real time    0.1379
    SETDIJ:  cpu time    0.0186: real time    0.0186
     EDDAV:  cpu time    1.9865: real time    1.9913
    CHARGE:  cpu time    0.1348: real time    0.1351
    MIXING:  cpu time    0.0028: real time    0.0028
    --------------------------------------------
      LOOP:  cpu time    2.2803: real time    2.2858

 eigenvalue-minimisations  :  1440
 total energy-change (2. order) :-0.3943019E+03  (-0.2084804E+03)
 number of electron     358.0000022 magnetization      36.9791394
 augmentation part      129.2457119 magnetization      33.0724776

 Broyden mixing:
  rms(total) = 0.28138E+02    rms(broyden)= 0.28137E+02
  rms(prec ) = 0.32058E+02
  weight for this iteration     100.00

 eigenvalues of (default mixing * dielectric matrix)
  average eigenvalue GAMMA=   0.1160
  0.1160

 Free energy of the ion-electron system (eV)
  ---------------------------------------------------
  alpha Z        PSCENC =      1142.91878713
  Ewald energy   TEWEN  =    -21026.94881324
  -Hartree energ DENC   =    -10814.80405197
  -exchange      EXHF   =         0.00000000
  -V(xc)+E(xc)   XCENC  =      1448.15146722
  PAW double counting   =     29592.52558475   -30555.75237321
  entropy T*S    EENTRO =        -0.09722574
  eigenvalues    EBANDS =     -2018.81506418
  atomic energy  EATOM  =     31415.70703490
  Solvation  Ediel_sol  =         0.00000000
  ---------------------------------------------------
  free energy    TOTEN  =      -817.11465433 eV

  energy without entropy =     -817.01742859  energy(sigma->0) =     -817.06604146


--------------------------------------------------------------------------------------------------------




--------------------------------------- Iteration      1(   7)  ---------------------------------------


    POTLOK:  cpu time    0.1303: real time    0.1306
    SETDIJ:  cpu time    0.0184: real time    0.0184
     EDDAV:  cpu time    1.8035: real time    1.8078
    CHARGE:  cpu time    0.1343: real time    0.1347
    MIXING:  cpu time    0.0029: real time    0.0029
    --------------------------------------------
      LOOP:  cpu time    2.0894: real time    2.0943

 eigenvalue-minimisations  :  1280
 total energy-change (2. order) : 0.3188388E+03  (-0.3828690E+02)
 number of electron     358.0000026 magnetization      35.1407990
 augmentation part      132.1141307 magnetization      30.8734971

 Broyden mixing:
  rms(total) = 0.19067E+02    rms(broyden)= 0.19067E+02
  rms(prec ) = 0.20951E+02
  weight for this iteration     100.00

 eigenvalues of (default mixing * dielectric matrix)
  average eigenvalue GAMMA=   0.3734
  0.3734  0.3734

 Free energy of the ion-electron system (eV)
  ---------------------------------------------------
  alpha Z        PSCENC =      1142.91878713
  Ewald energy   TEWEN  =    -21026.94881324
  -Hartree energ DENC   =    -10856.12975108
  -exchange      EXHF   =         0.00000000
  -V(xc)+E(xc)   XCENC  =      1447.88586502
  PAW double counting   =     30265.75711430   -31272.84617046
  entropy T*S    EENTRO =        -0.07811627
  eigenvalues    EBANDS =     -1614.54181773
  atomic energy  EATOM  =     31415.70703490
  Solvation  Ediel_sol  =         0.00000000
  ---------------------------------------------------
  free energy    TOTEN  =      -498.27586742 eV

  energy without entropy =     -498.19775116  energy(sigma->0) =     -498.23680929


--------------------------------------------------------------------------------------------------------




--------------------------------------- Iteration      1(   8)  ---------------------------------------


    POTLOK:  cpu time    0.1302: real time    0.1305
    SETDIJ:  cpu time    0.0186: real time    0.0187
     EDDAV:  cpu time    1.8401: real time    1.8444
    CHARGE:  cpu time    0.1346: real time    0.1350
    MIXING:  cpu time    0.0030: real time    0.0030
    --------------------------------------------
      LOOP:  cpu time    2.1264: real time    2.1315

 eigenvalue-minimisations  :  1312
 total energy-change (2. order) :-0.5490997E+02  (-0.4463388E+02)
 number of electron     358.0000014 magnetization      32.9574844
 augmentation part      123.5597986 magnetization      27.1239514

 Broyden mixing:
  rms(total) = 0.14722E+02    rms(broyden)= 0.14721E+02
  rms(prec ) = 0.19801E+02
  weight for this iteration     100.00

 eigenvalues of (default mixing * dielectric matrix)
  average eigenvalue GAMMA=   0.4572
  0.5643  0.5643  0.2429

 Free energy of the ion-electron system (eV)
  ---------------------------------------------------
  alpha Z        PSCENC =      1142.91878713
  Ewald energy   TEWEN  =    -21026.94881324
  -Hartree energ DENC   =    -11075.50888506
  -exchange      EXHF   =         0.00000000
  -V(xc)+E(xc)   XCENC  =      1444.63245729
  PAW double counting   =     31455.82158854   -32592.61616659
  entropy T*S    EENTRO =        -0.03873029
  eigenvalues    EBANDS =     -1317.15310736
  atomic energy  EATOM  =     31415.70703490
  Solvation  Ediel_sol  =         0.00000000
  ---------------------------------------------------
  free energy    TOTEN  =      -553.18583468 eV

  energy without entropy =     -553.14710440  energy(sigma->0) =     -553.16646954


--------------------------------------------------------------------------------------------------------




--------------------------------------- Iteration      1(   9)  ---------------------------------------


    POTLOK:  cpu time    0.1302: real time    0.1305
    SETDIJ:  cpu time    0.0183: real time    0.0184
     EDDAV:  cpu time    1.9478: real time    1.9524
    CHARGE:  cpu time    0.1322: real time    0.1325
    MIXING:  cpu time    0.0031: real time    0.0031
    --------------------------------------------
      LOOP:  cpu time    2.2316: real time    2.2369

 eigenvalue-minimisations  :  1408
 total energy-change (2. order) : 0.1155280E+03  (-0.8249691E+02)
 number of electron     357.9999994 magnetization      31.8350952
 augmentation part      109.0696516 magnetization      27.7504763

 Broyden mixing:
  rms(total) = 0.13307E+02    rms(broyden)= 0.13306E+02
  rms(prec ) = 0.17042E+02
  weight for this iteration     100.00

 eigenvalues of (default mixing * dielectric matrix)
  average eigenvalue GAMMA=   0.3865
  0.5252  0.5252  0.3297  0.1661

 Free energy of the ion-electron system (eV)
  ---------------------------------------------------
  alpha Z        PSCENC =      1142.91878713
  Ewald energy   TEWEN  =    -21026.94881324
  -Hartree energ DENC   =    -11165.98829245
  -exchange      EXHF   =         0.00000000
  -V(xc)+E(xc)   XCENC  =      1445.66593519
  PAW double counting   =     32411.62186210   -33618.43314178
  entropy T*S    EENTRO =        -0.06718611
  eigenvalues    EBANDS =     -1042.13405114
  atomic energy  EATOM  =     31415.70703490
  Solvation  Ediel_sol  =         0.00000000
  ---------------------------------------------------
  free energy    TOTEN  =      -437.65786539 eV

  energy without entropy =     -437.59067928  energy(sigma->0) =     -437.62427234


--------------------------------------------------------------------------------------------------------




--------------------------------------- Iteration      1(  10)  ---------------------------------------


    POTLOK:  cpu time    0.1302: real time    0.1305
    SETDIJ:  cpu time    0.0185: real time    0.0186
     EDDAV:  cpu time    1.8741: real time    1.8785
    CHARGE:  cpu time    0.1348: real time    0.1351
    MIXING:  cpu time    0.0033: real time    0.0033
    --------------------------------------------
      LOOP:  cpu time    2.1610: real time    2.1661

 eigenvalue-minimisations  :  1344
 total energy-change (2. order) : 0.7839629E+02  (-0.1438702E+02)
 number of electron     358.0000011 magnetization      31.1894401
 augmentation part      109.9100495 magnetization      27.2691949

 Broyden mixing:
  rms(total) = 0.12750E+02    rms(broyden)= 0.12749E+02
  rms(prec ) = 0.15861E+02
  weight for this iteration     100.00

 eigenvalues of (default mixing * dielectric matrix)
  average eigenvalue GAMMA=   0.3482
  0.5623  0.5623  0.2734  0.1715  0.1715

 Free energy of the ion-electron system (eV)
  ---------------------------------------------------
  alpha Z        PSCENC =      1142.91878713
  Ewald energy   TEWEN  =    -21026.94881324
  -Hartree energ DENC   =    -11168.25883088
  -exchange      EXHF   =         0.00000000
  -V(xc)+E(xc)   XCENC  =      1446.96804493
  PAW double counting   =     33032.24560554   -34258.53954007
  entropy T*S    EENTRO =        -0.03468055
  eigenvalues    EBANDS =      -943.31918396
  atomic energy  EATOM  =     31415.70703490
  Solvation  Ediel_sol  =         0.00000000
  ---------------------------------------------------
  free energy    TOTEN  =      -359.26157620 eV

  energy without entropy =     -359.22689565  energy(sigma->0) =     -359.24423592


--------------------------------------------------------------------------------------------------------




--------------------------------------- Iteration      1(  11)  ---------------------------------------


    POTLOK:  cpu time    0.1303: real time    0.1306
    SETDIJ:  cpu time    0.0184: real time    0.0184
     EDDAV:  cpu time    1.8577: real time    1.8621
    CHARGE:  cpu time    0.1345: real time    0.1348
    MIXING:  cpu time    0.0034: real time    0.0034
    --------------------------------------------
      LOOP:  cpu time    2.1443: real time    2.1494

 eigenvalue-minimisations  :  1328
 total energy-change (2. order) :-0.1799994E+02  (-0.3444022E+02)
 number of electron     357.9999989 magnetization      29.6125896
 augmentation part      109.6765468 magnetization      24.0184867

 Broyden mixing:
  rms(total) = 0.12854E+02    rms(broyden)= 0.12854E+02
  rms(prec ) = 0.17024E+02
  weight for this iteration     100.00

 eigenvalues of (default mixing * dielectric matrix)
  average eigenvalue GAMMA=   0.3575
  0.6239  0.6239  0.2863  0.2863  0.2246  0.0998

 Free energy of the ion-electron system (eV)
  ---------------------------------------------------
  alpha Z        PSCENC =      1142.91878713
  Ewald energy   TEWEN  =    -21026.94881324
  -Hartree energ DENC   =    -11167.42574649
  -exchange      EXHF   =         0.00000000
  -V(xc)+E(xc)   XCENC  =      1448.23896994
  PAW double counting   =     33278.66700577   -34504.61700644
  entropy T*S    EENTRO =        -0.03217089
  eigenvalues    EBANDS =      -963.76958009
  atomic energy  EATOM  =     31415.70703490
  Solvation  Ediel_sol  =         0.00000000
  ---------------------------------------------------
  free energy    TOTEN  =      -377.26151940 eV

  energy without entropy =     -377.22934851  energy(sigma->0) =     -377.24543396


--------------------------------------------------------------------------------------------------------




--------------------------------------- Iteration      1(  12)  ---------------------------------------


    POTLOK:  cpu time    0.1302: real time    0.1306
    SETDIJ:  cpu time    0.0185: real time    0.0186
     EDDAV:  cpu time    2.0199: real time    2.0247
    CHARGE:  cpu time    0.1343: real time    0.1346
    MIXING:  cpu time    0.0036: real time    0.0036
    --------------------------------------------
      LOOP:  cpu time    2.3065: real time    2.3120

 eigenvalue-minimisations  :  1472
 total energy-change (2. order) : 0.3458823E+02  (-0.1666939E+02)
 number of electron     357.9999987 magnetization      27.5297170
 augmentation part      111.0684902 magnetization      26.7845285

 Broyden mixing:
  rms(total) = 0.94760E+01    rms(broyden)= 0.94750E+01
  rms(prec ) = 0.10724E+02
  weight for this iteration     100.00

 eigenvalues of (default mixing * dielectric matrix)
  average eigenvalue GAMMA=   0.3673
  0.8693  0.5015  0.3233  0.3233  0.2305  0.2305  0.0927

 Free energy of the ion-electron system (eV)
  ---------------------------------------------------
  alpha Z        PSCENC =      1142.91878713
  Ewald energy   TEWEN  =    -21026.94881324
  -Hartree energ DENC   =    -11179.26583876
  -exchange      EXHF   =         0.00000000
  -V(xc)+E(xc)   XCENC  =      1451.97924175
  PAW double counting   =     34054.87829821   -35289.55048487
  entropy T*S    EENTRO =        -0.00000000
  eigenvalues    EBANDS =      -912.39151483
  atomic energy  EATOM  =     31415.70703490
  Solvation  Ediel_sol  =         0.00000000
  ---------------------------------------------------
  free energy    TOTEN  =      -342.67328972 eV

  energy without entropy =     -342.67328972  energy(sigma->0) =     -342.67328972


--------------------------------------------------------------------------------------------------------




--------------------------------------- Iteration      1(  13)  ---------------------------------------


    POTLOK:  cpu time    0.1299: real time    0.1302
    SETDIJ:  cpu time    0.0184: real time    0.0184
     EDDAV:  cpu time    1.8366: real time    1.8410
    CHARGE:  cpu time    0.1343: real time    0.1347
    MIXING:  cpu time    0.0037: real time    0.0037
    --------------------------------------------
      LOOP:  cpu time    2.1230: real time    2.1280

 eigenvalue-minimisations  :  1280
 total energy-change (2. order) : 0.3083902E+02  (-0.1996113E+02)
 number of electron     357.9999993 magnetization      26.0621674
 augmentation part      113.7177488 magnetization      23.0262773

 Broyden mixing:
  rms(total) = 0.78142E+01    rms(broyden)= 0.78140E+01
  rms(prec ) = 0.93633E+01
  weight for this iteration     100.00

 eigenvalues of (default mixing * dielectric matrix)
  average eigenvalue GAMMA=   0.3663
  0.9537  0.3516  0.3516  0.3491  0.3491  0.2432  0.2432  0.0890

 Free energy of the ion-electron system (eV)
  ---------------------------------------------------
  alpha Z        PSCENC =      1142.91878713
  Ewald energy   TEWEN  =    -21026.94881324
  -Hartree energ DENC   =    -11132.60333808
  -exchange      EXHF   =         0.00000000
  -V(xc)+E(xc)   XCENC  =      1455.70713531
  PAW double counting   =     34561.88793138   -35790.25236467
  entropy T*S    EENTRO =        -0.02383429
  eigenvalues    EBANDS =      -938.22680705
  atomic energy  EATOM  =     31415.70703490
  Solvation  Ediel_sol  =         0.00000000
  ---------------------------------------------------
  free energy    TOTEN  =      -311.83426860 eV

  energy without entropy =     -311.81043431  energy(sigma->0) =     -311.82235146


--------------------------------------------------------------------------------------------------------




--------------------------------------- Iteration      1(  14)  ---------------------------------------


    POTLOK:  cpu time    0.1301: real time    0.1304
    SETDIJ:  cpu time    0.0184: real time    0.0184
     EDDAV:  cpu time    1.7311: real time    1.7352
    CHARGE:  cpu time    0.1342: real time    0.1345
    MIXING:  cpu time    0.0039: real time    0.0039
    --------------------------------------------
      LOOP:  cpu time    2.0176: real time    2.0224

 eigenvalue-minimisations  :  1216
 total energy-change (2. order) : 0.1922567E+02  (-0.1545085E+02)
 number of electron     358.0000005 magnetization      24.7206626
 augmentation part      115.2940195 magnetization      20.7107747

 Broyden mixing:
  rms(total) = 0.61186E+01    rms(broyden)= 0.61182E+01
  rms(prec ) = 0.67498E+01
  weight for this iteration     100.00

 eigenvalues of (default mixing * dielectric matrix)
  average eigenvalue GAMMA=   0.3954
  1.0151  0.4780  0.4780  0.4873  0.3147  0.3147  0.2162  0.1664  0.0885

 Free energy of the ion-electron system (eV)
  ---------------------------------------------------
  alpha Z        PSCENC =      1142.91878713
  Ewald energy   TEWEN  =    -21026.94881324
  -Hartree energ DENC   =    -11097.43839576
  -exchange      EXHF   =         0.00000000
  -V(xc)+E(xc)   XCENC  =      1457.71312107
  PAW double counting   =     34812.19763578   -36030.83223734
  entropy T*S    EENTRO =        -0.03795464
  eigenvalues    EBANDS =      -965.88777207
  atomic energy  EATOM  =     31415.70703490
  Solvation  Ediel_sol  =         0.00000000
  ---------------------------------------------------
  free energy    TOTEN  =      -292.60859416 eV

  energy without entropy =     -292.57063952  energy(sigma->0) =     -292.58961684


--------------------------------------------------------------------------------------------------------




--------------------------------------- Iteration      1(  15)  ---------------------------------------


    POTLOK:  cpu time    0.1301: real time    0.1304
    SETDIJ:  cpu time    0.0183: real time    0.0183
     EDDAV:  cpu time    1.5873: real time    1.5910
    CHARGE:  cpu time    0.1347: real time    0.1350
    MIXING:  cpu time    0.0041: real time    0.0041
    --------------------------------------------
      LOOP:  cpu time    1.8744: real time    1.8789

 eigenvalue-minimisations  :  1088
 total energy-change (2. order) :-0.9054906E+01  (-0.3222396E+01)
 number of electron     357.9999980 magnetization      22.6419794
 augmentation part      115.6746706 magnetization      21.1723678

 Broyden mixing:
  rms(total) = 0.94171E+01    rms(broyden)= 0.94164E+01
  rms(prec ) = 0.10896E+02
  weight for this iteration     100.00

 eigenvalues of (default mixing * dielectric matrix)
  average eigenvalue GAMMA=   0.4113
  1.2046  0.6471  0.5311  0.5311  0.3078  0.3078  0.0880  0.1775  0.1632  0.1544

 Free energy of the ion-electron system (eV)
  ---------------------------------------------------
  alpha Z        PSCENC =      1142.91878713
  Ewald energy   TEWEN  =    -21026.94881324
  -Hartree energ DENC   =    -11091.10371143
  -exchange      EXHF   =         0.00000000
  -V(xc)+E(xc)   XCENC  =      1455.59487404
  PAW double counting   =     34992.09641762   -36210.80319606
  entropy T*S    EENTRO =        -0.07130996
  eigenvalues    EBANDS =      -979.05358336
  atomic energy  EATOM  =     31415.70703490
  Solvation  Ediel_sol  =         0.00000000
  ---------------------------------------------------
  free energy    TOTEN  =      -301.66350037 eV

  energy without entropy =     -301.59219040  energy(sigma->0) =     -301.62784538


--------------------------------------------------------------------------------------------------------




--------------------------------------- Iteration      1(  16)  ---------------------------------------


    POTLOK:  cpu time    0.1302: real time    0.1305
    SETDIJ:  cpu time    0.0184: real time    0.0185
     EDDAV:  cpu time    1.8255: real time    1.8299
    CHARGE:  cpu time    0.1340: real time    0.1343
    MIXING:  cpu time    0.0044: real time    0.0044
    --------------------------------------------
      LOOP:  cpu time    2.1126: real time    2.1176

 eigenvalue-minimisations  :  1296
 total energy-change (2. order) : 0.2055553E+02  (-0.1921972E+02)
 number of electron     358.0000005 magnetization      21.7757792
 augmentation part      117.7787300 magnetization      19.3627704

 Broyden mixing:
  rms(total) = 0.28451E+01    rms(broyden)= 0.28440E+01
  rms(prec ) = 0.29995E+01
  weight for this iteration     100.00

 eigenvalues of (default mixing * dielectric matrix)
  average eigenvalue GAMMA=   0.3986
  0.9602  0.6693  0.6693  0.4408  0.4408  0.3080  0.3080  0.1863  0.1863  0.0878
  0.1282

 Free energy of the ion-electron system (eV)
  ---------------------------------------------------
  alpha Z        PSCENC =      1142.91878713
  Ewald energy   TEWEN  =    -21026.94881324
  -Hartree energ DENC   =    -11095.77740745
  -exchange      EXHF   =         0.00000000
  -V(xc)+E(xc)   XCENC  =      1457.16702466
  PAW double counting   =     35237.12401771   -36450.85498024
  entropy T*S    EENTRO =        -0.00045452
  eigenvalues    EBANDS =      -960.44317733
  atomic energy  EATOM  =     31415.70703490
  Solvation  Ediel_sol  =         0.00000000
  ---------------------------------------------------
  free energy    TOTEN  =      -281.10796837 eV

  energy without entropy =     -281.10751386  energy(sigma->0) =     -281.10774111


--------------------------------------------------------------------------------------------------------




--------------------------------------- Iteration      1(  17)  ---------------------------------------


    POTLOK:  cpu time    0.1302: real time    0.1305
    SETDIJ:  cpu time    0.0183: real time    0.0184
     EDDAV:  cpu time    1.7369: real time    1.7410
    CHARGE:  cpu time    0.1345: real time    0.1349
    MIXING:  cpu time    0.0045: real time    0.0045
    --------------------------------------------
      LOOP:  cpu time    2.0244: real time    2.0291

 eigenvalue-minimisations  :  1216
 total energy-change (2. order) :-0.4323766E+01  (-0.7781865E+00)
 number of electron     358.0000005 magnetization      20.5648675
 augmentation part      117.3150441 magnetization      18.4604518

 Broyden mixing:
  rms(total) = 0.24824E+01    rms(broyden)= 0.24823E+01
  rms(prec ) = 0.26492E+01
  weight for this iteration     100.00

 eigenvalues of (default mixing * dielectric matrix)
  average eigenvalue GAMMA=   0.4427
  0.9003  0.9003  0.9331  0.4940  0.4376  0.4376  0.3120  0.3120  0.1834  0.1834
  0.0879  0.1309

 Free energy of the ion-electron system (eV)
  ---------------------------------------------------
  alpha Z        PSCENC =      1142.91878713
  Ewald energy   TEWEN  =    -21026.94881324
  -Hartree energ DENC   =    -11111.58314587
  -exchange      EXHF   =         0.00000000
  -V(xc)+E(xc)   XCENC  =      1454.37506720
  PAW double counting   =     35237.68405928   -36452.84439801
  entropy T*S    EENTRO =        -0.00579846
  eigenvalues    EBANDS =      -944.73452688
  atomic energy  EATOM  =     31415.70703490
  Solvation  Ediel_sol  =         0.00000000
  ---------------------------------------------------
  free energy    TOTEN  =      -285.43173395 eV

  energy without entropy =     -285.42593549  energy(sigma->0) =     -285.42883472


--------------------------------------------------------------------------------------------------------




--------------------------------------- Iteration      1(  18)  ---------------------------------------


    POTLOK:  cpu time    0.1302: real time    0.1305
    SETDIJ:  cpu time    0.0182: real time    0.0182
     EDDAV:  cpu time    1.9171: real time    1.9217
    CHARGE:  cpu time    0.1345: real time    0.1349
    MIXING:  cpu time    0.0046: real time    0.0046
    --------------------------------------------
      LOOP:  cpu time    2.2046: real time    2.2099

 eigenvalue-minimisations  :  1376
 total energy-change (2. order) :-0.6808377E+01  (-0.2733681E+00)
 number of electron     358.0000003 magnetization      18.2544896
 augmentation part      117.0715910 magnetization      16.4381372

 Broyden mixing:
  rms(total) = 0.23464E+01    rms(broyden)= 0.23464E+01
  rms(prec ) = 0.25966E+01
  weight for this iteration     100.00

 eigenvalues of (default mixing * dielectric matrix)
  average eigenvalue GAMMA=   0.4915
  1.2359  1.2359  0.6867  0.6867  0.4818  0.4818  0.3105  0.3105  0.3738  0.1837
  0.1837  0.0879  0.1307

 Free energy of the ion-electron system (eV)
  ---------------------------------------------------
  alpha Z        PSCENC =      1142.91878713
  Ewald energy   TEWEN  =    -21026.94881324
  -Hartree energ DENC   =    -11116.22687554
  -exchange      EXHF   =         0.00000000
  -V(xc)+E(xc)   XCENC  =      1451.39075105
  PAW double counting   =     35220.04123638   -36430.55635574
  entropy T*S    EENTRO =        -0.01407261
  eigenvalues    EBANDS =      -948.55180303
  atomic energy  EATOM  =     31415.70703490
  Solvation  Ediel_sol  =         0.00000000
  ---------------------------------------------------
  free energy    TOTEN  =      -292.24011071 eV

  energy without entropy =     -292.22603810  energy(sigma->0) =     -292.23307440


--------------------------------------------------------------------------------------------------------




--------------------------------------- Iteration      1(  19)  ---------------------------------------


    POTLOK:  cpu time    0.1303: real time    0.1306
    SETDIJ:  cpu time    0.0182: real time    0.0183
     EDDAV:  cpu time    1.8439: real time    1.8483
    CHARGE:  cpu time    0.1349: real time    0.1352
    MIXING:  cpu time    0.0047: real time    0.0048
    --------------------------------------------
      LOOP:  cpu time    2.1320: real time    2.1371

 eigenvalue-minimisations  :  1312
 total energy-change (2. order) :-0.6798802E+01  (-0.1104853E+01)
 number of electron     358.0000004 magnetization      18.3185204
 augmentation part      116.9670839 magnetization      15.9473985

 Broyden mixing:
  rms(total) = 0.36629E+01    rms(broyden)= 0.36626E+01
  rms(prec ) = 0.46048E+01
  weight for this iteration     100.00

 eigenvalues of (default mixing * dielectric matrix)
  average eigenvalue GAMMA=   0.4515
  1.1452  1.1452  0.6604  0.6604  0.4818  0.4818  0.3099  0.3099  0.3578  0.0879
  0.1881  0.1881  0.1309  0.1741

 Free energy of the ion-electron system (eV)
  ---------------------------------------------------
  alpha Z        PSCENC =      1142.91878713
  Ewald energy   TEWEN  =    -21026.94881324
  -Hartree energ DENC   =    -11110.40553212
  -exchange      EXHF   =         0.00000000
  -V(xc)+E(xc)   XCENC  =      1447.99308448
  PAW double counting   =     35269.26340804   -36471.86429699
  entropy T*S    EENTRO =        -0.06250074
  eigenvalues    EBANDS =      -965.64008410
  atomic energy  EATOM  =     31415.70703490
  Solvation  Ediel_sol  =         0.00000000
  ---------------------------------------------------
  free energy    TOTEN  =      -299.03891265 eV

  energy without entropy =     -298.97641191  energy(sigma->0) =     -299.00766228


--------------------------------------------------------------------------------------------------------




--------------------------------------- Iteration      1(  20)  ---------------------------------------


    POTLOK:  cpu time    0.1302: real time    0.1305
    SETDIJ:  cpu time    0.0182: real time    0.0182
     EDDAV:  cpu time    1.5733: real time    1.5771
    CHARGE:  cpu time    0.1343: real time    0.1347
    MIXING:  cpu time    0.0049: real time    0.0050
    --------------------------------------------
      LOOP:  cpu time    1.8610: real time    1.8654

 eigenvalue-minimisations  :  1072
 total energy-change (2. order) : 0.1625348E+01  (-0.9955643E+00)
 number of electron     358.0000004 magnetization      17.9360313
 augmentation part      117.6696224 magnetization      16.4459505

 Broyden mixing:
  rms(total) = 0.19507E+01    rms(broyden)= 0.19505E+01
  rms(prec ) = 0.22933E+01
  weight for this iteration     100.00

 eigenvalues of (default mixing * dielectric matrix)
  average eigenvalue GAMMA=   0.4492
  1.2409  1.2409  0.6725  0.6725  0.4723  0.4723  0.3094  0.3094  0.2895  0.2364
  0.2364  0.1835  0.1835  0.0879  0.1308

 Free energy of the ion-electron system (eV)
  ---------------------------------------------------
  alpha Z        PSCENC =      1142.91878713
  Ewald energy   TEWEN  =    -21026.94881324
  -Hartree energ DENC   =    -11106.20710080
  -exchange      EXHF   =         0.00000000
  -V(xc)+E(xc)   XCENC  =      1448.13190193
  PAW double counting   =     35299.37814400   -36501.41483345
  entropy T*S    EENTRO =        -0.03330864
  eigenvalues    EBANDS =      -968.94537619
  atomic energy  EATOM  =     31415.70703490
  Solvation  Ediel_sol  =         0.00000000
  ---------------------------------------------------
  free energy    TOTEN  =      -297.41356437 eV

  energy without entropy =     -297.38025573  energy(sigma->0) =     -297.39691005


--------------------------------------------------------------------------------------------------------




--------------------------------------- Iteration      1(  21)  ---------------------------------------


    POTLOK:  cpu time    0.1305: real time    0.1309
    SETDIJ:  cpu time    0.0183: real time    0.0183
     EDDAV:  cpu time    1.6469: real time    1.6508
    CHARGE:  cpu time    0.1341: real time    0.1344
    MIXING:  cpu time    0.0051: real time    0.0051
    --------------------------------------------
      LOOP:  cpu time    1.9350: real time    1.9395

 eigenvalue-minimisations  :  1136
 total energy-change (2. order) :-0.9806890E+00  (-0.2782561E-01)
 number of electron     358.0000004 magnetization      14.0761574
 augmentation part      117.6353544 magnetization      12.5933011

 Broyden mixing:
  rms(total) = 0.19101E+01    rms(broyden)= 0.19100E+01
  rms(prec ) = 0.22866E+01
  weight for this iteration     100.00

 eigenvalues of (default mixing * dielectric matrix)
  average eigenvalue GAMMA=   0.5378
  1.4797  1.4797  0.9074  0.9074  0.4964  0.4964  0.4859  0.4859  0.3111  0.3111
  0.4510  0.0879  0.1308  0.1858  0.1858  0.2032

 Free energy of the ion-electron system (eV)
  ---------------------------------------------------
  alpha Z        PSCENC =      1142.91878713
  Ewald energy   TEWEN  =    -21026.94881324
  -Hartree energ DENC   =    -11106.34690933
  -exchange      EXHF   =         0.00000000
  -V(xc)+E(xc)   XCENC  =      1447.77582489
  PAW double counting   =     35284.00261363   -36485.81885313
  entropy T*S    EENTRO =        -0.02986352
  eigenvalues    EBANDS =      -969.65407465
  atomic energy  EATOM  =     31415.70703490
  Solvation  Ediel_sol  =         0.00000000
  ---------------------------------------------------
  free energy    TOTEN  =      -298.39425332 eV

  energy without entropy =     -298.36438981  energy(sigma->0) =     -298.37932157


--------------------------------------------------------------------------------------------------------




--------------------------------------- Iteration      1(  22)  ---------------------------------------


    POTLOK:  cpu time    0.1299: real time    0.1302
    SETDIJ:  cpu time    0.0182: real time    0.0182
     EDDAV:  cpu time    1.8109: real time    1.8152
    CHARGE:  cpu time    0.1345: real time    0.1348
    MIXING:  cpu time    0.0053: real time    0.0053
    --------------------------------------------
      LOOP:  cpu time    2.0986: real time    2.1036

 eigenvalue-minimisations  :  1280
 total energy-change (2. order) :-0.6356285E+01  (-0.5591435E+00)
 number of electron     358.0000005 magnetization      12.0699935
 augmentation part      117.4815853 magnetization      10.0905296

 Broyden mixing:
  rms(total) = 0.35442E+01    rms(broyden)= 0.35440E+01
  rms(prec ) = 0.46168E+01
  weight for this iteration     100.00

 eigenvalues of (default mixing * dielectric matrix)
  average eigenvalue GAMMA=   0.5341
  1.6176  1.6176  0.8558  0.8558  0.5548  0.5548  0.4918  0.4918  0.3111  0.3111
  0.4026  0.0879  0.1308  0.2143  0.2143  0.1838  0.1838

 Free energy of the ion-electron system (eV)
  ---------------------------------------------------
  alpha Z        PSCENC =      1142.91878713
  Ewald energy   TEWEN  =    -21026.94881324
  -Hartree energ DENC   =    -11096.37151286
  -exchange      EXHF   =         0.00000000
  -V(xc)+E(xc)   XCENC  =      1444.97047922
  PAW double counting   =     35408.56926107   -36605.39746804
  entropy T*S    EENTRO =        -0.08012708
  eigenvalues    EBANDS =      -988.11817921
  atomic energy  EATOM  =     31415.70703490
  Solvation  Ediel_sol  =         0.00000000
  ---------------------------------------------------
  free energy    TOTEN  =      -304.75053810 eV

  energy without entropy =     -304.67041102  energy(sigma->0) =     -304.71047456


--------------------------------------------------------------------------------------------------------




--------------------------------------- Iteration      1(  23)  ---------------------------------------


    POTLOK:  cpu time    0.1305: real time    0.1308
    SETDIJ:  cpu time    0.0182: real time    0.0182
     EDDAV:  cpu time    1.6661: real time    1.6701
    CHARGE:  cpu time    0.1341: real time    0.1344
    MIXING:  cpu time    0.0055: real time    0.0055
    --------------------------------------------
      LOOP:  cpu time    1.9543: real time    1.9590

 eigenvalue-minimisations  :  1152
 total energy-change (2. order) :-0.5067484E+01  (-0.8530591E+00)
 number of electron     358.0000004 magnetization      11.9075446
 augmentation part      117.0914575 magnetization       9.3987887

 Broyden mixing:
  rms(total) = 0.30262E+01    rms(broyden)= 0.30261E+01
  rms(prec ) = 0.39089E+01
  weight for this iteration     100.00

 eigenvalues of (default mixing * dielectric matrix)
  average eigenvalue GAMMA=   0.5021
  1.5819  1.5819  0.8128  0.8128  0.5843  0.5843  0.4892  0.4892  0.3110  0.3110
  0.4123  0.0879  0.1875  0.1875  0.1308  0.1781  0.1476  0.1476

 Free energy of the ion-electron system (eV)
  ---------------------------------------------------
  alpha Z        PSCENC =      1142.91878713
  Ewald energy   TEWEN  =    -21026.94881324
  -Hartree energ DENC   =    -11098.83387413
  -exchange      EXHF   =         0.00000000
  -V(xc)+E(xc)   XCENC  =      1442.49334354
  PAW double counting   =     35452.80561071   -36648.53819867
  entropy T*S    EENTRO =        -0.00233268
  eigenvalues    EBANDS =      -989.41957989
  atomic energy  EATOM  =     31415.70703490
  Solvation  Ediel_sol  =         0.00000000
  ---------------------------------------------------
  free energy    TOTEN  =      -309.81802234 eV

  energy without entropy =     -309.81568965  energy(sigma->0) =     -309.81685599


--------------------------------------------------------------------------------------------------------




--------------------------------------- Iteration      1(  24)  ---------------------------------------


    POTLOK:  cpu time    0.1298: real time    0.1301
    SETDIJ:  cpu time    0.0184: real time    0.0184
     EDDAV:  cpu time    1.7934: real time    1.7977
    CHARGE:  cpu time    0.1343: real time    0.1346
    MIXING:  cpu time    0.0056: real time    0.0056
    --------------------------------------------
      LOOP:  cpu time    2.0815: real time    2.0864

 eigenvalue-minimisations  :  1264
 total energy-change (2. order) :-0.2003584E+00  (-0.3415097E-01)
 number of electron     358.0000004 magnetization      11.9114134
 augmentation part      117.1380695 magnetization       9.4050203

 Broyden mixing:
  rms(total) = 0.30589E+01    rms(broyden)= 0.30589E+01
  rms(prec ) = 0.39444E+01
  weight for this iteration     100.00

 eigenvalues of (default mixing * dielectric matrix)
  average eigenvalue GAMMA=   0.4909
  1.5901  1.5901  0.8168  0.8168  0.5873  0.5873  0.4882  0.4882  0.3110  0.3110
  0.4022  0.0879  0.1308  0.1981  0.1856  0.1856  0.2105  0.2105  0.1300

 Free energy of the ion-electron system (eV)
  ---------------------------------------------------
  alpha Z        PSCENC =      1142.91878713
  Ewald energy   TEWEN  =    -21026.94881324
  -Hartree energ DENC   =    -11099.50806997
  -exchange      EXHF   =         0.00000000
  -V(xc)+E(xc)   XCENC  =      1442.52192911
  PAW double counting   =     35444.70832096   -36640.33919137
  entropy T*S    EENTRO =        -0.00159056
  eigenvalues    EBANDS =      -989.07678773
  atomic energy  EATOM  =     31415.70703490
  Solvation  Ediel_sol  =         0.00000000
  ---------------------------------------------------
  free energy    TOTEN  =      -310.01838077 eV

  energy without entropy =     -310.01679021  energy(sigma->0) =     -310.01758549


--------------------------------------------------------------------------------------------------------




--------------------------------------- Iteration      1(  25)  ---------------------------------------


    POTLOK:  cpu time    0.1300: real time    0.1303
    SETDIJ:  cpu time    0.0182: real time    0.0183
     EDDAV:  cpu time    1.7379: real time    1.7420
    CHARGE:  cpu time    0.1354: real time    0.1357
    MIXING:  cpu time    0.0058: real time    0.0058
    --------------------------------------------
      LOOP:  cpu time    2.0273: real time    2.0321

 eigenvalue-minimisations  :  1216
 total energy-change (2. order) : 0.1776349E-01  (-0.1640562E-02)
 number of electron     358.0000004 magnetization      11.9432130
 augmentation part      117.1401576 magnetization       9.4347729

 Broyden mixing:
  rms(total) = 0.30586E+01    rms(broyden)= 0.30586E+01
  rms(prec ) = 0.39447E+01
  weight for this iteration     100.00

 eigenvalues of (default mixing * dielectric matrix)
  average eigenvalue GAMMA=   0.4958
  1.5498  1.5498  0.8091  0.8091  0.6011  0.6011  0.4894  0.4894  0.3395  0.3395
  0.3111  0.3111  0.3808  0.2698  0.2698  0.0879  0.1308  0.1850  0.1850  0.2077

 Free energy of the ion-electron system (eV)
  ---------------------------------------------------
  alpha Z        PSCENC =      1142.91878713
  Ewald energy   TEWEN  =    -21026.94881324
  -Hartree energ DENC   =    -11099.69512800
  -exchange      EXHF   =         0.00000000
  -V(xc)+E(xc)   XCENC  =      1442.54674578
  PAW double counting   =     35443.50956260   -36639.13745683
  entropy T*S    EENTRO =        -0.00148927
  eigenvalues    EBANDS =      -988.89986037
  atomic energy  EATOM  =     31415.70703490
  Solvation  Ediel_sol  =         0.00000000
  ---------------------------------------------------
  free energy    TOTEN  =      -310.00061728 eV

  energy without entropy =     -309.99912801  energy(sigma->0) =     -309.99987265


--------------------------------------------------------------------------------------------------------




--------------------------------------- Iteration      1(  26)  ---------------------------------------


    POTLOK:  cpu time    0.1304: real time    0.1307
    SETDIJ:  cpu time    0.0183: real time    0.0184
     EDDAV:  cpu time    1.9196: real time    1.9241
    CHARGE:  cpu time    0.1343: real time    0.1346
    MIXING:  cpu time    0.0060: real time    0.0060
    --------------------------------------------
      LOOP:  cpu time    2.2085: real time    2.2138

 eigenvalue-minimisations  :  1376
 total energy-change (2. order) : 0.1286326E+00  (-0.1300760E-03)
 number of electron     358.0000004 magnetization      11.6691757
 augmentation part      117.1555793 magnetization       9.1576904

 Broyden mixing:
  rms(total) = 0.30487E+01    rms(broyden)= 0.30487E+01
  rms(prec ) = 0.39337E+01
  weight for this iteration     100.00

 eigenvalues of (default mixing * dielectric matrix)
  average eigenvalue GAMMA=   0.5001
  1.5753  1.5753  0.7797  0.7797  0.4944  0.6060  0.6060  0.4890  0.4890  0.3638
  0.3638  0.3111  0.3111  0.3823  0.2883  0.2883  0.0879  0.1308  0.1849  0.1849
  0.2110

 Free energy of the ion-electron system (eV)
  ---------------------------------------------------
  alpha Z        PSCENC =      1142.91878713
  Ewald energy   TEWEN  =    -21026.94881324
  -Hartree energ DENC   =    -11099.12485988
  -exchange      EXHF   =         0.00000000
  -V(xc)+E(xc)   XCENC  =      1442.54658018
  PAW double counting   =     35445.23456812   -36640.79775533
  entropy T*S    EENTRO =        -0.00134809
  eigenvalues    EBANDS =      -989.40617847
  atomic energy  EATOM  =     31415.70703490
  Solvation  Ediel_sol  =         0.00000000
  ---------------------------------------------------
  free energy    TOTEN  =      -309.87198468 eV

  energy without entropy =     -309.87063658  energy(sigma->0) =     -309.87131063


--------------------------------------------------------------------------------------------------------




--------------------------------------- Iteration      1(  27)  ---------------------------------------


    POTLOK:  cpu time    0.1302: real time    0.1306
    SETDIJ:  cpu time    0.0182: real time    0.0183
     EDDAV:  cpu time    1.9733: real time    1.9780
    CHARGE:  cpu time    0.1346: real time    0.1349
    MIXING:  cpu time    0.0061: real time    0.0061
    --------------------------------------------
      LOOP:  cpu time    2.2625: real time    2.2678

 eigenvalue-minimisations  :  1424
 total energy-change (2. order) :-0.8438336E+00  (-0.7904090E-02)
 number of electron     358.0000004 magnetization      12.1144555
 augmentation part      117.1180935 magnetization       9.5849238

 Broyden mixing:
  rms(total) = 0.31634E+01    rms(broyden)= 0.31634E+01
  rms(prec ) = 0.40530E+01
  weight for this iteration     100.00

 eigenvalues of (default mixing * dielectric matrix)
  average eigenvalue GAMMA=   0.5900
  1.5101  1.5101  1.2380  1.2380  0.9461  0.9461  0.6302  0.6302  0.4924  0.4924
  0.3111  0.3111  0.4225  0.4225  0.4119  0.4119  0.0879  0.1308  0.1849  0.1849
  0.2521  0.2154

 Free energy of the ion-electron system (eV)
  ---------------------------------------------------
  alpha Z        PSCENC =      1142.91878713
  Ewald energy   TEWEN  =    -21026.94881324
  -Hartree energ DENC   =    -11107.33107215
  -exchange      EXHF   =         0.00000000
  -V(xc)+E(xc)   XCENC  =      1442.95357712
  PAW double counting   =     35455.58291640   -36652.48434382
  entropy T*S    EENTRO =        -0.00269948
[...]
  n-local  -823.22384  -823.22394  -823.23139    -1.12388     1.12483     1.12496
  augment  3034.55238  3034.55140  3034.55095     8.11342    -8.11218    -8.11127
  Kinetic  5491.00848  5491.00864  5491.00821     7.95383    -7.95386    -7.95390
  Fock        0.00000     0.00000     0.00000     0.00000     0.00000     0.00000
  -------------------------------------------------------------------------------------
  Total       -0.0094081     -0.0094081     -0.0094081      0.0142259     -0.0142259     -0.0142259
  in kB       -0.0306219     -0.0306219     -0.0306219      0.0463030     -0.0463030     -0.0463030
  external PRESSURE =      -0.0306219 kB  Pullay stress =       0.0000000 kB


 VOLUME and BASIS-vectors are now :
 -----------------------------------------------------------------------------
  energy-cutoff  :      500.00
  volume of cell :      492.25
      direct lattice vectors                 reciprocal lattice vectors
     0.000000000  3.975244214  3.975244214     0.062450262  0.062450262  0.189106610
     3.975244214 -3.975244214  0.000000000     0.157003567 -0.094553305  0.094553305
    11.708312994 11.708312994 -7.733068781     0.032103043  0.032103043 -0.032103043

  length of vectors
     5.621844281  5.621844281 18.274833491     0.208713633  0.206229908  0.055604102


 FORCES acting on ions
    electron-ion (+dipol)            ewald-force                    non-local-force                 convergence-correction
 -----------------------------------------------------------------------------------------------
   -.518E+01 -.518E+01 0.518E+01   0.485E+01 0.485E+01 -.485E+01   0.338E+00 0.338E+00 -.338E+00   0.392E-02 0.392E-02 -.392E-02
   0.518E+01 0.518E+01 -.518E+01   -.485E+01 -.485E+01 0.485E+01   -.338E+00 -.338E+00 0.338E+00   -.392E-02 -.392E-02 0.392E-02
   0.381E+02 0.381E+02 -.551E+02   -.382E+02 -.382E+02 0.559E+02   0.368E-01 0.368E-01 -.799E+00   0.734E-01 0.734E-01 -.405E-01
   -.381E+02 -.381E+02 0.551E+02   0.382E+02 0.382E+02 -.559E+02   -.368E-01 -.368E-01 0.799E+00   -.734E-01 -.734E-01 0.405E-01
   -.208E+02 -.208E+02 0.219E+02   0.209E+02 0.209E+02 -.220E+02   -.221E-01 -.221E-01 0.249E-01   -.229E-02 -.229E-02 0.586E-02
   0.208E+02 0.208E+02 -.219E+02   -.209E+02 -.209E+02 0.220E+02   0.221E-01 0.221E-01 -.249E-01   0.229E-02 0.229E-02 -.586E-02
   0.381E+02 0.551E+02 -.381E+02   -.382E+02 -.559E+02 0.382E+02   0.368E-01 0.799E+00 -.368E-01   0.734E-01 0.405E-01 -.734E-01
   -.381E+02 -.551E+02 0.381E+02   0.382E+02 0.559E+02 -.382E+02   -.368E-01 -.799E+00 0.368E-01   -.734E-01 -.405E-01 0.734E-01
   -.208E+02 -.219E+02 0.208E+02   0.209E+02 0.220E+02 -.209E+02   -.221E-01 -.249E-01 0.221E-01   -.229E-02 -.586E-02 0.229E-02
   0.208E+02 0.219E+02 -.208E+02   -.209E+02 -.220E+02 0.209E+02   0.221E-01 0.249E-01 -.221E-01   0.229E-02 0.586E-02 -.229E-02
   0.551E+02 0.381E+02 -.381E+02   -.559E+02 -.382E+02 0.382E+02   0.799E+00 0.368E-01 -.368E-01   0.405E-01 0.734E-01 -.734E-01
   -.551E+02 -.381E+02 0.381E+02   0.559E+02 0.382E+02 -.382E+02   -.799E+00 -.368E-01 0.368E-01   -.405E-01 -.734E-01 0.734E-01
   -.219E+02 -.208E+02 0.208E+02   0.220E+02 0.209E+02 -.209E+02   -.249E-01 -.221E-01 0.221E-01   -.586E-02 -.229E-02 0.229E-02
   0.219E+02 0.208E+02 -.208E+02   -.220E+02 -.209E+02 0.209E+02   0.249E-01 0.221E-01 -.221E-01   0.586E-02 0.229E-02 -.229E-02
   0.432E-11 -.344E-12 0.199E-10   0.746E-13 -.131E-12 -.103E-12   0.271E-19 -.271E-19 -.136E-19   -.207E-11 -.114E-11 -.968E-12
   -.351E+02 -.351E+02 0.351E+02   0.353E+02 0.353E+02 -.353E+02   -.199E+00 -.199E+00 0.199E+00   -.661E-02 -.661E-02 0.661E-02
   0.882E-11 0.122E-11 0.172E-10   0.497E-13 0.000E+00 -.497E-13   -.542E-19 -.271E-19 0.000E+00   -.231E-11 -.270E-11 0.186E-11
   0.351E+02 0.351E+02 -.351E+02   -.353E+02 -.353E+02 0.353E+02   0.199E+00 0.199E+00 -.199E+00   0.661E-02 0.661E-02 -.661E-02
   0.171E+03 0.171E+03 0.180E+03   -.180E+03 -.180E+03 -.189E+03   0.984E+01 0.984E+01 0.871E+01   -.352E-01 -.352E-01 0.953E-01
   0.193E+03 0.193E+03 0.234E+03   -.209E+03 -.209E+03 -.250E+03   0.154E+02 0.154E+02 0.161E+02   -.437E-02 -.437E-02 0.101E-01
   0.219E+03 0.219E+03 0.209E+03   -.235E+03 -.235E+03 -.225E+03   0.155E+02 0.155E+02 0.160E+02   0.401E-03 0.401E-03 -.605E-02
   0.240E+03 0.240E+03 0.177E+03   -.256E+03 -.256E+03 -.192E+03   0.160E+02 0.160E+02 0.154E+02   0.546E-02 0.546E-02 -.147E-01
   0.171E+03 -.180E+03 -.171E+03   -.180E+03 0.189E+03 0.180E+03   0.984E+01 -.871E+01 -.984E+01   -.352E-01 -.953E-01 0.352E-01
   0.193E+03 -.234E+03 -.193E+03   -.209E+03 0.250E+03 0.209E+03   0.154E+02 -.161E+02 -.154E+02   -.437E-02 -.101E-01 0.437E-02
   0.219E+03 -.209E+03 -.219E+03   -.235E+03 0.225E+03 0.235E+03   0.155E+02 -.160E+02 -.155E+02   0.401E-03 0.605E-02 -.401E-03
   0.240E+03 -.177E+03 -.240E+03   -.256E+03 0.192E+03 0.256E+03   0.160E+02 -.154E+02 -.160E+02   0.546E-02 0.147E-01 -.546E-02
   -.180E+03 0.171E+03 -.171E+03   0.189E+03 -.180E+03 0.180E+03   -.871E+01 0.984E+01 -.984E+01   -.953E-01 -.352E-01 0.352E-01
   -.234E+03 0.193E+03 -.193E+03   0.250E+03 -.209E+03 0.209E+03   -.161E+02 0.154E+02 -.154E+02   -.101E-01 -.437E-02 0.437E-02
   -.209E+03 0.219E+03 -.219E+03   0.225E+03 -.235E+03 0.235E+03   -.160E+02 0.155E+02 -.155E+02   0.605E-02 0.401E-03 -.401E-03
   -.177E+03 0.240E+03 -.240E+03   0.192E+03 -.256E+03 0.256E+03   -.154E+02 0.160E+02 -.160E+02   0.147E-01 0.546E-02 -.546E-02
   -.178E+03 -.178E+03 0.178E+03   0.187E+03 0.187E+03 -.187E+03   -.896E+01 -.896E+01 0.896E+01   0.409E-01 0.409E-01 -.409E-01
   -.238E+03 -.238E+03 0.238E+03   0.252E+03 0.252E+03 -.252E+03   -.140E+02 -.140E+02 0.140E+02   -.127E-01 -.127E-01 0.127E-01
   -.222E+03 -.222E+03 0.222E+03   0.237E+03 0.237E+03 -.237E+03   -.148E+02 -.148E+02 0.148E+02   0.877E-03 0.877E-03 -.877E-03
   -.196E+03 -.196E+03 0.196E+03   0.211E+03 0.211E+03 -.211E+03   -.148E+02 -.148E+02 0.148E+02   0.475E-02 0.475E-02 -.475E-02
   -.171E+03 -.171E+03 -.180E+03   0.180E+03 0.180E+03 0.189E+03   -.984E+01 -.984E+01 -.871E+01   0.352E-01 0.352E-01 -.953E-01
   -.240E+03 -.240E+03 -.177E+03   0.256E+03 0.256E+03 0.192E+03   -.160E+02 -.160E+02 -.154E+02   -.546E-02 -.546E-02 0.147E-01
   -.219E+03 -.219E+03 -.209E+03   0.235E+03 0.235E+03 0.225E+03   -.155E+02 -.155E+02 -.160E+02   -.401E-03 -.401E-03 0.605E-02
   -.193E+03 -.193E+03 -.234E+03   0.209E+03 0.209E+03 0.250E+03   -.154E+02 -.154E+02 -.161E+02   0.437E-02 0.437E-02 -.101E-01
   -.171E+03 0.180E+03 0.171E+03   0.180E+03 -.189E+03 -.180E+03   -.984E+01 0.871E+01 0.984E+01   0.352E-01 0.953E-01 -.352E-01
   -.240E+03 0.177E+03 0.240E+03   0.256E+03 -.192E+03 -.256E+03   -.160E+02 0.154E+02 0.160E+02   -.546E-02 -.147E-01 0.546E-02
   -.219E+03 0.209E+03 0.219E+03   0.235E+03 -.225E+03 -.235E+03   -.155E+02 0.160E+02 0.155E+02   -.401E-03 -.605E-02 0.401E-03
   -.193E+03 0.234E+03 0.193E+03   0.209E+03 -.250E+03 -.209E+03   -.154E+02 0.161E+02 0.154E+02   0.437E-02 0.101E-01 -.437E-02
   0.180E+03 -.171E+03 0.171E+03   -.189E+03 0.180E+03 -.180E+03   0.871E+01 -.984E+01 0.984E+01   0.953E-01 0.352E-01 -.352E-01
   0.177E+03 -.240E+03 0.240E+03   -.192E+03 0.256E+03 -.256E+03   0.154E+02 -.160E+02 0.160E+02   -.147E-01 -.546E-02 0.546E-02
   0.209E+03 -.219E+03 0.219E+03   -.225E+03 0.235E+03 -.235E+03   0.160E+02 -.155E+02 0.155E+02   -.605E-02 -.401E-03 0.401E-03
   0.234E+03 -.193E+03 0.193E+03   -.250E+03 0.209E+03 -.209E+03   0.161E+02 -.154E+02 0.154E+02   0.101E-01 0.437E-02 -.437E-02
   0.238E+03 0.238E+03 -.238E+03   -.252E+03 -.252E+03 0.252E+03   0.140E+02 0.140E+02 -.140E+02   0.127E-01 0.127E-01 -.127E-01
   0.178E+03 0.178E+03 -.178E+03   -.187E+03 -.187E+03 0.187E+03   0.896E+01 0.896E+01 -.896E+01   -.409E-01 -.409E-01 0.409E-01
   0.196E+03 0.196E+03 -.196E+03   -.211E+03 -.211E+03 0.211E+03   0.148E+02 0.148E+02 -.148E+02   -.475E-02 -.475E-02 0.475E-02
   0.222E+03 0.222E+03 -.222E+03   -.237E+03 -.237E+03 0.237E+03   0.148E+02 0.148E+02 -.148E+02   -.877E-03 -.877E-03 0.877E-03
 -----------------------------------------------------------------------------------------------
   0.616E-09 0.159E-08 0.123E-09   -.227E-12 -.654E-12 0.398E-12   0.213E-13 0.195E-13 0.000E+00   -.435E-11 -.399E-11 -.688E-11
 
 
 POSITION                                       TOTAL-FORCE (eV/Angst)
 -----------------------------------------------------------------------------------
      2.88967      2.88967      3.07319         0.008551      0.008551     -0.008551
      5.00646      1.03122      0.95641        -0.008551     -0.008551      0.008551
     11.68362     11.68362     -7.70910        -0.006929     -0.006929     -0.001118
      3.94559      3.94559      0.03039         0.006929      0.006929      0.001118
      7.84774      7.84774      0.10330         0.004629      0.004629      0.000490
     11.75671      7.78147     -3.80677        -0.004629     -0.004629     -0.000490
     11.68362     13.67197     -5.72075        -0.006929      0.001118      0.006929
      3.94559      5.93248      2.01728         0.006929     -0.001118     -0.006929
      7.84774      5.85957     -1.88487         0.004629     -0.000490     -0.004629
     11.75671      5.79439     -5.79384        -0.004629      0.000490      0.004629
     13.67197     11.68362     -5.72075         0.001118     -0.006929      0.006929
      5.93248      3.94559      2.01728        -0.001118      0.006929     -0.006929
      9.83481      3.87249     -1.88487        -0.000490      0.004629     -0.004629
      9.76963      7.78147     -5.79384         0.000490     -0.004629      0.004629
      1.96044      1.96044      0.02718         0.000000      0.000000      0.000000
      5.89469      5.89469      0.06818         0.000414      0.000414     -0.000414
      9.80222      5.82698     -3.83936         0.000000      0.000000      0.000000
     13.70976      9.73451     -3.77165        -0.000414     -0.000414      0.000414
      6.06684      2.09159      2.09615        -0.003993     -0.003993      0.010360
      5.99460      5.99460     -1.79189        -0.000014     -0.000014      0.001523
      9.90520      9.90520     -1.72738        -0.002454     -0.002454      0.001134
     13.81583      9.84058     -5.64970        -0.001177     -0.001177      0.002800
      6.06684     -0.10853     -0.10397        -0.003993     -0.010360      0.003993
      5.99460      7.75475     -0.03174        -0.000014     -0.001523      0.000014
      9.90520      7.69025     -3.94233        -0.002454     -0.001134      0.002454
     13.81583     11.61256     -3.87772        -0.001177     -0.002800      0.001177
      3.86672      2.09159     -0.10397        -0.010360     -0.003993      0.003993
      7.75475      5.99460     -0.03174        -0.001523     -0.000014      0.000014
     11.66549      5.92996     -3.94233        -0.001134     -0.002454      0.002454
     11.61256     13.81583     -3.87772        -0.002800     -0.001177      0.001177
      3.82515     -0.15009      2.13772        -0.002082     -0.002082      0.002082
      3.80490      3.80490     -1.81728        -0.002196     -0.002196      0.002196
      7.69854      7.69854     -1.73568         0.002930      0.002930     -0.002930
     11.60889      7.63365     -5.64602        -0.002577     -0.002577      0.002577
      1.82930      1.82930      1.93345         0.003993      0.003993     -0.010360
      5.78862      1.81338     -2.02902         0.001177      0.001177     -0.002800
      9.69925      5.72400     -1.97609         0.002454      0.002454     -0.001134
      9.63460      9.63460     -5.88683         0.000014      0.000014     -0.001523
      1.82930      0.05417      0.15832         0.003993      0.010360     -0.003993
      5.78862      4.01664      0.17425         0.001177      0.002800     -0.001177
      9.69925      3.96371     -3.73638         0.002454      0.001134     -0.002454
      9.63460     11.84969     -3.67173         0.000014      0.001523     -0.000014
      4.02942     -2.14595      0.15832         0.010360      0.003993     -0.003993
      4.01664      5.78862      0.17425         0.002800      0.001177     -0.001177
      7.93896      5.72400     -3.73638         0.001134      0.002454     -0.002454
     11.84969      9.63460     -3.67173         0.001523      0.000014     -0.000014
     11.82430     11.82430     -5.86144         0.002196      0.002196     -0.002196
      4.07098      4.07098      1.89188         0.002082      0.002082     -0.002082
      7.99556      4.02031     -2.03269         0.002577      0.002577     -0.002577
     11.90590      7.93066     -1.96779        -0.002930     -0.002930      0.002930
 -----------------------------------------------------------------------------------
    total drift:                                0.000000      0.000000      0.000000


--------------------------------------------------------------------------------------------------------



  FREE ENERGIE OF THE ION-ELECTRON SYSTEM (eV)
  ---------------------------------------------------
  free  energy   TOTEN  =      -314.6353779367 eV

  energy  without entropy=     -314.5995273857  energy(sigma->0) =     -314.61745266
 
 d Force = 0.1926577E-03[-0.227E-04, 0.408E-03]  d Energy = 0.4384118E-03-0.246E-03
 d Force = 0.4656336E+01[ 0.465E+01, 0.466E+01]  d Ewald  =-0.4492924E+00 0.511E+01


--------------------------------------------------------------------------------------------------------


    POTLOK:  cpu time    0.1484: real time    0.1488


--------------------------------------------------------------------------------------------------------


 Quasi-Newton relaxation of ions (Broydens 2nd method)
  g(Force)  = 0.117E-03   g(Stress)= 0.143E-05

 retain information from N=  1 steps
 eigenvalues of (default step * inverse Hessian matrix)
  average eigenvalue of G=   0.4348
 eigenvalue spectrum of G is  0.4348


--------------------------------------------------------------------------------------------------------


  
 reached required accuracy - stopping structural energy minimisation
     LOOP+:  cpu time   19.6867: real time   19.7862
    4ORBIT:  cpu time    0.0000: real time    0.0000

volume of typ            1:     3.2 %

volume of typ            2:    20.7 %

volume of typ            3:    10.6 %
 
total charge     
 
# of ion       s       p       d       tot
------------------------------------------
    1        2.110   0.340   0.129   2.579
    2        2.110   0.340   0.129   2.579
    3        0.296   0.423   7.844   8.563
    4        0.296   0.423   7.844   8.563
    5        0.299   0.427   7.835   8.561
    6        0.299   0.427   7.835   8.561
    7        0.296   0.423   7.844   8.563
    8        0.296   0.423   7.844   8.563
    9        0.299   0.427   7.835   8.561
   10        0.299   0.427   7.835   8.561
   11        0.296   0.423   7.844   8.563
   12        0.296   0.423   7.844   8.563
   13        0.299   0.427   7.835   8.561
   14        0.299   0.427   7.835   8.561
   15        0.265   0.352   7.864   8.481
   16        0.293   0.407   7.841   8.540
   17        0.297   0.415   7.837   8.548
   18        0.293   0.407   7.841   8.540
   19        1.260   2.797   0.007   4.064
   20        1.282   2.729   0.008   4.019
   21        1.282   2.729   0.008   4.019
   22        1.280   2.732   0.008   4.021
   23        1.260   2.797   0.007   4.064
   24        1.282   2.729   0.008   4.019
   25        1.282   2.729   0.008   4.019
   26        1.280   2.732   0.008   4.021
   27        1.260   2.797   0.007   4.064
   28        1.282   2.729   0.008   4.019
   29        1.282   2.729   0.008   4.019
   30        1.280   2.732   0.008   4.021
   31        1.269   2.775   0.007   4.051
   32        1.285   2.723   0.008   4.016
   33        1.284   2.726   0.009   4.018
   34        1.284   2.727   0.009   4.019
   35        1.260   2.797   0.007   4.064
   36        1.280   2.732   0.008   4.021
   37        1.282   2.729   0.008   4.019
   38        1.282   2.729   0.008   4.019
   39        1.260   2.797   0.007   4.064
   40        1.280   2.732   0.008   4.021
   41        1.282   2.729   0.008   4.019
   42        1.282   2.729   0.008   4.019
   43        1.260   2.797   0.007   4.064
   44        1.280   2.732   0.008   4.021
   45        1.282   2.729   0.008   4.019
   46        1.282   2.729   0.008   4.019
   47        1.285   2.723   0.008   4.016
   48        1.269   2.775   0.007   4.051
   49        1.284   2.727   0.009   4.019
   50        1.284   2.726   0.009   4.018
--------------------------------------------------
tot          49.80   95.19  125.97  270.96
 
magnetization (x)
 
# of ion       s       p       d       tot
------------------------------------------
    1       -0.002  -0.004  -0.002  -0.007
    2       -0.002  -0.004  -0.002  -0.007
    3        0.001   0.001  -0.084  -0.082
    4        0.001   0.001  -0.084  -0.082
    5        0.000   0.000  -0.005  -0.005
    6        0.000   0.000  -0.005  -0.005
    7        0.001   0.001  -0.084  -0.082
    8        0.001   0.001  -0.084  -0.082
    9        0.000   0.000  -0.005  -0.005
   10        0.000   0.000  -0.005  -0.005
   11        0.001   0.001  -0.084  -0.082
   12        0.001   0.001  -0.084  -0.082
   13        0.000   0.000  -0.005  -0.005
   14        0.000   0.000  -0.005  -0.005
   15        0.000   0.001  -0.625  -0.623
   16        0.000   0.000  -0.065  -0.065
   17       -0.000   0.000  -0.022  -0.021
   18        0.000   0.000  -0.065  -0.065
   19       -0.004  -0.044  -0.000  -0.048
   20       -0.000  -0.008  -0.000  -0.009
   21       -0.000  -0.000  -0.000  -0.000
   22       -0.000   0.003  -0.000   0.003
   23       -0.004  -0.044  -0.000  -0.048
   24       -0.000  -0.008  -0.000  -0.009
   25       -0.000  -0.000  -0.000  -0.000
   26       -0.000   0.003  -0.000   0.003
   27       -0.004  -0.044  -0.000  -0.048
   28       -0.000  -0.008  -0.000  -0.009
   29       -0.000  -0.000  -0.000  -0.000
   30       -0.000   0.003  -0.000   0.003
   31       -0.005  -0.033  -0.000  -0.039
   32       -0.004  -0.062  -0.000  -0.066
   33       -0.000  -0.003  -0.000  -0.004
   34       -0.000  -0.003  -0.000  -0.003
   35       -0.004  -0.044  -0.000  -0.048
   36       -0.000   0.003  -0.000   0.003
   37       -0.000  -0.000  -0.000  -0.000
   38       -0.000  -0.008  -0.000  -0.009
   39       -0.004  -0.044  -0.000  -0.048
   40       -0.000   0.003  -0.000   0.003
   41       -0.000  -0.000  -0.000  -0.000
   42       -0.000  -0.008  -0.000  -0.009
   43       -0.004  -0.044  -0.000  -0.048
   44       -0.000   0.003  -0.000   0.003
   45       -0.000  -0.000  -0.000  -0.000
   46       -0.000  -0.008  -0.000  -0.009
   47       -0.004  -0.062  -0.000  -0.066
   48       -0.005  -0.033  -0.000  -0.039
   49       -0.000  -0.003  -0.000  -0.003
   50       -0.000  -0.003  -0.000  -0.004
--------------------------------------------------
tot          -0.05   -0.50   -1.31   -1.86
 

 total amount of memory used by VASP MPI-rank0    94701. kBytes
=======================================================================

   base      :      30000. kBytes
   nonlr-proj:      22870. kBytes
   fftplans  :       5613. kBytes
   grid      :      32304. kBytes
   one-center:        777. kBytes
   wavefun   :       3137. kBytes
 
  
  
 General timing and accounting informations for this job:
 ========================================================
  
                  Total CPU time used (sec):      206.024
                            User time (sec):      203.604
                          System time (sec):        2.419
                         Elapsed time (sec):      210.838
  
                   Maximum memory used (kb):      135144.
                   Average memory used (kb):           0.
  
                          Minor page faults:        30267
                          Major page faults:           52
                 Voluntary context switches:          870
