 vasp.5.4.4.18Apr17-6-g9f103f2a35 (build May 12 2020 05:39:39) gamma-only       
  
 MD_VERSION_INFO: Compiled 2020-05-12T12:39:39-UTC in devlin.sd.materialsdesign.
 com:/home/medea2/data/build/wwolf/vasp-gpu5.4.4/13047/x86_64/src/src/build/gam 
 from svn 13047
 
 This VASP executable licensed from Materials Design, Inc.
 
 executed on                        Lin64 date 2023.02.09  16:04:03
 running on   16 total cores
 distrk:  each k-point on   16 cores,    1 groups
 distr:  one band on NCORES_PER_BAND=   1 cores,   16 groups


--------------------------------------------------------------------------------------------------------


 INCAR:
 POTCAR:    PAW_PBE Li_sv 10Sep2004               
 POTCAR:    PAW_PBE Ni 02Aug2007                  
 POTCAR:    PAW_PBE O 08Apr2002                   

 ----------------------------------------------------------------------------- 
|                                                                             |
|           W    W    AA    RRRRR   N    N  II  N    N   GGGG   !!!           |
|           W    W   A  A   R    R  NN   N  II  NN   N  G    G  !!!           |
|           W    W  A    A  R    R  N N  N  II  N N  N  G       !!!           |
|           W WW W  AAAAAA  RRRRR   N  N N  II  N  N N  G  GGG   !            |
|           WW  WW  A    A  R   R   N   NN  II  N   NN  G    G                |
|           W    W  A    A  R    R  N    N  II  N    N   GGGG   !!!           |
|                                                                             |
|      For optimal performance we recommend to set                            |
|        NCORE= 4 - approx SQRT( number of cores)                             |
|      NCORE specifies how many cores store one orbital (NPAR=cpu/NCORE).     |
|      This setting can  greatly improve the performance of VASP for DFT.     |
|      The default,   NCORE=1            might be grossly inefficient         |
|      on modern multi-core architectures or massively parallel machines.     |
|      Do your own testing !!!!                                               |
|      Unfortunately you need to use the default for GW and RPA calculations. |
|      (for HF NCORE is supported but not extensively tested yet)             |
|                                                                             |
 ----------------------------------------------------------------------------- 

 POTCAR:    PAW_PBE Li_sv 10Sep2004               
  local pseudopotential read in
  atomic valenz-charges read in
  non local Contribution for L=           0  read in
    real space projection operators read in
  non local Contribution for L=           0  read in
    real space projection operators read in
  non local Contribution for L=           1  read in
    real space projection operators read in
    PAW grid and wavefunctions read in
 
   number of l-projection  operators is LMAX  =           3
   number of lm-projection operators is LMMAX =           5
 
 POTCAR:    PAW_PBE Ni 02Aug2007                  
  local pseudopotential read in
  partial core-charges read in
  partial kinetic energy density read in
  atomic valenz-charges read in
  non local Contribution for L=           2  read in
    real space projection operators read in
  non local Contribution for L=           2  read in
    real space projection operators read in
  non local Contribution for L=           0  read in
    real space projection operators read in
  non local Contribution for L=           0  read in
    real space projection operators read in
  non local Contribution for L=           1  read in
    real space projection operators read in
  non local Contribution for L=           1  read in
    real space projection operators read in
    PAW grid and wavefunctions read in
 
   number of l-projection  operators is LMAX  =           6
   number of lm-projection operators is LMMAX =          18
 
 POTCAR:    PAW_PBE O 08Apr2002                   
  local pseudopotential read in
  partial core-charges read in
  partial kinetic energy density read in
  kinetic energy density of atom read in
  atomic valenz-charges read in
  non local Contribution for L=           0  read in
    real space projection operators read in
  non local Contribution for L=           0  read in
    real space projection operators read in
  non local Contribution for L=           1  read in
    real space projection operators read in
  non local Contribution for L=           1  read in
    real space projection operators read in
    PAW grid and wavefunctions read in
 
   number of l-projection  operators is LMAX  =           4
   number of lm-projection operators is LMMAX =           8
 
 Optimization of the real space projectors (new method)

 maximal supplied QI-value         = 22.11
 optimisation between [QCUT,QGAM] = [ 11.28, 22.77] = [ 35.61,145.23] Ry 
 Optimized for a Real-space Cutoff    1.10 Angstroem

   l    n(q)    QCUT    max X(q) W(low)/X(q) W(high)/X(q)  e(spline) 
   0      7    11.276    10.506    0.54E-04    0.58E-04    0.16E-07
   0      7    11.276     8.367    0.11E-03    0.14E-03    0.35E-07
   1      7    11.276     8.983    0.23E-03    0.43E-03    0.86E-07
 Optimization of the real space projectors (new method)

 maximal supplied QI-value         = 16.25
 optimisation between [QCUT,QGAM] = [ 11.38, 22.75] = [ 36.24,144.96] Ry 
 Optimized for a Real-space Cutoff    1.47 Angstroem

   l    n(q)    QCUT    max X(q) W(low)/X(q) W(high)/X(q)  e(spline) 
   2      9    11.376    60.317    0.17E-03    0.16E-04    0.16E-06
   2      9    11.376    55.921    0.17E-03    0.16E-04    0.17E-06
   0     10    11.376    51.690    0.45E-04    0.60E-04    0.21E-06
   0     10    11.376    30.015    0.37E-04    0.55E-04    0.19E-06
   1     10    11.376    18.849    0.83E-04    0.11E-03    0.92E-07
   1     10    11.376    14.624    0.69E-04    0.92E-04    0.82E-07
 Optimization of the real space projectors (new method)

 maximal supplied QI-value         = 24.76
 optimisation between [QCUT,QGAM] = [ 11.39, 22.77] = [ 36.31,145.25] Ry 
 Optimized for a Real-space Cutoff    1.10 Angstroem

   l    n(q)    QCUT    max X(q) W(low)/X(q) W(high)/X(q)  e(spline) 
   0      7    11.387    20.381    0.22E-03    0.48E-03    0.18E-06
   0      7    11.387    15.268    0.22E-03    0.52E-03    0.19E-06
   1      7    11.387     5.964    0.22E-03    0.73E-03    0.24E-06
   1      7    11.387     5.382    0.19E-03    0.60E-03    0.21E-06

 ----------------------------------------------------------------------------- 
|                                                                             |
|  ADVICE TO THIS USER RUNNING 'VASP/VAMP'   (HEAR YOUR MASTER'S VOICE ...):  |
|                                                                             |
|      You enforced a specific xc-type in the INCAR file,                     |
|      a different type was found on the POTCAR file                          |
|          I HOPE YOU KNOW, WHAT YOU ARE  DOING                               |
|                                                                             |
 ----------------------------------------------------------------------------- 

  PAW_PBE Li_sv 10Sep2004               :
 energy of atom  1       EATOM= -202.7858
 kinetic energy error for atom=    0.0143 (will be added to EATOM!!)
  PAW_PBE Ni 02Aug2007                  :
 energy of atom  2       EATOM=-1077.6739
 kinetic energy error for atom=    0.0030 (will be added to EATOM!!)
  PAW_PBE O 08Apr2002                   :
 energy of atom  3       EATOM= -432.3788
 kinetic energy error for atom=    0.0224 (will be added to EATOM!!)
 
 
 POSCAR: ce54_1                                  
  positions in direct lattice
  No initial velocities read in
 exchange correlation table for  LEXCH =       14
   RHO(1)=    0.500       N(1)  =     2000
   RHO(2)=  100.500       N(2)  =     4000
 


--------------------------------------------------------------------------------------------------------


 ion  position               nearest neighbor table
   1  0.938  0.469  0.093-  52 1.92  47 1.93  43 1.93  39 1.93
   2  0.442  0.721  0.337-  44 1.92  48 1.92  40 1.92  53 2.01
   3  0.940  0.970  0.590-  49 1.93  41 1.93  45 1.93  54 1.97
   4  0.060  0.030  0.410-  32 1.93  24 1.93  28 1.93  36 1.97
   5  0.558  0.279  0.663-  29 1.92  33 1.92  25 1.92  37 2.01
   6  0.062  0.531  0.907-  38 1.92  34 1.93  30 1.93  26 1.93
   7  0.000  0.000  0.000-  35 1.86  51 1.86  43 1.89  30 1.89  47 1.89  34 1.89  19 2.82  22 2.82
                            11 2.85  15 2.85  11 2.85  15 2.85
   8  0.499  0.250  0.249-  27 1.86  31 1.86  48 1.87  44 1.87  36 1.88  52 1.89  19 2.76  20 2.81
                            12 2.84  16 2.84  16 2.86  12 2.86
   9  0.000  0.500  0.500-  28 1.87  45 1.87  32 1.87  49 1.87  37 1.89  53 1.89  20 2.79  21 2.79
                            13 2.85  17 2.85  13 2.85  17 2.85
  10  0.501  0.750  0.751-  46 1.86  50 1.86  33 1.87  29 1.87  54 1.88  38 1.89  22 2.76  21 2.81
                            14 2.84  18 2.84  14 2.86  18 2.86
  11  0.500  0.000  0.000-  35 1.86  51 1.86  39 1.89  26 1.89  47 1.89  34 1.89  19 2.82  22 2.82
                             7 2.85  15 2.85  15 2.85   7 2.85
  12  0.001  0.250  0.249-  23 1.86  31 1.86  40 1.87  48 1.87  36 1.88  52 1.89  19 2.76  20 2.81
                             8 2.84  16 2.84  16 2.86   8 2.86
  13  0.500  0.500  0.500-  24 1.87  41 1.87  32 1.87  49 1.87  37 1.89  53 1.89  20 2.79  21 2.79
                             9 2.85  17 2.85  17 2.85   9 2.85
  14  0.999  0.750  0.751-  42 1.86  50 1.86  25 1.87  33 1.87  54 1.88  38 1.89  22 2.76  21 2.81
                            10 2.84  18 2.84  10 2.86  18 2.86
  15  0.500  0.500  0.000-  35 1.86  51 1.86  39 1.89  26 1.89  43 1.89  30 1.89  19 2.82  22 2.82
                             7 2.85  11 2.85  11 2.85   7 2.85
  16  0.001  0.751  0.249-  23 1.86  27 1.86  40 1.87  44 1.87  36 1.88  52 1.89  19 2.76  20 2.81
                             8 2.84  12 2.84  12 2.86   8 2.86
  17  0.500  0.000  0.500-  24 1.87  41 1.87  28 1.87  45 1.87  37 1.89  53 1.89  20 2.79  21 2.79
                             9 2.85  13 2.85  13 2.85   9 2.85
  18  0.999  0.249  0.751-  42 1.86  46 1.86  25 1.87  29 1.87  54 1.88  38 1.89  22 2.76  21 2.81
                            10 2.84  14 2.84  10 2.86  14 2.86
  19  0.249  0.124  0.127-  27 1.88  31 1.88  23 1.88  39 1.90  43 1.90  47 1.90   8 2.76  12 2.76
                            16 2.76  15 2.82  11 2.82   7 2.82
  20  0.750  0.375  0.375-  40 1.91  44 1.91  48 1.91  24 1.92  28 1.92  32 1.92   9 2.79  13 2.79
                            17 2.79  16 2.81   8 2.81  12 2.81
  21  0.250  0.625  0.625-  25 1.91  29 1.91  33 1.91  41 1.92  45 1.92  49 1.92   9 2.79  13 2.79
                            17 2.79  10 2.81  18 2.81  14 2.81
  22  0.751  0.876  0.873-  46 1.88  50 1.88  42 1.88  26 1.90  30 1.90  34 1.90  10 2.76  14 2.76
                            18 2.76  15 2.82  11 2.82   7 2.82
  23  0.911  0.956  0.193-  12 1.86  16 1.86  19 1.88
  24  0.407  0.203  0.444-  13 1.87  17 1.87  20 1.92   4 1.93
  25  0.909  0.455  0.693-  18 1.87  14 1.87  21 1.91   5 1.92
  26  0.411  0.706  0.941-  11 1.89  15 1.89  22 1.90   6 1.93
  27  0.352  0.956  0.193-   8 1.86  16 1.86  19 1.88
  28  0.853  0.203  0.444-   9 1.87  17 1.87  20 1.92   4 1.93
  29  0.352  0.455  0.693-  10 1.87  18 1.87  21 1.91   5 1.92
  30  0.853  0.706  0.941-   7 1.89  15 1.89  22 1.90   6 1.93
  31  0.352  0.396  0.193-   8 1.86  12 1.86  19 1.88
  32  0.853  0.649  0.444-   9 1.87  13 1.87  20 1.92   4 1.93
  33  0.352  0.897  0.693-  10 1.87  14 1.87  21 1.91   5 1.92
  34  0.853  0.148  0.941-   7 1.89  11 1.89  22 1.90   6 1.93
  35  0.635  0.817  0.048-   7 1.86  15 1.86  11 1.86
  36  0.133  0.066  0.301-   8 1.88  16 1.88  12 1.88   4 1.97
  37  0.632  0.316  0.552-   9 1.89  13 1.89  17 1.89   5 2.01
  38  0.133  0.566  0.801-  10 1.89  18 1.89  14 1.89   6 1.92
  39  0.589  0.294  0.059-  11 1.89  15 1.89  19 1.90   1 1.93
  40  0.091  0.545  0.307-  16 1.87  12 1.87  20 1.91   2 1.92
  41  0.593  0.797  0.556-  13 1.87  17 1.87  21 1.92   3 1.93
  42  0.089  0.044  0.807-  14 1.86  18 1.86  22 1.88
  43  0.147  0.294  0.059-   7 1.89  15 1.89  19 1.90   1 1.93
  44  0.648  0.545  0.307-   8 1.87  16 1.87  20 1.91   2 1.92
  45  0.147  0.797  0.556-   9 1.87  17 1.87  21 1.92   3 1.93
  46  0.648  0.044  0.807-  10 1.86  18 1.86  22 1.88
  47  0.147  0.852  0.059-   7 1.89  11 1.89  19 1.90   1 1.93
  48  0.648  0.103  0.307-   8 1.87  12 1.87  20 1.91   2 1.92
  49  0.147  0.351  0.556-   9 1.87  13 1.87  21 1.92   3 1.93
  50  0.648  0.604  0.807-  10 1.86  14 1.86  22 1.88
  51  0.365  0.183  0.952-   7 1.86  15 1.86  11 1.86
  52  0.867  0.434  0.199-   8 1.89  16 1.89  12 1.89   1 1.92
  53  0.368  0.684  0.448-   9 1.89  13 1.89  17 1.89   2 2.01
  54  0.867  0.934  0.699-  10 1.88  18 1.88  14 1.88   3 1.97
 
  LATTYP: Found a trigonal (rhomboedric) cell.
 ALAT       =    18.3324323350
 COS(alpha) =     0.9515929729
  
  Lattice vectors:
  
 A1 = ( -11.7565263779, -11.7565263779,   7.7230984954)
 A2 = (  -7.7230984954, -11.7565263779,  11.7565263779)
 A3 = ( -11.7565263779,  -7.7230984954,  11.7565263779)


Analysis of symmetry for initial positions (statically):
=====================================================================
 Subroutine PRICEL returns:
 Original cell was already a primitive cell.
 

 Routine SETGRP: Setting up the symmetry group for a 
 trigonal (rhombohedral) supercell.


 Subroutine GETGRP returns: Found 12 space group operations
 (whereof  4 operations were pure point group operations)
 out of a pool of 12 trial point group operations.


The static configuration has the point symmetry C_2h.
 The point group associated with its full space group is D_3d.


Analysis of symmetry for dynamics (positions and initial velocities):
=====================================================================
 Subroutine PRICEL returns:
 Original cell was already a primitive cell.
 

 Routine SETGRP: Setting up the symmetry group for a 
 trigonal (rhombohedral) supercell.


 Subroutine GETGRP returns: Found 12 space group operations
 (whereof  4 operations were pure point group operations)
 out of a pool of 12 trial point group operations.


The dynamic configuration has the point symmetry C_2h.
 The point group associated with its full space group is D_3d.


Analysis of structural, dynamic, and magnetic symmetry:
=====================================================================
 Subroutine PRICEL returns:
 Original cell was already a primitive cell.
 

 Routine SETGRP: Setting up the symmetry group for a 
 trigonal (rhombohedral) supercell.


 Subroutine GETGRP returns: Found 12 space group operations
 (whereof  4 operations were pure point group operations)
 out of a pool of 12 trial point group operations.


The magnetic configuration has the point symmetry C_2h.
 The point group associated with its full space group is D_3d.


 Subroutine INISYM returns: Found 12 space group operations
 (whereof  4 operations are pure point group operations),
 and found     1 'primitive' translations

 
 
 KPOINTS: Automatic mesh                          

Automatic generation of k-mesh.
Space group operators:
 irot       det(A)        alpha          n_x          n_y          n_z        tau_x        tau_y        tau_z
    1     1.000000     0.000000     1.000000     0.000000     0.000000     0.000000     0.000000     0.000000
    2    -1.000000     0.000000     1.000000     0.000000     0.000000     0.000000     0.000000     0.000000
    3     1.000000   180.000000     0.707107    -0.707107     0.000000     0.000000     0.000000     0.000000
    4    -1.000000   180.000000     0.707107    -0.707107     0.000000     0.000000     0.000000     0.000000
    5     1.000000   120.000000     0.577350     0.577350    -0.577350     0.500000     0.500000    -1.000000
    6    -1.000000   120.000000     0.577350     0.577350    -0.577350     0.500000     0.500000    -1.000000
    7     1.000000   180.000000     0.707107     0.000000     0.707107     0.500000     0.500000    -1.000000
    8    -1.000000   180.000000     0.707107     0.000000     0.707107     0.500000     0.500000    -1.000000
    9     1.000000   120.000000    -0.577350    -0.577350     0.577350     0.500000     0.000000    -1.000000
   10    -1.000000   120.000000    -0.577350    -0.577350     0.577350     0.500000     0.000000    -1.000000
   11     1.000000   180.000000     0.000000     0.707107     0.707107     0.500000     0.000000    -1.000000
   12    -1.000000   180.000000     0.000000     0.707107     0.707107     0.500000     0.000000    -1.000000
 
 Subroutine IBZKPT returns following result:
 ===========================================
 
 Found      1 irreducible k-points:
 
 Following reciprocal coordinates:
            Coordinates               Weight
  0.000000  0.000000  0.000000      1.000000
 
 Following cartesian coordinates:
            Coordinates               Weight
  0.000000  0.000000  0.000000      1.000000
 


--------------------------------------------------------------------------------------------------------




 Dimension of arrays:
   k-points           NKPTS =      1   k-points in BZ     NKDIM =      1   number of bands    NBANDS=    256
   number of dos      NEDOS =    301   number of ions     NIONS =     54
   non local maximal  LDIM  =      6   non local SUM 2l+1 LMDIM =     18
   total plane-waves  NPLWV = 246960
   max r-space proj   IRMAX =   6574   max aug-charges    IRDMAX=  15951
   dimension x,y,z NGX =    42 NGY =   42 NGZ =  140
   dimension x,y,z NGXF=    84 NGYF=   84 NGZF=  280
   support grid    NGXF=    84 NGYF=   84 NGZF=  280
   ions per type =               6  16  32
   NGX,Y,Z   is equivalent  to a cutoff of  12.24, 12.24, 12.70 a.u.
   NGXF,Y,Z  is equivalent  to a cutoff of  24.48, 24.48, 25.39 a.u.

 SYSTEM =  unknown system                          
 POSCAR =  ce54_1                                  

 Startparameter for this run:
   NWRITE =      1    write-flag & timer
   PREC   = accura    normal or accurate (medium, high low for compatibility)
   ISTART =      0    job   : 0-new  1-cont  2-samecut
   ICHARG =      2    charge: 1-file 2-atom 10-const
   ISPIN  =      2    spin polarized calculation?
   LNONCOLLINEAR =      F non collinear calculations
   LSORBIT =      F    spin-orbit coupling
   INIWAV =      1    electr: 0-lowe 1-rand  2-diag
   LASPH  =      F    aspherical Exc in radial PAW
   METAGGA=      F    non-selfconsistent MetaGGA calc.

 Electronic Relaxation 1
   ENCUT  =  500.0 eV  36.75 Ry    6.06 a.u.  10.40 10.40 33.42*2*pi/ulx,y,z
   ENINI  =  500.0     initial cutoff
   ENAUG  =  628.9 eV  augmentation charge cutoff
   NELM   =     80;   NELMIN=  2; NELMDL= -5     # of ELM steps 
   EDIFF  = 0.1E-04   stopping-criterion for ELM
   LREAL  =      T    real-space projection
   NLSPLINE    = F    spline interpolate recip. space projectors
   LCOMPAT=      F    compatible to vasp.4.4
   GGA_COMPAT  = T    GGA compatible to vasp.4.4-vasp.4.6
   LMAXPAW     = -100 max onsite density
   LMAXMIX     =    2 max onsite mixed and CHGCAR
   VOSKOWN=      1    Vosko Wilk Nusair interpolation
   ROPT   =   -0.00025  -0.00025  -0.00025
 Ionic relaxation
   EDIFFG = -.2E-01   stopping-criterion for IOM
   NSW    =     20    number of steps for IOM
   NBLOCK =      1;   KBLOCK =     20    inner block; outer block 
   IBRION =      1    ionic relax: 0-MD 1-quasi-New 2-CG
   NFREE  =      0    steps in history (QN), initial steepest desc. (CG)
   ISIF   =      3    stress and relaxation
   IWAVPR =     11    prediction:  0-non 1-charg 2-wave 3-comb
   ISYM   =      2    0-nonsym 1-usesym 2-fastsym
   LCORR  =      T    Harris-Foulkes like correction to forces

   POTIM  = 0.5000    time-step for ionic-motion
   TEIN   =    0.0    initial temperature
   TEBEG  =    0.0;   TEEND  =   0.0 temperature during run
   SMASS  =  -3.00    Nose mass-parameter (am)
   estimated Nose-frequenzy (Omega)   =  0.10E-29 period in steps =****** mass=  -0.744E-27a.u.
   SCALEE = 1.0000    scale energy and forces
   NPACO  =    256;   APACO  = 16.0  distance and # of slots for P.C.
   PSTRESS=    0.0 pullay stress

  Mass of Ions in am
   POMASS =   7.01 58.69 16.00
  Ionic Valenz
   ZVAL   =   3.00 10.00  6.00
  Atomic Wigner-Seitz radii
   RWIGS  =   1.23  1.15  0.73
  virtual crystal weights 
   VCA    =   1.00  1.00  1.00
   NELECT =     370.0000    total number of electrons
   NUPDOWN=      -1.0000    fix difference up-down

 DOS related values:
   EMIN   =  10.00;   EMAX   =-10.00  energy-range for DOS
   EFERMI =   0.00
   ISMEAR =     0;   SIGMA  =   0.05  broadening in eV -4-tet -1-fermi 0-gaus

 Electronic relaxation 2 (details)
   IALGO  =     38    algorithm
   LDIAG  =      T    sub-space diagonalisation (order eigenvalues)
   LSUBROT=      F    optimize rotation matrix (better conditioning)
   TURBO    =      0    0=normal 1=particle mesh
   IRESTART =      0    0=no restart 2=restart with 2 vectors
   NREBOOT  =      0    no. of reboots
   NMIN     =      0    reboot dimension
   EREF     =   0.00    reference energy to select bands
   IMIX   =      4    mixing-type and parameters
     AMIX     =   0.40;   BMIX     =  1.00
     AMIX_MAG =   1.60;   BMIX_MAG =  1.00
     AMIN     =   0.10
     WC   =   100.;   INIMIX=   1;  MIXPRE=   1;  MAXMIX= -45

 Intra band minimization:
   WEIMIN = 0.0010     energy-eigenvalue tresh-hold
   EBREAK =  0.98E-08  absolut break condition
   DEPER  =   0.30     relativ break condition  

   TIME   =   0.40     timestep for ELM

  volume/ion in A,a.u.               =       9.41        63.51
  Fermi-wavevector in a.u.,A,eV,Ry     =   1.472787  2.783164 29.512431  2.169102
  Thomas-Fermi vector in A             =   2.587760
 
 Write flags
   LWAVE        =      F    write WAVECAR
   LDOWNSAMPLE  =      F    k-point downsampling of WAVECAR
   LCHARG       =      T    write CHGCAR
   LVTOT        =      F    write LOCPOT, total local potential
   LVHAR        =      F    write LOCPOT, Hartree potential only
   LELF         =      F    write electronic localiz. function (ELF)
   LORBIT       =      0    0 simple, 1 ext, 2 COOP (PROOUT), +10 PAW based schemes


 Dipole corrections
   LMONO  =      F    monopole corrections only (constant potential shift)
   LDIPOL =      F    correct potential (dipole corrections)
   IDIPOL =      0    1-x, 2-y, 3-z, 4-all directions 
   EPSILON=  1.0000000 bulk dielectric constant

 Exchange correlation treatment:
   GGA     =    PS    GGA type
   LEXCH   =    14    internal setting for exchange type
   VOSKOWN=      1    Vosko Wilk Nusair interpolation
   LHFCALC =     F    Hartree Fock is set to
   LHFONE  =     F    Hartree Fock one center treatment
   AEXX    =    0.0000 exact exchange contribution

 Linear response parameters
   LEPSILON=     F    determine dielectric tensor
   LRPA    =     F    only Hartree local field effects (RPA)
   LNABLA  =     F    use nabla operator in PAW spheres
   LVEL    =     F    velocity operator in full k-point grid
   LINTERFAST=   F  fast interpolation
   KINTER  =     0    interpolate to denser k-point grid
   CSHIFT  =0.1000    complex shift for real part using Kramers Kronig
   OMEGAMAX=  -1.0    maximum frequency
   DEG_THRESHOLD= 0.2000000E-02 threshold for treating states as degnerate
   RTIME   =   -0.100 relaxation time in fs
  (WPLASMAI=    0.000 imaginary part of plasma frequency in eV, 0.658/RTIME)
   DFIELD  = 0.0000000 0.0000000 0.0000000 field for delta impulse in time
 
 Orbital magnetization related:
   ORBITALMAG=     F  switch on orbital magnetization
   LCHIMAG   =     F  perturbation theory with respect to B field
   DQ        =  0.001000  dq finite difference perturbation B field
   LLRAUG    =     F  two centre corrections for induced B field



--------------------------------------------------------------------------------------------------------


 quasi-Newton-method for relaxation of ions
 charge density and potential will be updated during run
 spin polarized calculation
 Variant of blocked Davidson
 Davidson routine will perform the subspace rotation
 perform sub-space diagonalisation
    after iterative eigenvector-optimisation
 modified Broyden-mixing scheme, WC =      100.0
 initial mixing is a Kerker type mixing with AMIX =  0.4000 and BMIX =      1.0000
 Hartree-type preconditioning will be used
 using additional bands           71
 real space projection scheme for non local part
 use partial core corrections
 calculate Harris-corrections to forces 
   (improved forces if not selfconsistent)
 use gradient corrections 
 use of overlap-Matrix (Vanderbilt PP)
 Gauss-broadening in eV      SIGMA  =   0.05


--------------------------------------------------------------------------------------------------------


  energy-cutoff  :      500.00
  volume of cell :      508.17
      direct lattice vectors                 reciprocal lattice vectors
     0.000000000  4.033427882  4.033427882     0.061299899  0.061299899  0.186628173
     4.033427882 -4.033427882  0.000000000     0.154613986 -0.093314087  0.093314087
    11.756526378 11.756526378 -7.723098495     0.032014187  0.032014187 -0.032014187

  length of vectors
     5.704128414  5.704128414 18.332432335     0.205780053  0.203274499  0.055450199


 
 k-points in units of 2pi/SCALE and weight: Automatic mesh                          
   0.00000000  0.00000000  0.00000000       1.000
 
 k-points in reciprocal lattice and weights: Automatic mesh                          
   0.00000000  0.00000000  0.00000000       1.000
 
 position of ions in fractional coordinates (direct lattice) 
   0.93825038  0.46912519  0.09262443
   0.44216664  0.72108332  0.33675004
   0.93975898  0.96987949  0.59036152
   0.06024102  0.03012051  0.40963848
   0.55783336  0.27891668  0.66324996
   0.06174962  0.53087481  0.90737557
   0.00000000  0.00000000  0.00000000
   0.49941854  0.24970927  0.24934751
   0.00000000  0.50000000  0.50000000
   0.50058146  0.75029073  0.75065249
   0.50000000  0.00000000  0.00000000
   0.00094322  0.24970927  0.24934751
   0.50000000  0.50000000  0.50000000
   0.99905678  0.75029073  0.75065249
   0.50000000  0.50000000  0.00000000
   0.00094322  0.75123395  0.24934751
   0.50000000  0.00000000  0.50000000
   0.99905678  0.24876605  0.75065249
   0.24892582  0.12446291  0.12661128
   0.74991874  0.37495937  0.37512189
   0.25008126  0.62504063  0.62487811
   0.75107418  0.87553709  0.87338872
   0.91141880  0.95570940  0.19265150
   0.40690045  0.20345023  0.44372340
   0.90943148  0.45471574  0.69346001
   0.41116614  0.70558307  0.94094406
   0.35163911  0.95570940  0.19265150
   0.85282638  0.20345023  0.44372340
   0.35182426  0.45471574  0.69346001
   0.85347288  0.70558307  0.94094406
   0.35163911  0.39592971  0.19265150
   0.85282638  0.64937616  0.44372340
   0.35182426  0.89710852  0.69346001
   0.85347288  0.14788981  0.94094406
   0.63466857  0.81733428  0.04799716
   0.13289461  0.06644730  0.30065810
   0.63219604  0.31609802  0.55170595
   0.13262496  0.56631248  0.80106257
   0.58883386  0.29441693  0.05905594
   0.09056852  0.54528426  0.30653999
   0.59309955  0.79654977  0.55627660
   0.08858120  0.04429060  0.80734850
   0.14652712  0.29441693  0.05905594
   0.64817574  0.54528426  0.30653999
   0.14717362  0.79654977  0.55627660
   0.64836089  0.04429060  0.80734850
   0.14652712  0.85211019  0.05905594
   0.64817574  0.10289148  0.30653999
   0.14717362  0.35062384  0.55627660
   0.64836089  0.60407029  0.80734850
   0.36533143  0.18266572  0.95200284
   0.86737504  0.43368752  0.19893743
   0.36780396  0.68390198  0.44829405
   0.86710539  0.93355270  0.69934190
 
 position of ions in cartesian coordinates  (Angst):
   2.98112418  2.98112418  3.06901765
   6.86744830  2.83402041 -0.81730647
  10.85253976  6.81911188 -0.76897009
   4.93741450  4.93741450 -2.92070052
   8.92250596  8.92250596 -2.87236414
  12.80883008  8.77540220 -6.75868826
   0.00000000  0.00000000  0.00000000
   3.93864491  3.93864491  0.08863328
   7.89497713  3.86154925 -3.86154925
  11.85130935  7.81788147 -3.77830390
   0.00000000  2.01671394  2.01671394
   3.93864491  1.92808066 -1.92193097
   7.89497713  5.87826319 -1.84483531
  11.85130935  9.82844572 -1.76773964
   2.01671394  0.00000000  2.01671394
   5.96150854 -0.09478297 -1.92193097
   5.87826319  7.89497713 -1.84483531
   9.82844572 11.85130935 -1.76773964
   1.99052102  1.99052102  0.02619296
   5.92250197  5.92250197  0.12763985
   9.86745229  5.83402441 -3.81731046
  13.79943324  9.76600535 -3.71586357
   6.11969738  2.08626950  2.18827549
   6.03724769  6.03724765 -1.78571590
   9.98674404  9.98674404 -1.68753367
  13.90815209  9.87472421 -5.60859468
   6.11969738 -0.17156151 -0.06955552
   6.03724769  7.83585773  0.01289418
   9.98674404  7.73767554 -3.93660218
  13.90815209 11.65873654 -3.82458234
   3.86186637  2.08626950 -0.06955552
   7.83585777  6.03724765  0.01289418
  11.77110342  5.95331616 -3.93660218
  11.65873654 13.90815209 -3.82458234
   3.86093875 -0.17248909  2.18920311
   3.80270528  3.80270532 -1.78599129
   7.76110412  7.76110412 -1.71096226
  11.70189378  7.66846590 -5.65175192
   1.88180217  1.88180217  1.91892407
   5.80321022  1.76978233 -2.00213694
   9.75270657  5.71927873 -1.90395471
   9.67025688  9.67025688 -5.87794610
   1.88180217  0.09778983  0.13491173
   5.80321022  4.01885084  0.24693157
   9.75270657  3.92066865 -3.70256479
   9.67025688 11.92808789 -3.62011509
   4.13121772 -2.15162571  0.13491173
   4.01885084  5.80321022  0.24693157
   7.95409649  5.71927873 -3.70256479
  11.92808789  9.67025688 -3.62011509
  11.92901551 11.92901547 -5.87887373
   4.08806048  4.08806048  1.96208130
   8.02885014  3.99542226 -1.97870836
  11.98724898  7.95382106 -1.90367932
 


--------------------------------------------------------------------------------------------------------


 use serial FFT for orbitals x direction half grid
 k-point  1 :   0.0000 0.0000 0.0000  plane waves:    6483

 maximum and minimum number of plane-waves per node :      6483     6483

 maximum number of plane-waves:      6483
 maximum index in each direction: 
   IXMAX=   10   IYMAX=    9   IZMAX=   33
   IXMIN=    0   IYMIN=  -10   IZMIN=  -32

 The following grids will avoid any aliasing or wrap around errors in the Hartre
 e energy
  - symmetry arguments have not been applied
  - exchange correlation energies might require even more grid points
  - we recommend to set PREC=Normal or Accurate and rely on VASP defaults
 NGX is ok and might be reduce to    42
 NGY is ok and might be reduce to    40
 NGZ is ok and might be reduce to   140

 serial   3D FFT for wavefunctions
 parallel 3D FFT for charge:
    minimum data exchange during FFTs selected (reduces bandwidth)


 total amount of memory used by VASP MPI-rank0    94878. kBytes
=======================================================================

   base      :      30000. kBytes
   nonlr-proj:      22649. kBytes
   fftplans  :       5613. kBytes
   grid      :      32304. kBytes
   one-center:        839. kBytes
   wavefun   :       3473. kBytes
 
     INWAV:  cpu time    0.0000: real time    0.0000
 Broyden mixing: mesh for mixing (old mesh)
   NGX = 21   NGY = 21   NGZ = 67
  (NGX  = 84   NGY  = 84   NGZ  =280)
  gives a total of  29547 points

 initial charge density was supplied:
 charge density of overlapping atoms calculated
 number of electron     370.0000000 magnetization      40.0000000
 keeping initial charge density in first step


--------------------------------------------------------------------------------------------------------


 Maximum index for non-local projection operator         6359
 Maximum index for augmentation-charges         1390 (set IRDMAX)


--------------------------------------------------------------------------------------------------------


 First call to EWALD:  gamma=   0.222
 Maximum number of real-space cells 4x 4x 1
 Maximum number of reciprocal cells 2x 2x 6

    FEWALD:  cpu time    0.0032: real time    0.0032


--------------------------------------- Iteration      1(   1)  ---------------------------------------


    POTLOK:  cpu time    0.1628: real time    0.1648
    SETDIJ:  cpu time    0.0180: real time    0.0181
     EDDAV:  cpu time    1.5848: real time    1.6154
    --------------------------------------------
      LOOP:  cpu time    1.7661: real time    1.7988

 eigenvalue-minimisations  :  1024
 total energy-change (2. order) : 0.6452267E+04  (-0.1664604E+05)
 number of electron     370.0000000 magnetization      40.0000000
 augmentation part      370.0000000 magnetization      40.0000000

 Free energy of the ion-electron system (eV)
  ---------------------------------------------------
  alpha Z        PSCENC =      1167.24442443
  Ewald energy   TEWEN  =    -22091.19378522
  -Hartree energ DENC   =    -11004.14162283
  -exchange      EXHF   =         0.00000000
  -V(xc)+E(xc)   XCENC  =      1503.16817094
  PAW double counting   =     26942.36450242   -28149.39347092
  entropy T*S    EENTRO =        -0.00550107
  eigenvalues    EBANDS =      5864.44740566
  atomic energy  EATOM  =     32219.77639703
  Solvation  Ediel_sol  =         0.00000000
  ---------------------------------------------------
  free energy    TOTEN  =      6452.26652043 eV

  energy without entropy =     6452.27202150  energy(sigma->0) =     6452.26927097


--------------------------------------------------------------------------------------------------------




--------------------------------------- Iteration      1(   2)  ---------------------------------------


     EDDAV:  cpu time    1.6302: real time    1.6341
    --------------------------------------------
      LOOP:  cpu time    1.6300: real time    1.6339

 eigenvalue-minimisations  :  1072
 total energy-change (2. order) :-0.5256338E+04  (-0.4657184E+04)
 number of electron     370.0000000 magnetization      40.0000000
 augmentation part      370.0000000 magnetization      40.0000000

 Free energy of the ion-electron system (eV)
  ---------------------------------------------------
  alpha Z        PSCENC =      1167.24442443
  Ewald energy   TEWEN  =    -22091.19378522
  -Hartree energ DENC   =    -11004.14162283
  -exchange      EXHF   =         0.00000000
  -V(xc)+E(xc)   XCENC  =      1503.16817094
  PAW double counting   =     26942.36450242   -28149.39347092
  entropy T*S    EENTRO =        -0.00994179
  eigenvalues    EBANDS =       608.11341380
  atomic energy  EATOM  =     32219.77639703
  Solvation  Ediel_sol  =         0.00000000
  ---------------------------------------------------
  free energy    TOTEN  =      1195.92808786 eV

  energy without entropy =     1195.93802965  energy(sigma->0) =     1195.93305875


--------------------------------------------------------------------------------------------------------




--------------------------------------- Iteration      1(   3)  ---------------------------------------


     EDDAV:  cpu time    1.7034: real time    1.7075
    --------------------------------------------
      LOOP:  cpu time    1.7034: real time    1.7075

 eigenvalue-minimisations  :  1120
 total energy-change (2. order) :-0.1419536E+04  (-0.1176008E+04)
 number of electron     370.0000000 magnetization      40.0000000
 augmentation part      370.0000000 magnetization      40.0000000

 Free energy of the ion-electron system (eV)
  ---------------------------------------------------
  alpha Z        PSCENC =      1167.24442443
  Ewald energy   TEWEN  =    -22091.19378522
  -Hartree energ DENC   =    -11004.14162283
  -exchange      EXHF   =         0.00000000
  -V(xc)+E(xc)   XCENC  =      1503.16817094
  PAW double counting   =     26942.36450242   -28149.39347092
  entropy T*S    EENTRO =        -0.06409769
  eigenvalues    EBANDS =      -811.36813386
  atomic energy  EATOM  =     32219.77639703
  Solvation  Ediel_sol  =         0.00000000
  ---------------------------------------------------
  free energy    TOTEN  =      -223.60761570 eV

  energy without entropy =     -223.54351801  energy(sigma->0) =     -223.57556686


--------------------------------------------------------------------------------------------------------




--------------------------------------- Iteration      1(   4)  ---------------------------------------


     EDDAV:  cpu time    1.8093: real time    1.8137
    --------------------------------------------
      LOOP:  cpu time    1.8093: real time    1.8137

 eigenvalue-minimisations  :  1232
 total energy-change (2. order) :-0.2136667E+03  (-0.2062863E+03)
 number of electron     370.0000000 magnetization      40.0000000
 augmentation part      370.0000000 magnetization      40.0000000

 Free energy of the ion-electron system (eV)
  ---------------------------------------------------
  alpha Z        PSCENC =      1167.24442443
  Ewald energy   TEWEN  =    -22091.19378522
  -Hartree energ DENC   =    -11004.14162283
  -exchange      EXHF   =         0.00000000
  -V(xc)+E(xc)   XCENC  =      1503.16817094
  PAW double counting   =     26942.36450242   -28149.39347092
  entropy T*S    EENTRO =        -0.16172699
  eigenvalues    EBANDS =     -1024.93724818
  atomic energy  EATOM  =     32219.77639703
  Solvation  Ediel_sol  =         0.00000000
  ---------------------------------------------------
  free energy    TOTEN  =      -437.27435933 eV

  energy without entropy =     -437.11263233  energy(sigma->0) =     -437.19349583


--------------------------------------------------------------------------------------------------------




--------------------------------------- Iteration      1(   5)  ---------------------------------------


     EDDAV:  cpu time    2.1493: real time    2.1544
    CHARGE:  cpu time    0.1394: real time    0.1398
    MIXING:  cpu time    0.0028: real time    0.0029
    --------------------------------------------
      LOOP:  cpu time    2.2913: real time    2.2968

 eigenvalue-minimisations  :  1520
 total energy-change (2. order) :-0.9528129E+01  (-0.9432693E+01)
 number of electron     369.9999916 magnetization      39.5293842
 augmentation part      109.2280958 magnetization      31.1114413

 Broyden mixing:
  rms(total) = 0.11725E+02    rms(broyden)= 0.11724E+02
  rms(prec ) = 0.12562E+02
  weight for this iteration     100.00

 Free energy of the ion-electron system (eV)
  ---------------------------------------------------
  alpha Z        PSCENC =      1167.24442443
  Ewald energy   TEWEN  =    -22091.19378522
  -Hartree energ DENC   =    -11004.14162283
  -exchange      EXHF   =         0.00000000
  -V(xc)+E(xc)   XCENC  =      1503.16817094
  PAW double counting   =     26942.36450242   -28149.39347092
  entropy T*S    EENTRO =        -0.15655587
  eigenvalues    EBANDS =     -1034.47054807
  atomic energy  EATOM  =     32219.77639703
  Solvation  Ediel_sol  =         0.00000000
  ---------------------------------------------------
  free energy    TOTEN  =      -446.80248810 eV

  energy without entropy =     -446.64593223  energy(sigma->0) =     -446.72421017


--------------------------------------------------------------------------------------------------------




--------------------------------------- Iteration      1(   6)  ---------------------------------------


    POTLOK:  cpu time    0.1309: real time    0.1312
    SETDIJ:  cpu time    0.0182: real time    0.0183
     EDDAV:  cpu time    2.1694: real time    2.1746
    CHARGE:  cpu time    0.1375: real time    0.1378
    MIXING:  cpu time    0.0029: real time    0.0029
    --------------------------------------------
      LOOP:  cpu time    2.4589: real time    2.4648

 eigenvalue-minimisations  :  1536
 total energy-change (2. order) :-0.1179686E+03  (-0.1304284E+03)
 number of electron     369.9999903 magnetization      38.6402688
 augmentation part      140.0048158 magnetization      35.4174735

 Broyden mixing:
  rms(total) = 0.23182E+02    rms(broyden)= 0.23181E+02
  rms(prec ) = 0.26657E+02
  weight for this iteration     100.00

 eigenvalues of (default mixing * dielectric matrix)
  average eigenvalue GAMMA=   0.1550
  0.1550

 Free energy of the ion-electron system (eV)
  ---------------------------------------------------
  alpha Z        PSCENC =      1167.24442443
  Ewald energy   TEWEN  =    -22091.19378522
  -Hartree energ DENC   =    -10500.17071325
  -exchange      EXHF   =         0.00000000
  -V(xc)+E(xc)   XCENC  =      1508.77865730
  PAW double counting   =     29815.92311860   -30846.54717010
  entropy T*S    EENTRO =        -0.07676384
  eigenvalues    EBANDS =     -1838.50526690
  atomic energy  EATOM  =     32219.77639703
  Solvation  Ediel_sol  =         0.00000000
  ---------------------------------------------------
  free energy    TOTEN  =      -564.77110195 eV

  energy without entropy =     -564.69433811  energy(sigma->0) =     -564.73272003


--------------------------------------------------------------------------------------------------------




--------------------------------------- Iteration      1(   7)  ---------------------------------------


    POTLOK:  cpu time    0.1296: real time    0.1299
    SETDIJ:  cpu time    0.0183: real time    0.0184
     EDDAV:  cpu time    2.0181: real time    2.0229
    CHARGE:  cpu time    0.1343: real time    0.1347
    MIXING:  cpu time    0.0029: real time    0.0029
    --------------------------------------------
      LOOP:  cpu time    2.3032: real time    2.3087

 eigenvalue-minimisations  :  1408
 total energy-change (2. order) : 0.1065621E+03  (-0.3187436E+02)
 number of electron     369.9999921 magnetization      37.2906071
 augmentation part      140.8544985 magnetization      33.5013664

 Broyden mixing:
  rms(total) = 0.15490E+02    rms(broyden)= 0.15489E+02
  rms(prec ) = 0.17922E+02
  weight for this iteration     100.00

 eigenvalues of (default mixing * dielectric matrix)
  average eigenvalue GAMMA=   0.2504
  0.2504  0.2504

 Free energy of the ion-electron system (eV)
  ---------------------------------------------------
  alpha Z        PSCENC =      1167.24442443
  Ewald energy   TEWEN  =    -22091.19378522
  -Hartree energ DENC   =    -10586.63378563
  -exchange      EXHF   =         0.00000000
  -V(xc)+E(xc)   XCENC  =      1505.41453370
  PAW double counting   =     30531.69196633   -31622.18406612
  entropy T*S    EENTRO =        -0.08626557
  eigenvalues    EBANDS =     -1582.23841663
  atomic energy  EATOM  =     32219.77639703
  Solvation  Ediel_sol  =         0.00000000
  ---------------------------------------------------
  free energy    TOTEN  =      -458.20899768 eV

  energy without entropy =     -458.12273211  energy(sigma->0) =     -458.16586489


--------------------------------------------------------------------------------------------------------




--------------------------------------- Iteration      1(   8)  ---------------------------------------


    POTLOK:  cpu time    0.1294: real time    0.1297
    SETDIJ:  cpu time    0.0184: real time    0.0185
     EDDAV:  cpu time    2.0716: real time    2.0766
    CHARGE:  cpu time    0.1340: real time    0.1343
    MIXING:  cpu time    0.0030: real time    0.0030
    --------------------------------------------
      LOOP:  cpu time    2.3565: real time    2.3620

 eigenvalue-minimisations  :  1456
 total energy-change (2. order) :-0.4296893E+02  (-0.5188155E+02)
 number of electron     369.9999895 magnetization      35.5116310
 augmentation part      124.1142123 magnetization      30.8478622

 Broyden mixing:
  rms(total) = 0.17025E+02    rms(broyden)= 0.17024E+02
  rms(prec ) = 0.22999E+02
  weight for this iteration     100.00

 eigenvalues of (default mixing * dielectric matrix)
  average eigenvalue GAMMA=   0.3491
  0.4705  0.4705  0.1064

 Free energy of the ion-electron system (eV)
  ---------------------------------------------------
  alpha Z        PSCENC =      1167.24442443
  Ewald energy   TEWEN  =    -22091.19378522
  -Hartree energ DENC   =    -10748.06551860
  -exchange      EXHF   =         0.00000000
  -V(xc)+E(xc)   XCENC  =      1502.30389415
  PAW double counting   =     31395.29360935   -32571.31712752
  entropy T*S    EENTRO =        -0.04849898
  eigenvalues    EBANDS =     -1375.17132119
  atomic energy  EATOM  =     32219.77639703
  Solvation  Ediel_sol  =         0.00000000
  ---------------------------------------------------
  free energy    TOTEN  =      -501.17792656 eV

  energy without entropy =     -501.12942757  energy(sigma->0) =     -501.15367707


--------------------------------------------------------------------------------------------------------




--------------------------------------- Iteration      1(   9)  ---------------------------------------


    POTLOK:  cpu time    0.1295: real time    0.1298
    SETDIJ:  cpu time    0.0184: real time    0.0184
     EDDAV:  cpu time    2.0474: real time    2.0522
    CHARGE:  cpu time    0.1346: real time    0.1350
    MIXING:  cpu time    0.0032: real time    0.0032
    --------------------------------------------
      LOOP:  cpu time    2.3330: real time    2.3385

 eigenvalue-minimisations  :  1424
 total energy-change (2. order) : 0.5083097E+02  (-0.3209609E+02)
 number of electron     369.9999909 magnetization      33.0104435
 augmentation part      129.1568790 magnetization      30.5962923

 Broyden mixing:
  rms(total) = 0.11421E+02    rms(broyden)= 0.11420E+02
  rms(prec ) = 0.14043E+02
  weight for this iteration     100.00

 eigenvalues of (default mixing * dielectric matrix)
  average eigenvalue GAMMA=   0.4020
  0.6328  0.6328  0.2351  0.1072

 Free energy of the ion-electron system (eV)
  ---------------------------------------------------
  alpha Z        PSCENC =      1167.24442443
  Ewald energy   TEWEN  =    -22091.19378522
  -Hartree energ DENC   =    -10719.68308449
  -exchange      EXHF   =         0.00000000
  -V(xc)+E(xc)   XCENC  =      1499.92217464
  PAW double counting   =     32139.37194713   -33333.03632770
  entropy T*S    EENTRO =        -0.04904402
  eigenvalues    EBANDS =     -1332.69965398
  atomic energy  EATOM  =     32219.77639703
  Solvation  Ediel_sol  =         0.00000000
  ---------------------------------------------------
  free energy    TOTEN  =      -450.34695218 eV

  energy without entropy =     -450.29790816  energy(sigma->0) =     -450.32243017


--------------------------------------------------------------------------------------------------------




--------------------------------------- Iteration      1(  10)  ---------------------------------------


    POTLOK:  cpu time    0.1297: real time    0.1301
    SETDIJ:  cpu time    0.0183: real time    0.0183
     EDDAV:  cpu time    2.0537: real time    2.0586
    CHARGE:  cpu time    0.1348: real time    0.1351
    MIXING:  cpu time    0.0035: real time    0.0035
    --------------------------------------------
      LOOP:  cpu time    2.3400: real time    2.3455

 eigenvalue-minimisations  :  1408
 total energy-change (2. order) :-0.7517463E+02  (-0.2303160E+02)
 number of electron     369.9999914 magnetization      31.0830953
 augmentation part      115.0897834 magnetization      28.0712700

 Broyden mixing:
  rms(total) = 0.17985E+02    rms(broyden)= 0.17984E+02
  rms(prec ) = 0.22943E+02
  weight for this iteration     100.00

 eigenvalues of (default mixing * dielectric matrix)
  average eigenvalue GAMMA=   0.3597
  0.6783  0.6783  0.2448  0.0987  0.0987

 Free energy of the ion-electron system (eV)
  ---------------------------------------------------
  alpha Z        PSCENC =      1167.24442443
  Ewald energy   TEWEN  =    -22091.19378522
  -Hartree energ DENC   =    -10745.51426138
  -exchange      EXHF   =         0.00000000
  -V(xc)+E(xc)   XCENC  =      1499.38864195
  PAW double counting   =     33138.32334533   -34375.70524825
  entropy T*S    EENTRO =        -0.07321507
  eigenvalues    EBANDS =     -1337.76787926
  atomic energy  EATOM  =     32219.77639703
  Solvation  Ediel_sol  =         0.00000000
  ---------------------------------------------------
  free energy    TOTEN  =      -525.52158043 eV

  energy without entropy =     -525.44836536  energy(sigma->0) =     -525.48497289


--------------------------------------------------------------------------------------------------------




--------------------------------------- Iteration      1(  11)  ---------------------------------------


    POTLOK:  cpu time    0.1299: real time    0.1302
    SETDIJ:  cpu time    0.0186: real time    0.0186
     EDDAV:  cpu time    2.0651: real time    2.0700
    CHARGE:  cpu time    0.1343: real time    0.1346
    MIXING:  cpu time    0.0034: real time    0.0034
    --------------------------------------------
      LOOP:  cpu time    2.3513: real time    2.3569

 eigenvalue-minimisations  :  1456
 total energy-change (2. order) : 0.1318915E+03  (-0.2025100E+02)
 number of electron     369.9999916 magnetization      29.0998556
 augmentation part      118.3082234 magnetization      23.8514957

 Broyden mixing:
  rms(total) = 0.10728E+02    rms(broyden)= 0.10727E+02
  rms(prec ) = 0.12725E+02
  weight for this iteration     100.00

 eigenvalues of (default mixing * dielectric matrix)
  average eigenvalue GAMMA=   0.3956
  1.1382  0.3251  0.3251  0.3394  0.1138  0.1318

 Free energy of the ion-electron system (eV)
  ---------------------------------------------------
  alpha Z        PSCENC =      1167.24442443
  Ewald energy   TEWEN  =    -22091.19378522
  -Hartree energ DENC   =    -10707.85310187
  -exchange      EXHF   =         0.00000000
  -V(xc)+E(xc)   XCENC  =      1500.65378939
  PAW double counting   =     33935.78103587   -35185.81283008
  entropy T*S    EENTRO =        -0.00391685
  eigenvalues    EBANDS =     -1232.22208423
  atomic energy  EATOM  =     32219.77639703
  Solvation  Ediel_sol  =         0.00000000
  ---------------------------------------------------
  free energy    TOTEN  =      -393.63007153 eV

  energy without entropy =     -393.62615468  energy(sigma->0) =     -393.62811311


--------------------------------------------------------------------------------------------------------




--------------------------------------- Iteration      1(  12)  ---------------------------------------


    POTLOK:  cpu time    0.1292: real time    0.1295
    SETDIJ:  cpu time    0.0183: real time    0.0183
     EDDAV:  cpu time    1.9914: real time    1.9961
    CHARGE:  cpu time    0.1343: real time    0.1346
    MIXING:  cpu time    0.0036: real time    0.0036
    --------------------------------------------
      LOOP:  cpu time    2.2767: real time    2.2822

 eigenvalue-minimisations  :  1392
 total energy-change (2. order) :-0.6233472E+01  (-0.4731877E+01)
 number of electron     369.9999925 magnetization      27.5779446
 augmentation part      120.0930569 magnetization      23.7396719

 Broyden mixing:
  rms(total) = 0.11593E+02    rms(broyden)= 0.11593E+02
  rms(prec ) = 0.14445E+02
  weight for this iteration     100.00

 eigenvalues of (default mixing * dielectric matrix)
  average eigenvalue GAMMA=   0.4248
  1.4256  0.3543  0.3543  0.3703  0.2474  0.1107  0.1107

 Free energy of the ion-electron system (eV)
  ---------------------------------------------------
  alpha Z        PSCENC =      1167.24442443
  Ewald energy   TEWEN  =    -22091.19378522
  -Hartree energ DENC   =    -10648.68015689
  -exchange      EXHF   =         0.00000000
  -V(xc)+E(xc)   XCENC  =      1499.79367661
  PAW double counting   =     34895.50484839   -36151.41310174
  entropy T*S    EENTRO =        -0.04546094
  eigenvalues    EBANDS =     -1290.85038547
  atomic energy  EATOM  =     32219.77639703
  Solvation  Ediel_sol  =         0.00000000
  ---------------------------------------------------
  free energy    TOTEN  =      -399.86354380 eV

  energy without entropy =     -399.81808286  energy(sigma->0) =     -399.84081333


--------------------------------------------------------------------------------------------------------




--------------------------------------- Iteration      1(  13)  ---------------------------------------


    POTLOK:  cpu time    0.1292: real time    0.1295
    SETDIJ:  cpu time    0.0183: real time    0.0183
     EDDAV:  cpu time    1.8267: real time    1.8310
    CHARGE:  cpu time    0.1363: real time    0.1366
    MIXING:  cpu time    0.0036: real time    0.0036
    --------------------------------------------
      LOOP:  cpu time    2.1140: real time    2.1190

 eigenvalue-minimisations  :  1248
 total energy-change (2. order) : 0.1033236E+02  (-0.3291693E+02)
 number of electron     369.9999917 magnetization      24.0214206
 augmentation part      123.4329539 magnetization      19.3171223

 Broyden mixing:
  rms(total) = 0.88344E+01    rms(broyden)= 0.88341E+01
  rms(prec ) = 0.10936E+02
  weight for this iteration     100.00

 eigenvalues of (default mixing * dielectric matrix)
  average eigenvalue GAMMA=   0.5168
  1.8633  0.6455  0.4973  0.4973  0.2798  0.1247  0.1133  0.1133

 Free energy of the ion-electron system (eV)
  ---------------------------------------------------
  alpha Z        PSCENC =      1167.24442443
  Ewald energy   TEWEN  =    -22091.19378522
  -Hartree energ DENC   =    -10619.50417009
  -exchange      EXHF   =         0.00000000
  -V(xc)+E(xc)   XCENC  =      1499.85988398
  PAW double counting   =     35458.74230842   -36717.28852006
  entropy T*S    EENTRO =        -0.05727537
  eigenvalues    EBANDS =     -1307.11044404
  atomic energy  EATOM  =     32219.77639703
  Solvation  Ediel_sol  =         0.00000000
  ---------------------------------------------------
  free energy    TOTEN  =      -389.53118093 eV

  energy without entropy =     -389.47390556  energy(sigma->0) =     -389.50254324


--------------------------------------------------------------------------------------------------------




--------------------------------------- Iteration      1(  14)  ---------------------------------------


    POTLOK:  cpu time    0.1292: real time    0.1295
    SETDIJ:  cpu time    0.0183: real time    0.0183
     EDDAV:  cpu time    1.9559: real time    1.9606
    CHARGE:  cpu time    0.1369: real time    0.1373
    MIXING:  cpu time    0.0038: real time    0.0038
    --------------------------------------------
      LOOP:  cpu time    2.2441: real time    2.2495

 eigenvalue-minimisations  :  1360
 total energy-change (2. order) : 0.2675505E+02  (-0.7671825E+01)
 number of electron     369.9999909 magnetization      22.0978105
 augmentation part      126.2165977 magnetization      19.0765948

 Broyden mixing:
  rms(total) = 0.66460E+01    rms(broyden)= 0.66451E+01
  rms(prec ) = 0.77806E+01
  weight for this iteration     100.00

 eigenvalues of (default mixing * dielectric matrix)
  average eigenvalue GAMMA=   0.5527
  2.1474  0.5925  0.5925  0.4939  0.4939  0.3060  0.1230  0.1124  0.1124

 Free energy of the ion-electron system (eV)
  ---------------------------------------------------
  alpha Z        PSCENC =      1167.24442443
  Ewald energy   TEWEN  =    -22091.19378522
  -Hartree energ DENC   =    -10621.99992917
  -exchange      EXHF   =         0.00000000
  -V(xc)+E(xc)   XCENC  =      1499.44582394
  PAW double counting   =     36294.52363161   -37573.24412959
  entropy T*S    EENTRO =        -0.07698879
  eigenvalues    EBANDS =     -1257.25157739
  atomic energy  EATOM  =     32219.77639703
  Solvation  Ediel_sol  =         0.00000000
  ---------------------------------------------------
  free energy    TOTEN  =      -362.77613315 eV

  energy without entropy =     -362.69914436  energy(sigma->0) =     -362.73763876


--------------------------------------------------------------------------------------------------------




--------------------------------------- Iteration      1(  15)  ---------------------------------------


    POTLOK:  cpu time    0.1292: real time    0.1295
    SETDIJ:  cpu time    0.0185: real time    0.0185
     EDDAV:  cpu time    2.0279: real time    2.0327
    CHARGE:  cpu time    0.1341: real time    0.1344
    MIXING:  cpu time    0.0041: real time    0.0041
    --------------------------------------------
      LOOP:  cpu time    2.3137: real time    2.3192

 eigenvalue-minimisations  :  1424
 total energy-change (2. order) : 0.1402287E+02  (-0.6017707E+01)
 number of electron     369.9999916 magnetization      23.2350078
 augmentation part      127.9531841 magnetization      19.6338249

 Broyden mixing:
  rms(total) = 0.64566E+01    rms(broyden)= 0.64557E+01
  rms(prec ) = 0.70272E+01
  weight for this iteration     100.00

 eigenvalues of (default mixing * dielectric matrix)
  average eigenvalue GAMMA=   0.4748
  1.5650  0.6070  0.6070  0.5313  0.4274  0.4274  0.2322  0.1268  0.1120  0.1120

 Free energy of the ion-electron system (eV)
  ---------------------------------------------------
  alpha Z        PSCENC =      1167.24442443
  Ewald energy   TEWEN  =    -22091.19378522
  -Hartree energ DENC   =    -10621.92322842
  -exchange      EXHF   =         0.00000000
  -V(xc)+E(xc)   XCENC  =      1499.85379689
  PAW double counting   =     36640.68769552   -37929.68823881
  entropy T*S    EENTRO =        -0.03680041
  eigenvalues    EBANDS =     -1233.47352573
  atomic energy  EATOM  =     32219.77639703
  Solvation  Ediel_sol  =         0.00000000
  ---------------------------------------------------
  free energy    TOTEN  =      -348.75326471 eV

  energy without entropy =     -348.71646431  energy(sigma->0) =     -348.73486451


--------------------------------------------------------------------------------------------------------




--------------------------------------- Iteration      1(  16)  ---------------------------------------


    POTLOK:  cpu time    0.1299: real time    0.1302
    SETDIJ:  cpu time    0.0183: real time    0.0183
     EDDAV:  cpu time    1.8974: real time    1.9019
    CHARGE:  cpu time    0.1345: real time    0.1348
    MIXING:  cpu time    0.0043: real time    0.0043
    --------------------------------------------
      LOOP:  cpu time    2.1843: real time    2.1895

 eigenvalue-minimisations  :  1312
 total energy-change (2. order) : 0.1131945E+02  (-0.9643043E+00)
 number of electron     369.9999918 magnetization      23.6059963
 augmentation part      125.2982849 magnetization      20.0628858

 Broyden mixing:
  rms(total) = 0.51522E+01    rms(broyden)= 0.51521E+01
  rms(prec ) = 0.55785E+01
  weight for this iteration     100.00

 eigenvalues of (default mixing * dielectric matrix)
  average eigenvalue GAMMA=   0.4637
  1.4125  0.6124  0.6124  0.4374  0.4374  0.4667  0.4667  0.3060  0.1248  0.1122
  0.1122

 Free energy of the ion-electron system (eV)
  ---------------------------------------------------
  alpha Z        PSCENC =      1167.24442443
  Ewald energy   TEWEN  =    -22091.19378522
  -Hartree energ DENC   =    -10668.22876526
  -exchange      EXHF   =         0.00000000
  -V(xc)+E(xc)   XCENC  =      1498.35102079
  PAW double counting   =     35987.72950299   -37276.81287138
  entropy T*S    EENTRO =        -0.01713540
  eigenvalues    EBANDS =     -1174.28260120
  atomic energy  EATOM  =     32219.77639703
  Solvation  Ediel_sol  =         0.00000000
  ---------------------------------------------------
  free energy    TOTEN  =      -337.43381323 eV

  energy without entropy =     -337.41667783  energy(sigma->0) =     -337.42524553


--------------------------------------------------------------------------------------------------------




--------------------------------------- Iteration      1(  17)  ---------------------------------------


    POTLOK:  cpu time    0.1293: real time    0.1296
    SETDIJ:  cpu time    0.0182: real time    0.0183
     EDDAV:  cpu time    2.0799: real time    2.0848
    CHARGE:  cpu time    0.1351: real time    0.1354
    MIXING:  cpu time    0.0044: real time    0.0044
    --------------------------------------------
      LOOP:  cpu time    2.3668: real time    2.3725

 eigenvalue-minimisations  :  1472
 total energy-change (2. order) : 0.2450950E+01  (-0.4174064E+00)
 number of electron     369.9999917 magnetization      23.6185765
 augmentation part      124.6834286 magnetization      20.3092235

 Broyden mixing:
  rms(total) = 0.44582E+01    rms(broyden)= 0.44581E+01
  rms(prec ) = 0.48705E+01
  weight for this iteration     100.00

 eigenvalues of (default mixing * dielectric matrix)
  average eigenvalue GAMMA=   0.4398
  1.4502  0.6288  0.6288  0.4718  0.4718  0.4288  0.4288  0.3005  0.1249  0.1122
  0.1122  0.1185

 Free energy of the ion-electron system (eV)
  ---------------------------------------------------
  alpha Z        PSCENC =      1167.24442443
  Ewald energy   TEWEN  =    -22091.19378522
  -Hartree energ DENC   =    -10677.59917591
  -exchange      EXHF   =         0.00000000
  -V(xc)+E(xc)   XCENC  =      1497.86902701
  PAW double counting   =     35749.67405883   -37033.26212448
  entropy T*S    EENTRO =        -0.00648445
  eigenvalues    EBANDS =     -1167.48520011
  atomic energy  EATOM  =     32219.77639703
  Solvation  Ediel_sol  =         0.00000000
  ---------------------------------------------------
  free energy    TOTEN  =      -334.98286286 eV

  energy without entropy =     -334.97637842  energy(sigma->0) =     -334.97962064


--------------------------------------------------------------------------------------------------------




--------------------------------------- Iteration      1(  18)  ---------------------------------------


    POTLOK:  cpu time    0.1296: real time    0.1299
    SETDIJ:  cpu time    0.0184: real time    0.0184
     EDDAV:  cpu time    1.7864: real time    1.7907
    CHARGE:  cpu time    0.1338: real time    0.1342
    MIXING:  cpu time    0.0046: real time    0.0046
    --------------------------------------------
      LOOP:  cpu time    2.0728: real time    2.0777

 eigenvalue-minimisations  :  1216
 total energy-change (2. order) : 0.3714734E+00  (-0.6275454E-01)
 number of electron     369.9999917 magnetization      23.5015105
 augmentation part      124.7136215 magnetization      20.1959976

 Broyden mixing:
  rms(total) = 0.44080E+01    rms(broyden)= 0.44080E+01
  rms(prec ) = 0.48150E+01
  weight for this iteration     100.00

 eigenvalues of (default mixing * dielectric matrix)
  average eigenvalue GAMMA=   0.4978
  1.3774  0.8000  0.8000  0.5640  0.5640  0.5997  0.4033  0.4033  0.3052  0.3052
  0.1121  0.1121  0.1250

 Free energy of the ion-electron system (eV)
  ---------------------------------------------------
  alpha Z        PSCENC =      1167.24442443
  Ewald energy   TEWEN  =    -22091.19378522
  -Hartree energ DENC   =    -10678.60614053
  -exchange      EXHF   =         0.00000000
  -V(xc)+E(xc)   XCENC  =      1497.91655564
  PAW double counting   =     35731.05387876   -37014.19840765
  entropy T*S    EENTRO =        -0.00654323
  eigenvalues    EBANDS =     -1166.59776868
  atomic energy  EATOM  =     32219.77639703
  Solvation  Ediel_sol  =         0.00000000
  ---------------------------------------------------
  free energy    TOTEN  =      -334.61138946 eV

  energy without entropy =     -334.60484623  energy(sigma->0) =     -334.60811784


--------------------------------------------------------------------------------------------------------




--------------------------------------- Iteration      1(  19)  ---------------------------------------


    POTLOK:  cpu time    0.1295: real time    0.1298
    SETDIJ:  cpu time    0.0183: real time    0.0184
     EDDAV:  cpu time    1.8408: real time    1.8452
    CHARGE:  cpu time    0.1344: real time    0.1348
    MIXING:  cpu time    0.0048: real time    0.0048
    --------------------------------------------
      LOOP:  cpu time    2.1278: real time    2.1329

 eigenvalue-minimisations  :  1264
 total energy-change (2. order) : 0.2146240E+01  (-0.5699892E-01)
 number of electron     369.9999916 magnetization      23.0024267
 augmentation part      124.1117118 magnetization      19.7740214

 Broyden mixing:
  rms(total) = 0.38182E+01    rms(broyden)= 0.38182E+01
  rms(prec ) = 0.41907E+01
  weight for this iteration     100.00

 eigenvalues of (default mixing * dielectric matrix)
  average eigenvalue GAMMA=   0.5343
  1.3787  1.1120  1.1120  0.6160  0.6160  0.4413  0.4413  0.4708  0.4533  0.2904
  0.1121  0.1121  0.1251  0.1993

 Free energy of the ion-electron system (eV)
  ---------------------------------------------------
  alpha Z        PSCENC =      1167.24442443
  Ewald energy   TEWEN  =    -22091.19378522
  -Hartree energ DENC   =    -10707.28906276
  -exchange      EXHF   =         0.00000000
  -V(xc)+E(xc)   XCENC  =      1499.31104471
  PAW double counting   =     35612.72523521   -36894.11845679
  entropy T*S    EENTRO =        -0.03670558
  eigenvalues    EBANDS =     -1138.88423999
  atomic energy  EATOM  =     32219.77639703
  Solvation  Ediel_sol  =         0.00000000
  ---------------------------------------------------
  free energy    TOTEN  =      -332.46514897 eV

  energy without entropy =     -332.42844339  energy(sigma->0) =     -332.44679618


--------------------------------------------------------------------------------------------------------




--------------------------------------- Iteration      1(  20)  ---------------------------------------


    POTLOK:  cpu time    0.1291: real time    0.1294
    SETDIJ:  cpu time    0.0184: real time    0.0184
     EDDAV:  cpu time    1.9867: real time    1.9915
    CHARGE:  cpu time    0.1346: real time    0.1349
    MIXING:  cpu time    0.0050: real time    0.0050
    --------------------------------------------
      LOOP:  cpu time    2.2738: real time    2.2792

 eigenvalue-minimisations  :  1392
 total energy-change (2. order) : 0.2904329E+01  (-0.1024793E+00)
 number of electron     369.9999917 magnetization      22.9822747
 augmentation part      123.5524192 magnetization      19.7190312

 Broyden mixing:
  rms(total) = 0.31659E+01    rms(broyden)= 0.31657E+01
  rms(prec ) = 0.34323E+01
  weight for this iteration     100.00

 eigenvalues of (default mixing * dielectric matrix)
  average eigenvalue GAMMA=   0.5056
  1.3868  1.1192  1.1192  0.6166  0.6166  0.4435  0.4435  0.4716  0.4716  0.2894
  0.1121  0.1121  0.1251  0.2088  0.0479

 Free energy of the ion-electron system (eV)
  ---------------------------------------------------
  alpha Z        PSCENC =      1167.24442443
  Ewald energy   TEWEN  =    -22091.19378522
  -Hartree energ DENC   =    -10732.52265275
  -exchange      EXHF   =         0.00000000
  -V(xc)+E(xc)   XCENC  =      1500.40793296
  PAW double counting   =     35535.97263803   -36815.71594567
  entropy T*S    EENTRO =        -0.06044282
  eigenvalues    EBANDS =     -1113.46938598
  atomic energy  EATOM  =     32219.77639703
  Solvation  Ediel_sol  =         0.00000000
  ---------------------------------------------------
  free energy    TOTEN  =      -329.56082000 eV

  energy without entropy =     -329.50037718  energy(sigma->0) =     -329.53059859


--------------------------------------------------------------------------------------------------------




--------------------------------------- Iteration      1(  21)  ---------------------------------------


    POTLOK:  cpu time    0.1294: real time    0.1297
    SETDIJ:  cpu time    0.0183: real time    0.0183
     EDDAV:  cpu time    1.9759: real time    1.9806
    CHARGE:  cpu time    0.1343: real time    0.1346
    MIXING:  cpu time    0.0050: real time    0.0050
    --------------------------------------------
      LOOP:  cpu time    2.2629: real time    2.2682

 eigenvalue-minimisations  :  1376
 total energy-change (2. order) :-0.1111928E-01  (-0.3961903E-01)
 number of electron     369.9999917 magnetization      21.0748027
 augmentation part      123.5742798 magnetization      17.8689490

 Broyden mixing:
  rms(total) = 0.31670E+01    rms(broyden)= 0.31670E+01
  rms(prec ) = 0.34589E+01
  weight for this iteration     100.00

 eigenvalues of (default mixing * dielectric matrix)
  average eigenvalue GAMMA=   0.5900
  1.4596  1.4596  1.2615  0.6038  0.6038  0.5804  0.5804  0.5709  0.5709  0.4406
  0.4406  0.2858  0.1121  0.1121  0.1251  0.2329

 Free energy of the ion-electron system (eV)
  ---------------------------------------------------
  alpha Z        PSCENC =      1167.24442443
  Ewald energy   TEWEN  =    -22091.19378522
  -Hartree energ DENC   =    -10726.63143710
  -exchange      EXHF   =         0.00000000
  -V(xc)+E(xc)   XCENC  =      1499.82075935
  PAW double counting   =     35522.29420438   -36801.17411281
  entropy T*S    EENTRO =        -0.05640795
  eigenvalues    EBANDS =     -1119.65198139
  atomic energy  EATOM  =     32219.77639703
  Solvation  Ediel_sol  =         0.00000000
  ---------------------------------------------------
  free energy    TOTEN  =      -329.57193928 eV

  energy without entropy =     -329.51553133  energy(sigma->0) =     -329.54373530


--------------------------------------------------------------------------------------------------------




--------------------------------------- Iteration      1(  22)  ---------------------------------------


    POTLOK:  cpu time    0.1293: real time    0.1296
    SETDIJ:  cpu time    0.0183: real time    0.0183
     EDDAV:  cpu time    1.8674: real time    1.8719
    CHARGE:  cpu time    0.1369: real time    0.1373
    MIXING:  cpu time    0.0052: real time    0.0052
    --------------------------------------------
      LOOP:  cpu time    2.1571: real time    2.1622

 eigenvalue-minimisations  :  1280
 total energy-change (2. order) : 0.4150992E+01  (-0.1775110E+00)
 number of electron     369.9999918 magnetization      19.7384178
 augmentation part      122.6996599 magnetization      16.8142590

 Broyden mixing:
  rms(total) = 0.21078E+01    rms(broyden)= 0.21077E+01
  rms(prec ) = 0.23792E+01
  weight for this iteration     100.00

 eigenvalues of (default mixing * dielectric matrix)
  average eigenvalue GAMMA=   0.5890
  1.5633  1.5633  0.9641  0.9641  0.5659  0.5659  0.6029  0.6029  0.4544  0.4544
  0.4215  0.4215  0.2846  0.1121  0.1121  0.1251  0.2345

 Free energy of the ion-electron system (eV)
  ---------------------------------------------------
  alpha Z        PSCENC =      1167.24442443
  Ewald energy   TEWEN  =    -22091.19378522
  -Hartree energ DENC   =    -10764.13674371
  -exchange      EXHF   =         0.00000000
  -V(xc)+E(xc)   XCENC  =      1500.40084165
  PAW double counting   =     35361.31826442   -36629.65887763
  entropy T*S    EENTRO =        -0.00309775
  eigenvalues    EBANDS =     -1089.16837027
  atomic energy  EATOM  =     32219.77639703
  Solvation  Ediel_sol  =         0.00000000
  ---------------------------------------------------
  free energy    TOTEN  =      -325.42094704 eV

  energy without entropy =     -325.41784929  energy(sigma->0) =     -325.41939817


--------------------------------------------------------------------------------------------------------




--------------------------------------- Iteration      1(  23)  ---------------------------------------


    POTLOK:  cpu time    0.1292: real time    0.1295
    SETDIJ:  cpu time    0.0183: real time    0.0183
     EDDAV:  cpu time    2.1585: real time    2.1656
    CHARGE:  cpu time    0.1375: real time    0.1378
    MIXING:  cpu time    0.0054: real time    0.0054
    --------------------------------------------
      LOOP:  cpu time    2.4488: real time    2.4566

 eigenvalue-minimisations  :  1504
 total energy-change (2. order) :-0.9042937E-01  (-0.1846169E+00)
 number of electron     369.9999919 magnetization      19.3288328
 augmentation part      121.9815584 magnetization      16.6126527

 Broyden mixing:
  rms(total) = 0.14037E+01    rms(broyden)= 0.14036E+01
  rms(prec ) = 0.16048E+01
  weight for this iteration     100.00

 eigenvalues of (default mixing * dielectric matrix)
  average eigenvalue GAMMA=   0.5812
  1.5373  1.5373  0.9626  0.9626  0.5848  0.5848  0.6082  0.6082  0.4870  0.4870
  0.4203  0.4203  0.3918  0.2857  0.1121  0.1121  0.1251  0.2336

 Free energy of the ion-electron system (eV)
  ---------------------------------------------------
  alpha Z        PSCENC =      1167.24442443
  Ewald energy   TEWEN  =    -22091.19378522
  -Hartree energ DENC   =    -10788.15805042
  -exchange      EXHF   =         0.00000000
  -V(xc)+E(xc)   XCENC  =      1500.50747087
  PAW double counting   =     35301.09585536   -36566.33212704
  entropy T*S    EENTRO =        -0.02621187
  eigenvalues    EBANDS =     -1068.42534955
  atomic energy  EATOM  =     32219.77639703
  Solvation  Ediel_sol  =         0.00000000
  ---------------------------------------------------
  free energy    TOTEN  =      -325.51137641 eV

  energy without entropy =     -325.48516454  energy(sigma->0) =     -325.49827048


--------------------------------------------------------------------------------------------------------




--------------------------------------- Iteration      1(  24)  ---------------------------------------


    POTLOK:  cpu time    0.1294: real time    0.1297
    SETDIJ:  cpu time    0.0183: real time    0.0184
     EDDAV:  cpu time    2.0132: real time    2.0181
    CHARGE:  cpu time    0.1371: real time    0.1375
    MIXING:  cpu time    0.0056: real time    0.0056
    --------------------------------------------
      LOOP:  cpu time    2.3037: real time    2.3093

 eigenvalue-minimisations  :  1408
 total energy-change (2. order) :-0.1199893E+01  (-0.1158745E+00)
 number of electron     369.9999919 magnetization      14.6021759
 augmentation part      122.3430508 magnetization      11.9430124

 Broyden mixing:
  rms(total) = 0.12837E+01    rms(broyden)= 0.12836E+01
  rms(prec ) = 0.14760E+01
  weight for this iteration     100.00

 eigenvalues of (default mixing * dielectric matrix)
  average eigenvalue GAMMA=   0.6295
  1.6794  1.6794  1.1209  0.8168  0.8168  0.6608  0.6608  0.6292  0.6292  0.6070
  0.4493  0.4493  0.4463  0.4463  0.2850  0.1121  0.1121  0.1251  0.2341

 Free energy of the ion-electron system (eV)
  ---------------------------------------------------
  alpha Z        PSCENC =      1167.24442443
  Ewald energy   TEWEN  =    -22091.19378522
  -Hartree energ DENC   =    -10769.92286288
  -exchange      EXHF   =         0.00000000
  -V(xc)+E(xc)   XCENC  =      1498.99673391
  PAW double counting   =     35386.90421329   -36651.36110823
  entropy T*S    EENTRO =        -0.03305957
  eigenvalues    EBANDS =     -1087.12222209
  atomic energy  EATOM  =     32219.77639703
  Solvation  Ediel_sol  =         0.00000000
  ---------------------------------------------------
  free energy    TOTEN  =      -326.71126933 eV

  energy without entropy =     -326.67820976  energy(sigma->0) =     -326.69473955


--------------------------------------------------------------------------------------------------------




--------------------------------------- Iteration      1(  25)  ---------------------------------------


    POTLOK:  cpu time    0.1295: real time    0.1298
    SETDIJ:  cpu time    0.0183: real time    0.0184
     EDDAV:  cpu time    2.1633: real time    2.1685
    CHARGE:  cpu time    0.1346: real time    0.1349
    MIXING:  cpu time    0.0057: real time    0.0058
    --------------------------------------------
      LOOP:  cpu time    2.4515: real time    2.4574

 eigenvalue-minimisations  :  1472
 total energy-change (2. order) :-0.5509480E+01  (-0.1426227E+01)
 number of electron     369.9999924 magnetization      14.2905843
 augmentation part      121.6550669 magnetization      13.5324569

 Broyden mixing:
  rms(total) = 0.23754E+01    rms(broyden)= 0.23747E+01
  rms(prec ) = 0.25540E+01
  weight for this iteration     100.00

 eigenvalues of (default mixing * dielectric matrix)
  average eigenvalue GAMMA=   0.5993
  1.6809  1.6809  1.0645  0.6560  0.6560  0.7622  0.7622  0.6557  0.6557  0.6904
  0.4472  0.4472  0.4521  0.4521  0.2850  0.1121  0.1121  0.1251  0.2341  0.0554

 Free energy of the ion-electron system (eV)
  ---------------------------------------------------
  alpha Z        PSCENC =      1167.24442443
  Ewald energy   TEWEN  =    -22091.19378522
  -Hartree energ DENC   =    -10777.34179647
  -exchange      EXHF   =         0.00000000
  -V(xc)+E(xc)   XCENC  =      1496.28044791
  PAW double counting   =     35474.92996903   -36725.95148826
  entropy T*S    EENTRO =        -0.04450093
  eigenvalues    EBANDS =     -1095.92041670
  atomic energy  EATOM  =     32219.77639703
  Solvation  Ediel_sol  =         0.00000000
  ---------------------------------------------------
  free energy    TOTEN  =      -332.22074919 eV

  energy without entropy =     -332.17624826  energy(sigma->0) =     -332.19849872


--------------------------------------------------------------------------------------------------------




--------------------------------------- Iteration      1(  26)  ---------------------------------------


    POTLOK:  cpu time    0.1299: real time    0.1302
    SETDIJ:  cpu time    0.0182: real time    0.0183
     EDDAV:  cpu time    1.7370: real time    1.7411
    CHARGE:  cpu time    0.1342: real time    0.1346
    MIXING:  cpu time    0.0060: real time    0.0060
    --------------------------------------------
      LOOP:  cpu time    2.0253: real time    2.0302

 eigenvalue-minimisations  :  1168
 total energy-change (2. order) : 0.3961722E-01  (-0.1365103E+00)
 number of electron     369.9999924 magnetization      13.5453833
 augmentation part      121.9203678 magnetization      12.5181482

 Broyden mixing:
  rms(total) = 0.21956E+01    rms(broyden)= 0.21955E+01
  rms(prec ) = 0.23696E+01
  weight for this iteration     100.00

 eigenvalues of (default mixing * dielectric matrix)
  average eigenvalue GAMMA=   0.6251
  1.7178  1.7178  1.3646  1.0399  1.0399  0.5957  0.5957  0.6017  0.6017  0.5178
  0.5178  0.4407  0.4407  0.4683  0.1121  0.1121  0.1251  0.2850  0.2340  0.2989
  0.2989

 Free energy of the ion-electron system (eV)
  ---------------------------------------------------
  alpha Z        PSCENC =      1167.24442443
  Ewald energy   TEWEN  =    -22091.19378522
  -Hartree energ DENC   =    -10772.25739079
  -exchange      EXHF   =         0.00000000
  -V(xc)+E(xc)   XCENC  =      1496.00915714
  PAW double counting   =     35507.11591880   -36758.18371964
  entropy T*S    EENTRO =        -0.04711426
  eigenvalues    EBANDS =     -1100.64501945
  atomic energy  EATOM  =     32219.77639703
  Solvation  Ediel_sol  =         0.00000000
  ---------------------------------------------------
  free energy    TOTEN  =      -332.18113196 eV

  energy without entropy =     -332.13401770  energy(sigma->0) =     -332.15757483


--------------------------------------------------------------------------------------------------------




--------------------------------------- Iteration      1(  27)  ---------------------------------------


    POTLOK:  cpu time    0.1295: real time    0.1298
    SETDIJ:  cpu time    0.0184: real time    0.0184
     EDDAV:  cpu time    1.8653: real time    1.8697
    CHARGE:  cpu time    0.1368: real time    0.1371
    MIXING:  cpu time    0.0062: real time    0.0062
    --------------------------------------------
      LOOP:  cpu time    2.1561: real time    2.1613

 eigenvalue-minimisations  :  1280
 total energy-change (2. order) :-0.7838222E+00  (-0.5495127E-01)
 number of electron     369.9999923 magnetization      12.6418066
 augmentation part      122.1775063 magnetization      10.8601602

 Broyden mixing:
  rms(total) = 0.18088E+01    rms(broyden)= 0.18087E+01
  rms(prec ) = 0.19574E+01
  weight for this iteration     100.00

[...]
     0.000000000  4.033427882  4.033427882     0.061299899  0.061299899  0.186628173
     4.033427882 -4.033427882  0.000000000     0.154613986 -0.093314087  0.093314087
    11.756526378 11.756526378 -7.723098495     0.032014187  0.032014187 -0.032014187

  length of vectors
     5.704128414  5.704128414 18.332432335     0.205780053  0.203274499  0.055450199


 FORCES acting on ions
    electron-ion (+dipol)            ewald-force                    non-local-force                 convergence-correction
 -----------------------------------------------------------------------------------------------
   0.480E+01 0.480E+01 -.480E+01   -.450E+01 -.450E+01 0.450E+01   -.327E+00 -.327E+00 0.327E+00   0.247E-01 0.247E-01 -.247E-01
   0.557E+01 0.557E+01 -.557E+01   -.559E+01 -.559E+01 0.559E+01   0.288E-01 0.288E-01 -.288E-01   -.240E-01 -.240E-01 0.240E-01
   -.904E+01 -.904E+01 0.904E+01   0.906E+01 0.906E+01 -.906E+01   -.517E-01 -.517E-01 0.517E-01   0.278E-01 0.278E-01 -.278E-01
   0.904E+01 0.904E+01 -.904E+01   -.906E+01 -.906E+01 0.906E+01   0.517E-01 0.517E-01 -.517E-01   -.278E-01 -.278E-01 0.278E-01
   -.557E+01 -.557E+01 0.557E+01   0.559E+01 0.559E+01 -.559E+01   -.288E-01 -.288E-01 0.288E-01   0.240E-01 0.240E-01 -.240E-01
   -.480E+01 -.480E+01 0.480E+01   0.450E+01 0.450E+01 -.450E+01   0.327E+00 0.327E+00 -.327E+00   -.247E-01 -.247E-01 0.247E-01
   -.473E-12 -.399E-12 -.686E-12   0.142E-12 0.213E-13 -.426E-13   0.000E+00 0.212E-21 0.318E-21   0.685E-12 0.769E-12 -.860E-12
   0.282E+02 0.282E+02 -.424E+02   -.279E+02 -.279E+02 0.430E+02   -.237E+00 -.237E+00 -.542E+00   -.126E-01 -.126E-01 0.105E-02
   0.204E-11 0.621E-12 -.201E-11   -.142E-13 -.568E-13 0.128E-12   0.000E+00 -.397E-22 0.860E-22   0.517E-12 0.627E-12 -.667E-12
   -.282E+02 -.282E+02 0.424E+02   0.279E+02 0.279E+02 -.430E+02   0.237E+00 0.237E+00 0.542E+00   0.126E-01 0.126E-01 -.105E-02
   -.936E-11 -.178E-10 0.550E-11   0.568E-13 0.711E-14 0.213E-13   0.000E+00 -.318E-21 0.000E+00   0.525E-12 0.781E-12 -.816E-12
   0.282E+02 0.424E+02 -.282E+02   -.279E+02 -.430E+02 0.279E+02   -.237E+00 0.542E+00 0.237E+00   -.126E-01 -.105E-02 0.126E-01
   0.874E-11 -.113E-11 -.377E-11   -.568E-13 -.711E-13 0.853E-13   0.000E+00 0.529E-22 -.265E-22   0.392E-12 0.597E-12 -.675E-12
   -.282E+02 -.424E+02 0.282E+02   0.279E+02 0.430E+02 -.279E+02   0.237E+00 -.542E+00 -.237E+00   0.126E-01 0.105E-02 -.126E-01
   -.609E-11 -.107E-10 0.581E-11   0.107E-12 0.355E-13 -.284E-13   0.238E-21 0.000E+00 0.000E+00   0.779E-12 0.514E-12 -.713E-12
   0.424E+02 0.282E+02 -.282E+02   -.430E+02 -.279E+02 0.279E+02   0.542E+00 -.237E+00 0.237E+00   -.105E-02 -.126E-01 0.126E-01
   0.601E-12 0.380E-12 -.384E-11   -.426E-13 -.156E-12 -.853E-13   0.405E-22 -.124E-22 0.261E-22   0.596E-12 0.369E-12 -.559E-12
   -.424E+02 -.282E+02 0.282E+02   0.430E+02 0.279E+02 -.279E+02   -.542E+00 0.237E+00 -.237E+00   0.105E-02 0.126E-01 -.126E-01
   0.284E+02 0.284E+02 -.284E+02   -.289E+02 -.289E+02 0.289E+02   0.491E+00 0.491E+00 -.491E+00   0.104E+00 0.104E+00 -.104E+00
   0.222E+02 0.222E+02 -.222E+02   -.224E+02 -.224E+02 0.224E+02   0.353E+00 0.353E+00 -.353E+00   -.113E+00 -.113E+00 0.113E+00
   -.222E+02 -.222E+02 0.222E+02   0.224E+02 0.224E+02 -.224E+02   -.353E+00 -.353E+00 0.353E+00   0.113E+00 0.113E+00 -.113E+00
   -.284E+02 -.284E+02 0.284E+02   0.289E+02 0.289E+02 -.289E+02   -.491E+00 -.491E+00 0.491E+00   -.104E+00 -.104E+00 0.104E+00
   0.227E+03 0.227E+03 0.198E+03   -.242E+03 -.242E+03 -.213E+03   0.148E+02 0.148E+02 0.156E+02   0.507E-01 0.507E-01 -.200E-01
   0.189E+03 0.189E+03 0.161E+03   -.199E+03 -.199E+03 -.170E+03   0.980E+01 0.980E+01 0.915E+01   -.593E-01 -.593E-01 0.243E-01
   0.162E+03 0.162E+03 0.197E+03   -.171E+03 -.171E+03 -.206E+03   0.923E+01 0.923E+01 0.902E+01   0.588E-01 0.588E-01 -.351E-01
   0.176E+03 0.176E+03 0.182E+03   -.186E+03 -.186E+03 -.191E+03   0.937E+01 0.937E+01 0.906E+01   -.531E-01 -.531E-01 0.263E-01
   0.227E+03 -.198E+03 -.227E+03   -.242E+03 0.213E+03 0.242E+03   0.148E+02 -.156E+02 -.148E+02   0.507E-01 0.200E-01 -.507E-01
   0.189E+03 -.161E+03 -.189E+03   -.199E+03 0.170E+03 0.199E+03   0.980E+01 -.915E+01 -.980E+01   -.593E-01 -.243E-01 0.593E-01
   0.162E+03 -.197E+03 -.162E+03   -.171E+03 0.206E+03 0.171E+03   0.923E+01 -.902E+01 -.923E+01   0.588E-01 0.351E-01 -.588E-01
   0.176E+03 -.182E+03 -.176E+03   -.186E+03 0.191E+03 0.186E+03   0.937E+01 -.906E+01 -.937E+01   -.531E-01 -.263E-01 0.531E-01
   -.198E+03 0.227E+03 -.227E+03   0.213E+03 -.242E+03 0.242E+03   -.156E+02 0.148E+02 -.148E+02   0.200E-01 0.507E-01 -.507E-01
   -.161E+03 0.189E+03 -.189E+03   0.170E+03 -.199E+03 0.199E+03   -.915E+01 0.980E+01 -.980E+01   -.243E-01 -.593E-01 0.593E-01
   -.197E+03 0.162E+03 -.162E+03   0.206E+03 -.171E+03 0.171E+03   -.902E+01 0.923E+01 -.923E+01   0.351E-01 0.588E-01 -.588E-01
   -.182E+03 0.176E+03 -.176E+03   0.191E+03 -.186E+03 0.186E+03   -.906E+01 0.937E+01 -.937E+01   -.263E-01 -.531E-01 0.531E-01
   -.206E+03 -.206E+03 0.206E+03   0.219E+03 0.219E+03 -.219E+03   -.134E+02 -.134E+02 0.134E+02   0.381E-01 0.381E-01 -.381E-01
   -.168E+03 -.168E+03 0.168E+03   0.175E+03 0.175E+03 -.175E+03   -.751E+01 -.751E+01 0.751E+01   -.625E-01 -.625E-01 0.625E-01
   -.193E+03 -.193E+03 0.193E+03   0.200E+03 0.200E+03 -.200E+03   -.740E+01 -.740E+01 0.740E+01   0.483E-01 0.483E-01 -.483E-01
   -.199E+03 -.199E+03 0.199E+03   0.206E+03 0.206E+03 -.206E+03   -.758E+01 -.758E+01 0.758E+01   -.523E-01 -.523E-01 0.523E-01
   -.176E+03 -.176E+03 -.182E+03   0.186E+03 0.186E+03 0.191E+03   -.937E+01 -.937E+01 -.906E+01   0.531E-01 0.531E-01 -.263E-01
   -.162E+03 -.162E+03 -.197E+03   0.171E+03 0.171E+03 0.206E+03   -.923E+01 -.923E+01 -.902E+01   -.588E-01 -.588E-01 0.351E-01
   -.189E+03 -.189E+03 -.161E+03   0.199E+03 0.199E+03 0.170E+03   -.980E+01 -.980E+01 -.915E+01   0.593E-01 0.593E-01 -.243E-01
   -.227E+03 -.227E+03 -.198E+03   0.242E+03 0.242E+03 0.213E+03   -.148E+02 -.148E+02 -.156E+02   -.507E-01 -.507E-01 0.200E-01
   -.176E+03 0.182E+03 0.176E+03   0.186E+03 -.191E+03 -.186E+03   -.937E+01 0.906E+01 0.937E+01   0.531E-01 0.263E-01 -.531E-01
   -.162E+03 0.197E+03 0.162E+03   0.171E+03 -.206E+03 -.171E+03   -.923E+01 0.902E+01 0.923E+01   -.588E-01 -.351E-01 0.588E-01
   -.189E+03 0.161E+03 0.189E+03   0.199E+03 -.170E+03 -.199E+03   -.980E+01 0.915E+01 0.980E+01   0.593E-01 0.243E-01 -.593E-01
   -.227E+03 0.198E+03 0.227E+03   0.242E+03 -.213E+03 -.242E+03   -.148E+02 0.156E+02 0.148E+02   -.507E-01 -.200E-01 0.507E-01
   0.182E+03 -.176E+03 0.176E+03   -.191E+03 0.186E+03 -.186E+03   0.906E+01 -.937E+01 0.937E+01   0.263E-01 0.531E-01 -.531E-01
   0.197E+03 -.162E+03 0.162E+03   -.206E+03 0.171E+03 -.171E+03   0.902E+01 -.923E+01 0.923E+01   -.351E-01 -.588E-01 0.588E-01
   0.161E+03 -.189E+03 0.189E+03   -.170E+03 0.199E+03 -.199E+03   0.915E+01 -.980E+01 0.980E+01   0.243E-01 0.593E-01 -.593E-01
   0.198E+03 -.227E+03 0.227E+03   -.213E+03 0.242E+03 -.242E+03   0.156E+02 -.148E+02 0.148E+02   -.200E-01 -.507E-01 0.507E-01
   0.206E+03 0.206E+03 -.206E+03   -.219E+03 -.219E+03 0.219E+03   0.134E+02 0.134E+02 -.134E+02   -.381E-01 -.381E-01 0.381E-01
   0.199E+03 0.199E+03 -.199E+03   -.206E+03 -.206E+03 0.206E+03   0.758E+01 0.758E+01 -.758E+01   0.523E-01 0.523E-01 -.523E-01
   0.193E+03 0.193E+03 -.193E+03   -.200E+03 -.200E+03 0.200E+03   0.740E+01 0.740E+01 -.740E+01   -.483E-01 -.483E-01 0.483E-01
   0.168E+03 0.168E+03 -.168E+03   -.175E+03 -.175E+03 0.175E+03   0.751E+01 0.751E+01 -.751E+01   0.625E-01 0.625E-01 -.625E-01
 -----------------------------------------------------------------------------------------------
   -.201E-11 -.313E-10 0.470E-10   0.199E-12 0.114E-12 0.341E-12   0.888E-15 0.142E-13 -.799E-14   0.620E-12 0.202E-11 -.293E-11
 
 
 POSITION                                       TOTAL-FORCE (eV/Angst)
 -----------------------------------------------------------------------------------
      2.98112      2.98112      3.06902        -0.001791     -0.001791      0.001791
      6.86745      2.83402     -0.81731        -0.010319     -0.010319      0.010319
     10.85254      6.81911     -0.76897         0.002877      0.002877     -0.002877
      4.93741      4.93741     -2.92070        -0.002877     -0.002877      0.002877
      8.92251      8.92251     -2.87236         0.010319      0.010319     -0.010319
     12.80883      8.77540     -6.75869         0.001791      0.001791     -0.001791
      0.00000      0.00000      0.00000        -0.000000      0.000000     -0.000000
      3.93864      3.93864      0.08863        -0.000031     -0.000031      0.006827
      7.89498      3.86155     -3.86155        -0.000000     -0.000000     -0.000000
     11.85131      7.81788     -3.77830         0.000031      0.000031     -0.006827
      0.00000      2.01671      2.01671        -0.000000     -0.000000     -0.000000
      3.93864      1.92808     -1.92193        -0.000031     -0.006827      0.000031
      7.89498      5.87826     -1.84484        -0.000000      0.000000     -0.000000
     11.85131      9.82845     -1.76774         0.000031      0.006827     -0.000031
      2.01671      0.00000      2.01671        -0.000000      0.000000     -0.000000
      5.96151     -0.09478     -1.92193        -0.006827     -0.000031      0.000031
      5.87826      7.89498     -1.84484        -0.000000      0.000000     -0.000000
      9.82845     11.85131     -1.76774         0.006827      0.000031     -0.000031
      1.99052      1.99052      0.02619        -0.000988     -0.000988      0.000988
      5.92250      5.92250      0.12764        -0.000288     -0.000288      0.000288
      9.86745      5.83402     -3.81731         0.000288      0.000288     -0.000288
     13.79943      9.76601     -3.71586         0.000988      0.000988     -0.000988
      6.11970      2.08627      2.18828        -0.004841     -0.004841      0.002008
      6.03725      6.03725     -1.78572        -0.008294     -0.008294     -0.002221
      9.98674      9.98674     -1.68753        -0.000359     -0.000359     -0.002706
     13.90815      9.87472     -5.60859         0.003379      0.003379      0.000839
      6.11970     -0.17156     -0.06956        -0.004841     -0.002008      0.004841
      6.03725      7.83586      0.01289        -0.008294      0.002221      0.008294
      9.98674      7.73768     -3.93660        -0.000359      0.002706      0.000359
     13.90815     11.65874     -3.82458         0.003379     -0.000839     -0.003379
      3.86187      2.08627     -0.06956        -0.002008     -0.004841      0.004841
      7.83586      6.03725      0.01289         0.002221     -0.008294      0.008294
     11.77110      5.95332     -3.93660         0.002706     -0.000359      0.000359
     11.65874     13.90815     -3.82458        -0.000839      0.003379     -0.003379
      3.86094     -0.17249      2.18920         0.000898      0.000898     -0.000898
      3.80271      3.80271     -1.78599         0.009358      0.009358     -0.009358
      7.76110      7.76110     -1.71096         0.009275      0.009275     -0.009275
     11.70189      7.66847     -5.65175        -0.005016     -0.005016      0.005016
      1.88180      1.88180      1.91892        -0.003379     -0.003379     -0.000839
      5.80321      1.76978     -2.00214         0.000359      0.000359      0.002706
      9.75271      5.71928     -1.90395         0.008294      0.008294      0.002221
      9.67026      9.67026     -5.87795         0.004841      0.004841     -0.002008
      1.88180      0.09779      0.13491        -0.003379      0.000839      0.003379
      5.80321      4.01885      0.24693         0.000359     -0.002706     -0.000359
      9.75271      3.92067     -3.70256         0.008294     -0.002221     -0.008294
      9.67026     11.92809     -3.62012         0.004841      0.002008     -0.004841
      4.13122     -2.15163      0.13491         0.000839     -0.003379      0.003379
      4.01885      5.80321      0.24693        -0.002706      0.000359     -0.000359
      7.95410      5.71928     -3.70256        -0.002221      0.008294     -0.008294
     11.92809      9.67026     -3.62012         0.002008      0.004841     -0.004841
     11.92902     11.92902     -5.87887        -0.000898     -0.000898      0.000898
      4.08806      4.08806      1.96208         0.005016      0.005016     -0.005016
      8.02885      3.99542     -1.97871        -0.009275     -0.009275      0.009275
     11.98725      7.95382     -1.90368        -0.009358     -0.009358      0.009358
 -----------------------------------------------------------------------------------
    total drift:                               -0.000000     -0.000000      0.000000


--------------------------------------------------------------------------------------------------------



  FREE ENERGIE OF THE ION-ELECTRON SYSTEM (eV)
  ---------------------------------------------------
  free  energy   TOTEN  =      -336.2181966622 eV

  energy  without entropy=     -336.1664658372  energy(sigma->0) =     -336.19233125
 


--------------------------------------------------------------------------------------------------------


    POTLOK:  cpu time    0.1484: real time    0.1487


--------------------------------------------------------------------------------------------------------


 Quasi-Newton relaxation of ions (Broydens 2nd method)
  g(Force)  = 0.171E-03   g(Stress)= 0.114E-03

 Reset! Starting new Quasi-Newton update for ions 


--------------------------------------------------------------------------------------------------------


  
 reached required accuracy - stopping structural energy minimisation
     LOOP+:  cpu time  132.6365: real time  133.1504
    4ORBIT:  cpu time    0.0000: real time    0.0000

volume of typ            1:     9.2 %

volume of typ            2:    20.1 %

volume of typ            3:    10.3 %
 
total charge     
 
# of ion       s       p       d       tot
------------------------------------------
    1        2.103   0.324   0.121   2.549
    2        2.102   0.319   0.119   2.540
    3        2.104   0.320   0.119   2.543
    4        2.104   0.320   0.119   2.543
    5        2.102   0.319   0.119   2.540
    6        2.103   0.324   0.121   2.549
    7        0.283   0.394   7.842   8.519
    8        0.287   0.403   7.843   8.532
    9        0.285   0.401   7.846   8.532
   10        0.287   0.403   7.843   8.532
   11        0.283   0.394   7.842   8.519
   12        0.287   0.403   7.843   8.532
   13        0.285   0.401   7.846   8.532
   14        0.287   0.403   7.843   8.532
   15        0.283   0.394   7.842   8.519
   16        0.287   0.403   7.843   8.532
   17        0.285   0.401   7.846   8.532
   18        0.287   0.403   7.843   8.532
   19        0.283   0.388   7.842   8.513
   20        0.265   0.352   7.863   8.480
   21        0.265   0.352   7.863   8.480
   22        0.283   0.388   7.842   8.513
   23        1.279   2.734   0.008   4.021
   24        1.260   2.789   0.007   4.056
   25        1.261   2.788   0.007   4.056
   26        1.263   2.779   0.006   4.049
   27        1.279   2.734   0.008   4.021
   28        1.260   2.789   0.007   4.056
   29        1.261   2.788   0.007   4.056
   30        1.263   2.779   0.006   4.049
   31        1.279   2.734   0.008   4.021
   32        1.260   2.789   0.007   4.056
   33        1.261   2.788   0.007   4.056
   34        1.263   2.779   0.006   4.049
   35        1.281   2.730   0.008   4.019
   36        1.268   2.773   0.007   4.048
   37        1.270   2.767   0.006   4.043
   38        1.270   2.770   0.007   4.046
   39        1.263   2.779   0.006   4.049
   40        1.261   2.788   0.007   4.056
   41        1.260   2.789   0.007   4.056
   42        1.279   2.734   0.008   4.021
   43        1.263   2.779   0.006   4.049
   44        1.261   2.788   0.007   4.056
   45        1.260   2.789   0.007   4.056
   46        1.279   2.734   0.008   4.021
   47        1.263   2.779   0.006   4.049
   48        1.261   2.788   0.007   4.056
   49        1.260   2.789   0.007   4.056
   50        1.279   2.734   0.008   4.021
   51        1.281   2.730   0.008   4.019
   52        1.270   2.770   0.007   4.046
   53        1.270   2.767   0.006   4.043
   54        1.268   2.773   0.007   4.048
--------------------------------------------------
tot          57.70   96.83  126.47  281.01
 
magnetization (x)
 
# of ion       s       p       d       tot
------------------------------------------
    1        0.002   0.009   0.003   0.013
    2        0.002   0.006   0.002   0.011
    3        0.002   0.005   0.002   0.009
    4        0.002   0.005   0.002   0.009
    5        0.002   0.006   0.002   0.011
    6        0.002   0.009   0.003   0.013
    7       -0.001  -0.001   0.206   0.205
    8       -0.001  -0.001   0.197   0.196
    9       -0.001  -0.001   0.237   0.235
   10       -0.001  -0.001   0.197   0.196
   11       -0.001  -0.001   0.206   0.205
   12       -0.001  -0.001   0.197   0.196
   13       -0.001  -0.001   0.237   0.235
   14       -0.001  -0.001   0.197   0.196
   15       -0.001  -0.001   0.206   0.205
   16       -0.001  -0.001   0.197   0.196
   17       -0.001  -0.001   0.237   0.235
   18       -0.001  -0.001   0.197   0.196
   19       -0.000  -0.000   0.193   0.192
   20       -0.000  -0.001   0.569   0.569
   21       -0.000  -0.001   0.569   0.569
   22       -0.000  -0.000   0.193   0.192
   23        0.002   0.012   0.000   0.014
   24        0.005   0.040   0.000   0.045
   25        0.005   0.048   0.000   0.054
   26        0.005   0.046   0.000   0.051
   27        0.002   0.012   0.000   0.014
   28        0.005   0.040   0.000   0.045
   29        0.005   0.048   0.000   0.054
   30        0.005   0.046   0.000   0.051
   31        0.002   0.012   0.000   0.014
   32        0.005   0.040   0.000   0.045
   33        0.005   0.048   0.000   0.054
   34        0.005   0.046   0.000   0.051
   35        0.002   0.008  -0.000   0.010
   36        0.010   0.075   0.000   0.085
   37        0.011   0.086   0.000   0.096
   38        0.010   0.070   0.000   0.080
   39        0.005   0.046   0.000   0.051
   40        0.005   0.048   0.000   0.054
   41        0.005   0.040   0.000   0.045
   42        0.002   0.012   0.000   0.014
   43        0.005   0.046   0.000   0.051
   44        0.005   0.048   0.000   0.054
   45        0.005   0.040   0.000   0.045
   46        0.002   0.012   0.000   0.014
   47        0.005   0.046   0.000   0.051
   48        0.005   0.048   0.000   0.054
   49        0.005   0.040   0.000   0.045
   50        0.002   0.012   0.000   0.014
   51        0.002   0.008  -0.000   0.010
   52        0.010   0.070   0.000   0.080
   53        0.011   0.086   0.000   0.096
   54        0.010   0.075   0.000   0.085
--------------------------------------------------
tot           0.17    1.38    4.05    5.60
 

 total amount of memory used by VASP MPI-rank0    94878. kBytes
=======================================================================

   base      :      30000. kBytes
   nonlr-proj:      22649. kBytes
   fftplans  :       5613. kBytes
   grid      :      32304. kBytes
   one-center:        839. kBytes
   wavefun   :       3473. kBytes
 
  
  
 General timing and accounting informations for this job:
 ========================================================
  
                  Total CPU time used (sec):      138.369
                            User time (sec):      136.143
                          System time (sec):        2.226
                         Elapsed time (sec):      143.761
  
                   Maximum memory used (kb):      136800.
                   Average memory used (kb):           0.
  
                          Minor page faults:        30704
                          Major page faults:           50
                 Voluntary context switches:          839
