 vasp.5.4.4.18Apr17-6-g9f103f2a35 (build May 12 2020 05:39:39) gamma-only       
  
 MD_VERSION_INFO: Compiled 2020-05-12T12:39:39-UTC in devlin.sd.materialsdesign.
 com:/home/medea2/data/build/wwolf/vasp-gpu5.4.4/13047/x86_64/src/src/build/gam 
 from svn 13047
 
 This VASP executable licensed from Materials Design, Inc.
 
 executed on                        Lin64 date 2023.03.06  23:44:23
 running on   16 total cores
 distrk:  each k-point on   16 cores,    1 groups
 distr:  one band on NCORES_PER_BAND=   1 cores,   16 groups


--------------------------------------------------------------------------------------------------------


 INCAR:
 POTCAR:    PAW_PBE Li_sv 10Sep2004               
 POTCAR:    PAW_PBE Ni 02Aug2007                  
 POTCAR:    PAW_PBE O 08Apr2002                   

 ----------------------------------------------------------------------------- 
|                                                                             |
|           W    W    AA    RRRRR   N    N  II  N    N   GGGG   !!!           |
|           W    W   A  A   R    R  NN   N  II  NN   N  G    G  !!!           |
|           W    W  A    A  R    R  N N  N  II  N N  N  G       !!!           |
|           W WW W  AAAAAA  RRRRR   N  N N  II  N  N N  G  GGG   !            |
|           WW  WW  A    A  R   R   N   NN  II  N   NN  G    G                |
|           W    W  A    A  R    R  N    N  II  N    N   GGGG   !!!           |
|                                                                             |
|      For optimal performance we recommend to set                            |
|        NCORE= 4 - approx SQRT( number of cores)                             |
|      NCORE specifies how many cores store one orbital (NPAR=cpu/NCORE).     |
|      This setting can  greatly improve the performance of VASP for DFT.     |
|      The default,   NCORE=1            might be grossly inefficient         |
|      on modern multi-core architectures or massively parallel machines.     |
|      Do your own testing !!!!                                               |
|      Unfortunately you need to use the default for GW and RPA calculations. |
|      (for HF NCORE is supported but not extensively tested yet)             |
|                                                                             |
 ----------------------------------------------------------------------------- 

 POTCAR:    PAW_PBE Li_sv 10Sep2004               
  local pseudopotential read in
  atomic valenz-charges read in
  non local Contribution for L=           0  read in
    real space projection operators read in
  non local Contribution for L=           0  read in
    real space projection operators read in
  non local Contribution for L=           1  read in
    real space projection operators read in
    PAW grid and wavefunctions read in
 
   number of l-projection  operators is LMAX  =           3
   number of lm-projection operators is LMMAX =           5
 
 POTCAR:    PAW_PBE Ni 02Aug2007                  
  local pseudopotential read in
  partial core-charges read in
  partial kinetic energy density read in
  atomic valenz-charges read in
  non local Contribution for L=           2  read in
    real space projection operators read in
  non local Contribution for L=           2  read in
    real space projection operators read in
  non local Contribution for L=           0  read in
    real space projection operators read in
  non local Contribution for L=           0  read in
    real space projection operators read in
  non local Contribution for L=           1  read in
    real space projection operators read in
  non local Contribution for L=           1  read in
    real space projection operators read in
    PAW grid and wavefunctions read in
 
   number of l-projection  operators is LMAX  =           6
   number of lm-projection operators is LMMAX =          18
 
 POTCAR:    PAW_PBE O 08Apr2002                   
  local pseudopotential read in
  partial core-charges read in
  partial kinetic energy density read in
  kinetic energy density of atom read in
  atomic valenz-charges read in
  non local Contribution for L=           0  read in
    real space projection operators read in
  non local Contribution for L=           0  read in
    real space projection operators read in
  non local Contribution for L=           1  read in
    real space projection operators read in
  non local Contribution for L=           1  read in
    real space projection operators read in
    PAW grid and wavefunctions read in
 
   number of l-projection  operators is LMAX  =           4
   number of lm-projection operators is LMMAX =           8
 
 Optimization of the real space projectors (new method)

 maximal supplied QI-value         = 22.11
 optimisation between [QCUT,QGAM] = [ 11.28, 22.77] = [ 35.61,145.23] Ry 
 Optimized for a Real-space Cutoff    1.10 Angstroem

   l    n(q)    QCUT    max X(q) W(low)/X(q) W(high)/X(q)  e(spline) 
   0      7    11.276    10.506    0.54E-04    0.58E-04    0.16E-07
   0      7    11.276     8.367    0.11E-03    0.14E-03    0.35E-07
   1      7    11.276     8.983    0.23E-03    0.43E-03    0.86E-07
 Optimization of the real space projectors (new method)

 maximal supplied QI-value         = 16.25
 optimisation between [QCUT,QGAM] = [ 11.38, 22.75] = [ 36.24,144.96] Ry 
 Optimized for a Real-space Cutoff    1.47 Angstroem

   l    n(q)    QCUT    max X(q) W(low)/X(q) W(high)/X(q)  e(spline) 
   2      9    11.376    60.317    0.17E-03    0.16E-04    0.16E-06
   2      9    11.376    55.921    0.17E-03    0.16E-04    0.17E-06
   0     10    11.376    51.690    0.45E-04    0.60E-04    0.21E-06
   0     10    11.376    30.015    0.37E-04    0.55E-04    0.19E-06
   1     10    11.376    18.849    0.83E-04    0.11E-03    0.92E-07
   1     10    11.376    14.624    0.69E-04    0.92E-04    0.82E-07
 Optimization of the real space projectors (new method)

 maximal supplied QI-value         = 24.76
 optimisation between [QCUT,QGAM] = [ 11.39, 22.77] = [ 36.31,145.25] Ry 
 Optimized for a Real-space Cutoff    1.10 Angstroem

   l    n(q)    QCUT    max X(q) W(low)/X(q) W(high)/X(q)  e(spline) 
   0      7    11.387    20.381    0.22E-03    0.48E-03    0.18E-06
   0      7    11.387    15.268    0.22E-03    0.52E-03    0.19E-06
   1      7    11.387     5.964    0.22E-03    0.73E-03    0.24E-06
   1      7    11.387     5.382    0.19E-03    0.60E-03    0.21E-06

 ----------------------------------------------------------------------------- 
|                                                                             |
|  ADVICE TO THIS USER RUNNING 'VASP/VAMP'   (HEAR YOUR MASTER'S VOICE ...):  |
|                                                                             |
|      You enforced a specific xc-type in the INCAR file,                     |
|      a different type was found on the POTCAR file                          |
|          I HOPE YOU KNOW, WHAT YOU ARE  DOING                               |
|                                                                             |
 ----------------------------------------------------------------------------- 

  PAW_PBE Li_sv 10Sep2004               :
 energy of atom  1       EATOM= -202.7858
 kinetic energy error for atom=    0.0143 (will be added to EATOM!!)
  PAW_PBE Ni 02Aug2007                  :
 energy of atom  2       EATOM=-1077.6739
 kinetic energy error for atom=    0.0030 (will be added to EATOM!!)
  PAW_PBE O 08Apr2002                   :
 energy of atom  3       EATOM= -432.3788
 kinetic energy error for atom=    0.0224 (will be added to EATOM!!)
 
 
 POSCAR: ce8515_1                                
  positions in direct lattice
  No initial velocities read in
 exchange correlation table for  LEXCH =       14
   RHO(1)=    0.500       N(1)  =     2000
   RHO(2)=  100.500       N(2)  =     4000
 


--------------------------------------------------------------------------------------------------------


 ion  position               nearest neighbor table
   1  0.996  0.248  0.263-  50 2.05  47 2.07  29 2.11  38 2.11  35 2.14  19 2.77
   2  0.250  0.249  0.533-  51 1.95  27 2.05  39 2.05  20 2.73
   3  0.750  0.749  0.531-  49 1.94  42 2.05  30 2.05  14 2.73
   4  0.503  0.248  0.264-  50 2.05  47 2.07  41 2.11  38 2.12  35 2.14  24 2.77
   5  0.005  0.747  0.261-  52 2.06  53 2.08  32 2.11  28 2.11  33 2.12  17 2.79  25 2.85
   6  0.250  0.255  0.969-  31 1.97  45 2.04  57 2.04  55 2.22  43 2.22  13 2.75  25 2.84  26 2.84

   7  0.250  0.751  0.972-  36 1.99  44 2.05  56 2.05  46 2.24  58 2.24  32 2.26  20 2.70
   8  0.750  0.754  0.968-  37 1.97  56 2.03  44 2.03  46 2.23  58 2.23  23 2.73
   9  0.750  0.251  0.974-  34 1.97  45 2.05  57 2.06  43 2.23  55 2.23  14 2.71
  10  0.495  0.747  0.261-  52 2.06  53 2.08  32 2.11  40 2.11  33 2.12  18 2.79  26 2.85
  11  0.000  0.007  0.003-  36 1.84  37 1.84  35 1.87  38 1.87  45 1.98  46 2.04  16 2.76  16 2.77
                            12 2.85  15 2.86  13 2.86  14 2.87
  12  0.250  0.996  0.248-  29 1.84  41 1.85  58 1.86  46 1.87  52 2.01  35 2.04  15 2.77  15 2.77
                            16 2.84  11 2.85  18 2.87  17 2.87
  13  0.250  0.998  0.749-  30 1.85  42 1.85  57 1.86  45 1.86  36 2.01  51 2.03   6 2.75  14 2.77
                            14 2.77  17 2.85  18 2.86  11 2.86  16 2.86
  14  0.750  0.004  0.751-  42 1.84  30 1.84  57 1.86  45 1.87  54 1.95  37 2.00   9 2.71   3 2.73
                            13 2.77  13 2.77  18 2.84  17 2.84  11 2.87  16 2.87
  15  0.750  0.998  0.250-  29 1.85  46 1.86  58 1.86  41 1.86  53 2.09  38 2.09  12 2.77  12 2.77
                            17 2.86  16 2.86  18 2.86  11 2.86
  16  0.500  0.007  0.003-  36 1.84  37 1.85  35 1.86  38 1.87  57 1.99  58 2.04  11 2.76  11 2.77
                            12 2.84  15 2.86  13 2.86  14 2.87
  17  0.999  0.996  0.499-  54 1.84  51 1.84  53 1.87  52 1.87  30 1.96  29 2.01  18 2.76  18 2.77
                             5 2.79  14 2.84  13 2.85  15 2.86  12 2.87
  18  0.501  0.996  0.499-  54 1.84  51 1.84  53 1.87  52 1.87  42 1.96  41 2.00  17 2.76  17 2.77
                            10 2.79  14 2.84  13 2.86  15 2.86  12 2.87
  19  0.001  0.495  0.499-  49 1.83  48 1.84  47 1.86  50 1.87  27 1.95  28 2.01  24 2.76   1 2.77
                            24 2.78  20 2.84  23 2.85  21 2.86  22 2.87
  20  0.250  0.503  0.750-  39 1.84  27 1.84  44 1.87  56 1.87  48 1.94  31 1.99   7 2.70   2 2.73
                            23 2.77  23 2.77  24 2.84  19 2.84  26 2.87  25 2.87
  21  0.250  0.497  0.250-  40 1.85  28 1.85  43 1.85  55 1.85  47 2.15  32 2.17  22 2.77  22 2.77
                            25 2.85  26 2.86  24 2.86  19 2.86
  22  0.750  0.496  0.248-  40 1.84  28 1.85  43 1.87  55 1.87  50 1.99  33 2.04  21 2.77  21 2.77
                            26 2.84  25 2.84  19 2.87  24 2.88
  23  0.750  0.499  0.750-  39 1.85  27 1.85  44 1.86  56 1.86  49 2.05  34 2.05   8 2.73  20 2.77
                            20 2.77  24 2.85  19 2.85  25 2.87  26 2.87
  24  0.499  0.495  0.499-  49 1.83  48 1.84  47 1.86  50 1.87  39 1.95  40 2.01  19 2.76   4 2.77
                            19 2.78  20 2.84  23 2.85  21 2.86  22 2.88
  25  1.000  0.507  0.004-  34 1.83  31 1.85  32 1.86  33 1.87  44 1.98  43 2.03  26 2.77  26 2.77
                             6 2.84  22 2.84   5 2.85  21 2.85  23 2.87  20 2.87
  26  0.500  0.507  0.004-  34 1.83  31 1.85  32 1.86  33 1.87  56 1.98  55 2.03  25 2.77  25 2.77
                             6 2.84  22 2.84  10 2.85  21 2.86  23 2.87  20 2.87
  27  0.003  0.401  0.637-  20 1.84  23 1.85  19 1.95   2 2.05
  28  0.998  0.598  0.362-  22 1.85  21 1.85  19 2.01   5 2.11
  29  0.003  0.098  0.362-  12 1.84  15 1.85  17 2.01   1 2.11
  30  0.996  0.901  0.637-  14 1.84  13 1.85  17 1.96   3 2.05
  31  0.250  0.406  0.890-  25 1.85  26 1.85   6 1.97  20 1.99
  32  0.250  0.618  0.110-  26 1.86  25 1.86  10 2.11   5 2.11  21 2.17   7 2.26
  33  0.750  0.612  0.119-  25 1.87  26 1.87  22 2.04   5 2.12  10 2.12
  34  0.750  0.403  0.898-  26 1.83  25 1.83   9 1.97  23 2.05
  35  0.250  0.111  0.118-  16 1.86  11 1.87  12 2.04   4 2.14   1 2.14
  36  0.250  0.903  0.894-  11 1.84  16 1.84   7 1.99  13 2.01
  37  0.750  0.906  0.891-  11 1.84  16 1.85   8 1.97  14 2.00
  38  0.750  0.114  0.115-  16 1.87  11 1.87  15 2.09   1 2.11   4 2.12
  39  0.497  0.401  0.637-  20 1.84  23 1.85  24 1.95   2 2.05
  40  0.502  0.598  0.362-  22 1.84  21 1.85  24 2.01  10 2.11
  41  0.497  0.098  0.363-  12 1.85  15 1.86  18 2.00   4 2.11
  42  0.504  0.901  0.637-  14 1.84  13 1.85  18 1.96   3 2.05
  43  0.003  0.394  0.134-  21 1.85  22 1.87  25 2.03   6 2.22   9 2.23
  44  0.997  0.604  0.865-  23 1.86  20 1.87  25 1.98   8 2.03   7 2.05
  45  0.003  0.105  0.865-  13 1.86  14 1.87  11 1.98   6 2.04   9 2.05
  46  0.997  0.894  0.134-  15 1.86  12 1.87  11 2.04   8 2.23   7 2.24
  47  0.250  0.384  0.393-  19 1.86  24 1.86   4 2.07   1 2.07  21 2.15
  48  0.250  0.596  0.612-  24 1.84  19 1.84  20 1.94
  49  0.750  0.599  0.605-  19 1.83  24 1.83   3 1.94  23 2.05
  50  0.750  0.393  0.382-  24 1.87  19 1.87  22 1.99   4 2.05   1 2.05
  51  0.250  0.098  0.608-  17 1.84  18 1.84   2 1.95  13 2.03
  52  0.250  0.893  0.384-  18 1.87  17 1.87  12 2.01   5 2.06  10 2.06
  53  0.750  0.887  0.388-  18 1.87  17 1.87   5 2.08  10 2.08  15 2.09
  54  0.750  0.096  0.611-  17 1.84  18 1.84  14 1.95
  55  0.496  0.394  0.133-  21 1.85  22 1.87  26 2.03   6 2.22   9 2.23
  56  0.504  0.604  0.865-  23 1.86  20 1.87  26 1.98   8 2.03   7 2.05
  57  0.497  0.105  0.864-  13 1.86  14 1.86  16 1.99   6 2.04   9 2.06
  58  0.502  0.894  0.134-  15 1.86  12 1.86  16 2.04   8 2.23   7 2.24
 
  LATTYP: Found a triclinic cell.
 ALAT       =    11.4268276764
 B/A-ratio  =     0.4842412747
 C/A-ratio  =     1.0012503176
 COS(alpha) =     0.0000473384
 COS(beta)  =     0.4803985623
 COS(gamma) =     0.4843839149
  
  Lattice vectors:
  
 A1 = (  -9.9972745260,   5.5341464822,   0.0107476047)
 A2 = (  -0.0004564909,   5.5333415785,   0.0001573217)
 A3 = (  -6.2923436403,   0.0002941723,  -9.5553922061)


Analysis of symmetry for initial positions (statically):
=====================================================================
 Subroutine PRICEL returns:
 Original cell was already a primitive cell.
 

 Routine SETGRP: Setting up the symmetry group for a 
 triclinic supercell.


 Subroutine GETGRP returns: Found  1 space group operations
 (whereof  1 operations were pure point group operations)
 out of a pool of  2 trial point group operations.


The static configuration has the point symmetry C_1 .


Analysis of symmetry for dynamics (positions and initial velocities):
=====================================================================
 Subroutine PRICEL returns:
 Original cell was already a primitive cell.
 

 Routine SETGRP: Setting up the symmetry group for a 
 triclinic supercell.


 Subroutine GETGRP returns: Found  1 space group operations
 (whereof  1 operations were pure point group operations)
 out of a pool of  2 trial point group operations.


The dynamic configuration has the point symmetry C_1 .


Analysis of structural, dynamic, and magnetic symmetry:
=====================================================================
 Subroutine PRICEL returns:
 Original cell was already a primitive cell.
 

 Routine SETGRP: Setting up the symmetry group for a 
 triclinic supercell.


 Subroutine GETGRP returns: Found  1 space group operations
 (whereof  1 operations were pure point group operations)
 out of a pool of  2 trial point group operations.


The magnetic configuration has the point symmetry C_1 .


 Subroutine INISYM returns: Found  1 space group operations
 (whereof  1 operations are pure point group operations),
 and found     1 'primitive' translations

 
 
 KPOINTS: Automatic mesh                          

Automatic generation of k-mesh.
Space group operators:
 irot       det(A)        alpha          n_x          n_y          n_z        tau_x        tau_y        tau_z
    1     1.000000     0.000000     1.000000     0.000000     0.000000     0.000000     0.000000     0.000000
 
 Subroutine IBZKPT returns following result:
 ===========================================
 
 Found      1 irreducible k-points:
 
 Following reciprocal coordinates:
            Coordinates               Weight
  0.000000  0.000000  0.000000      1.000000
 
 Following cartesian coordinates:
            Coordinates               Weight
  0.000000  0.000000  0.000000      1.000000
 


--------------------------------------------------------------------------------------------------------




 Dimension of arrays:
   k-points           NKPTS =      1   k-points in BZ     NKDIM =      1   number of bands    NBANDS=    256
   number of dos      NEDOS =    301   number of ions     NIONS =     58
   non local maximal  LDIM  =      6   non local SUM 2l+1 LMDIM =     18
   total plane-waves  NPLWV = 256000
   max r-space proj   IRMAX =   6547   max aug-charges    IRDMAX=  15886
   dimension x,y,z NGX =    40 NGY =   80 NGZ =   80
   dimension x,y,z NGXF=    80 NGYF=  160 NGZF=  160
   support grid    NGXF=    80 NGYF=  160 NGZF=  160
   ions per type =              10  16  32
   NGX,Y,Z   is equivalent  to a cutoff of  12.02, 12.96, 13.30 a.u.
   NGXF,Y,Z  is equivalent  to a cutoff of  24.04, 25.93, 26.61 a.u.

 SYSTEM =  unknown system                          
 POSCAR =  ce8515_1                                

 Startparameter for this run:
   NWRITE =      1    write-flag & timer
   PREC   = accura    normal or accurate (medium, high low for compatibility)
   ISTART =      0    job   : 0-new  1-cont  2-samecut
   ICHARG =      2    charge: 1-file 2-atom 10-const
   ISPIN  =      2    spin polarized calculation?
   LNONCOLLINEAR =      F non collinear calculations
   LSORBIT =      F    spin-orbit coupling
   INIWAV =      1    electr: 0-lowe 1-rand  2-diag
   LASPH  =      F    aspherical Exc in radial PAW
   METAGGA=      F    non-selfconsistent MetaGGA calc.

 Electronic Relaxation 1
   ENCUT  =  500.0 eV  36.75 Ry    6.06 a.u.  10.09 18.70 18.23*2*pi/ulx,y,z
   ENINI  =  500.0     initial cutoff
   ENAUG  =  628.9 eV  augmentation charge cutoff
   NELM   =     80;   NELMIN=  2; NELMDL= -5     # of ELM steps 
   EDIFF  = 0.1E-04   stopping-criterion for ELM
   LREAL  =      T    real-space projection
   NLSPLINE    = F    spline interpolate recip. space projectors
   LCOMPAT=      F    compatible to vasp.4.4
   GGA_COMPAT  = T    GGA compatible to vasp.4.4-vasp.4.6
   LMAXPAW     = -100 max onsite density
   LMAXMIX     =    2 max onsite mixed and CHGCAR
   VOSKOWN=      1    Vosko Wilk Nusair interpolation
   ROPT   =   -0.00025  -0.00025  -0.00025
 Ionic relaxation
   EDIFFG = -.2E-01   stopping-criterion for IOM
   NSW    =     20    number of steps for IOM
   NBLOCK =      1;   KBLOCK =     20    inner block; outer block 
   IBRION =      1    ionic relax: 0-MD 1-quasi-New 2-CG
   NFREE  =      0    steps in history (QN), initial steepest desc. (CG)
   ISIF   =      3    stress and relaxation
   IWAVPR =     11    prediction:  0-non 1-charg 2-wave 3-comb
   ISYM   =      2    0-nonsym 1-usesym 2-fastsym
   LCORR  =      T    Harris-Foulkes like correction to forces

   POTIM  = 0.5000    time-step for ionic-motion
   TEIN   =    0.0    initial temperature
   TEBEG  =    0.0;   TEEND  =   0.0 temperature during run
   SMASS  =  -3.00    Nose mass-parameter (am)
   estimated Nose-frequenzy (Omega)   =  0.10E-29 period in steps =****** mass=  -0.700E-27a.u.
   SCALEE = 1.0000    scale energy and forces
   NPACO  =    256;   APACO  = 16.0  distance and # of slots for P.C.
   PSTRESS=    0.0 pullay stress

  Mass of Ions in am
   POMASS =   7.01 58.69 16.00
  Ionic Valenz
   ZVAL   =   3.00 10.00  6.00
  Atomic Wigner-Seitz radii
   RWIGS  =   1.23  1.15  0.73
  virtual crystal weights 
   VCA    =   1.00  1.00  1.00
   NELECT =     382.0000    total number of electrons
   NUPDOWN=      -1.0000    fix difference up-down

 DOS related values:
   EMIN   =  10.00;   EMAX   =-10.00  energy-range for DOS
   EFERMI =   0.00
   ISMEAR =     0;   SIGMA  =   0.05  broadening in eV -4-tet -1-fermi 0-gaus

 Electronic relaxation 2 (details)
   IALGO  =     38    algorithm
   LDIAG  =      T    sub-space diagonalisation (order eigenvalues)
   LSUBROT=      F    optimize rotation matrix (better conditioning)
   TURBO    =      0    0=normal 1=particle mesh
   IRESTART =      0    0=no restart 2=restart with 2 vectors
   NREBOOT  =      0    no. of reboots
   NMIN     =      0    reboot dimension
   EREF     =   0.00    reference energy to select bands
   IMIX   =      4    mixing-type and parameters
     AMIX     =   0.40;   BMIX     =  1.00
     AMIX_MAG =   1.60;   BMIX_MAG =  1.00
     AMIN     =   0.10
     WC   =   100.;   INIMIX=   1;  MIXPRE=   1;  MAXMIX= -45

 Intra band minimization:
   WEIMIN = 0.0010     energy-eigenvalue tresh-hold
   EBREAK =  0.98E-08  absolut break condition
   DEPER  =   0.30     relativ break condition  

   TIME   =   0.40     timestep for ELM

  volume/ion in A,a.u.               =       9.12        61.54
  Fermi-wavevector in a.u.,A,eV,Ry     =   1.468799  2.775628 29.352813  2.157371
  Thomas-Fermi vector in A             =   2.584253
 
 Write flags
   LWAVE        =      F    write WAVECAR
   LDOWNSAMPLE  =      F    k-point downsampling of WAVECAR
   LCHARG       =      T    write CHGCAR
   LVTOT        =      F    write LOCPOT, total local potential
   LVHAR        =      F    write LOCPOT, Hartree potential only
   LELF         =      F    write electronic localiz. function (ELF)
   LORBIT       =      0    0 simple, 1 ext, 2 COOP (PROOUT), +10 PAW based schemes


 Dipole corrections
   LMONO  =      F    monopole corrections only (constant potential shift)
   LDIPOL =      F    correct potential (dipole corrections)
   IDIPOL =      0    1-x, 2-y, 3-z, 4-all directions 
   EPSILON=  1.0000000 bulk dielectric constant

 Exchange correlation treatment:
   GGA     =    PS    GGA type
   LEXCH   =    14    internal setting for exchange type
   VOSKOWN=      1    Vosko Wilk Nusair interpolation
   LHFCALC =     F    Hartree Fock is set to
   LHFONE  =     F    Hartree Fock one center treatment
   AEXX    =    0.0000 exact exchange contribution

 Linear response parameters
   LEPSILON=     F    determine dielectric tensor
   LRPA    =     F    only Hartree local field effects (RPA)
   LNABLA  =     F    use nabla operator in PAW spheres
   LVEL    =     F    velocity operator in full k-point grid
   LINTERFAST=   F  fast interpolation
   KINTER  =     0    interpolate to denser k-point grid
   CSHIFT  =0.1000    complex shift for real part using Kramers Kronig
   OMEGAMAX=  -1.0    maximum frequency
   DEG_THRESHOLD= 0.2000000E-02 threshold for treating states as degnerate
   RTIME   =   -0.100 relaxation time in fs
  (WPLASMAI=    0.000 imaginary part of plasma frequency in eV, 0.658/RTIME)
   DFIELD  = 0.0000000 0.0000000 0.0000000 field for delta impulse in time
 
 Orbital magnetization related:
   ORBITALMAG=     F  switch on orbital magnetization
   LCHIMAG   =     F  perturbation theory with respect to B field
   DQ        =  0.001000  dq finite difference perturbation B field
   LLRAUG    =     F  two centre corrections for induced B field



--------------------------------------------------------------------------------------------------------


 quasi-Newton-method for relaxation of ions
 charge density and potential will be updated during run
 spin polarized calculation
 Variant of blocked Davidson
 Davidson routine will perform the subspace rotation
 perform sub-space diagonalisation
    after iterative eigenvector-optimisation
 modified Broyden-mixing scheme, WC =      100.0
 initial mixing is a Kerker type mixing with AMIX =  0.4000 and BMIX =      1.0000
 Hartree-type preconditioning will be used
 using additional bands           65
 real space projection scheme for non local part
 use partial core corrections
 calculate Harris-corrections to forces 
   (improved forces if not selfconsistent)
 use gradient corrections 
 use of overlap-Matrix (Vanderbilt PP)
 Gauss-broadening in eV      SIGMA  =   0.05


--------------------------------------------------------------------------------------------------------


  energy-cutoff  :      500.00
  volume of cell :      528.93
      direct lattice vectors                 reciprocal lattice vectors
    -0.000456491  5.533341578  0.000157322     0.000014547  0.180722624 -0.000004016
    -3.704474395  0.000510731  9.565982489     0.000110788 -0.000002964  0.104579996
     9.996818035 -0.000804904 -0.010590283     0.100072885  0.000007154  0.038753723

  length of vectors
     5.533341600 10.258223617  9.996823677     0.180722624  0.104580055  0.107314646


 
 k-points in units of 2pi/SCALE and weight: Automatic mesh                          
   0.00000000  0.00000000  0.00000000       1.000
 
 k-points in reciprocal lattice and weights: Automatic mesh                          
   0.00000000  0.00000000  0.00000000       1.000
 
 position of ions in fractional coordinates (direct lattice) 
   0.99626657  0.24787914  0.26343816
   0.25002561  0.24921587  0.53253645
   0.75023788  0.74933852  0.53126375
   0.50314172  0.24824194  0.26363554
   0.00480896  0.74708039  0.26108884
   0.24976322  0.25523536  0.96858116
   0.24980918  0.75083888  0.97232352
   0.75025182  0.75384344  0.96797118
   0.75014628  0.25111503  0.97365686
   0.49502423  0.74674680  0.26132879
   0.00019892  0.00666469  0.00284212
   0.25017060  0.99645824  0.24777118
   0.24967784  0.99838263  0.74938185
   0.74975586  0.00359482  0.75052564
   0.75026961  0.99804092  0.24959860
   0.49978515  0.00702415  0.00317667
   0.99941140  0.99551002  0.49894351
   0.50065853  0.99555715  0.49883688
   0.00104597  0.49529133  0.49923327
   0.25010524  0.50347042  0.75043605
   0.25006773  0.49741667  0.24966939
   0.74992880  0.49593365  0.24770224
   0.75000720  0.49892277  0.74960818
   0.49899342  0.49530459  0.49928119
   0.99986524  0.50713067  0.00366782
   0.50016569  0.50708881  0.00363449
   0.00312142  0.40066792  0.63715026
   0.99764484  0.59781208  0.36161238
   0.00284939  0.09804409  0.36205624
   0.99632782  0.90072809  0.63737307
   0.24996454  0.40626063  0.89008649
   0.25007215  0.61755699  0.10987417
   0.75008930  0.61168312  0.11949049
   0.75003573  0.40309617  0.89768629
   0.25003506  0.11058274  0.11811744
   0.24977704  0.90336418  0.89392335
   0.75023187  0.90603971  0.89112996
   0.75014051  0.11390737  0.11537994
   0.49703675  0.40097783  0.63718458
   0.50249119  0.59755191  0.36166705
   0.49691984  0.09847129  0.36257036
   0.50408595  0.90060523  0.63680911
   0.00338336  0.39428900  0.13360448
   0.99655105  0.60432152  0.86455173
   0.00296114  0.10486395  0.86461327
   0.99734151  0.89399352  0.13386523
   0.24992667  0.38397027  0.39347473
   0.25003619  0.59572285  0.61215312
   0.75008075  0.59854047  0.60512287
   0.74994354  0.39283624  0.38239355
   0.24996168  0.09816132  0.60768928
   0.25001437  0.89261994  0.38352666
   0.74998904  0.88675504  0.38791059
   0.75001935  0.09555999  0.61057445
   0.49648392  0.39419921  0.13341935
   0.50360123  0.60448639  0.86478338
   0.49685589  0.10486982  0.86399498
   0.50244426  0.89419228  0.13428488
 
 position of ions in cartesian coordinates  (Angst):
   1.71482664  5.51259779  2.36857436
   4.40034204  1.38317575  2.37839427
   2.53469920  4.15127755  7.16265096
   1.71568093  2.78396958  2.37196523
  -0.15748475  0.02678102  7.14379368
   8.73710274  1.38137595  2.43135873
   6.93856386  1.38188037  7.17225370
   6.88369555  4.15100548  7.20112009
   8.80287882  4.15016015  2.39196869
  -0.15407401  2.73930920  7.14067714
   0.00372289  0.00110181  0.06372424
  -1.21454484  1.38458887  9.52951747
   3.79283713  1.38145950  9.54261387
   7.48920908  4.14805301  0.02655766
  -1.20236774  4.15180686  9.54471668
   0.00550766  2.76548298  0.06723788
   1.29954988  5.53019149  9.51790470
   1.29853700  2.77042161  9.51827820
   3.15594963  0.00563884  4.73266133
   5.63676519  1.38357083  4.80828124
   0.65311799  1.38376325  4.75567443
   0.63871838  4.14966612  4.74158735
   5.64510758  4.14969748  4.76486591
   3.15615225  2.76095213  4.73286601
  -1.84244248  5.53285196  4.85132157
  -1.84239250  2.76784367  4.85084287
   4.88520973  0.01696367  3.82603520
   1.39993820  5.52032393  5.71498726
   3.25620723  0.01552530  0.93405422
   3.03452364  5.51296916  8.60975592
   7.39293647  1.38263024  3.87689513
  -1.18944613  1.38396159  5.90641510
  -1.07178218  4.15071654  5.85020258
   7.48040467  4.14968721  3.84662215
   0.77103349  1.38349080  1.05662099
   5.58978557  1.38184354  8.63213832
   5.55172068  4.15103467  8.65784071
   0.73112290  4.15074898  1.08853201
   4.88417930  2.74996603  3.82907713
   1.40167456  2.78046948  5.71242000
   3.25953870  2.74938567  0.93821309
   3.02956567  2.78922714  8.60850917
  -0.12501537  0.01881512  3.77034729
   6.40361781  5.51387013  5.77193001
   8.25491436  0.01574263  0.99397068
  -1.97400504  5.51898009  8.55066559
   2.51097315  1.38280903  3.66892519
   3.91262917  1.38334718  5.69223081
   3.83168297  4.15027163  5.71933724
   2.36712460  4.14958662  3.75393292
   5.71120895  1.38268436  0.93261319
   0.52724439  1.38356210  8.53476439
   0.59256788  4.15008620  8.47869309
   5.74945976  4.14967061  0.90777703
  -0.12675856  2.74730906  3.76956790
   6.40554785  2.78621029  5.77342715
   8.24848623  2.74863148  0.99411108
  -1.97032026  2.78054432  8.55248462
 


--------------------------------------------------------------------------------------------------------


 use serial FFT for orbitals x direction half grid
 k-point  1 :   0.0000 0.0000 0.0000  plane waves:    6698

 maximum and minimum number of plane-waves per node :      6698     6698

 maximum number of plane-waves:      6698
 maximum index in each direction: 
   IXMAX=   10   IYMAX=   18   IZMAX=   18
   IXMIN=    0   IYMIN=  -18   IZMIN=  -18

 The following grids will avoid any aliasing or wrap around errors in the Hartre
 e energy
  - symmetry arguments have not been applied
  - exchange correlation energies might require even more grid points
  - we recommend to set PREC=Normal or Accurate and rely on VASP defaults
 WARNING: aliasing errors must be expected set NGX to    42 to avoid them
 NGY is ok and might be reduce to    80
 NGZ is ok and might be reduce to    80

 serial   3D FFT for wavefunctions
 parallel 3D FFT for charge:
    minimum data exchange during FFTs selected (reduces bandwidth)


 total amount of memory used by VASP MPI-rank0    94883. kBytes
=======================================================================

   base      :      30000. kBytes
   nonlr-proj:      23014. kBytes
   fftplans  :       5418. kBytes
   grid      :      31961. kBytes
   one-center:        902. kBytes
   wavefun   :       3588. kBytes
 
     INWAV:  cpu time    0.0000: real time    0.0000
 Broyden mixing: mesh for mixing (old mesh)
   NGX = 21   NGY = 37   NGZ = 37
  (NGX  = 80   NGY  =160   NGZ  =160)
  gives a total of  28749 points

 initial charge density was supplied:
 charge density of overlapping atoms calculated
 number of electron     382.0000000 magnetization      40.0000000
 keeping initial charge density in first step


--------------------------------------------------------------------------------------------------------


 Maximum index for non-local projection operator         6333
 Maximum index for augmentation-charges         1100 (set IRDMAX)


--------------------------------------------------------------------------------------------------------


 First call to EWALD:  gamma=   0.219
 Maximum number of real-space cells 4x 2x 2
 Maximum number of reciprocal cells 2x 3x 3

    FEWALD:  cpu time    0.0037: real time    0.0038


--------------------------------------- Iteration      1(   1)  ---------------------------------------


    POTLOK:  cpu time    0.1806: real time    0.1971
    SETDIJ:  cpu time    0.0212: real time    0.0213
     EDDAV:  cpu time    1.8738: real time    1.8945
    --------------------------------------------
      LOOP:  cpu time    2.0761: real time    2.1134

 eigenvalue-minimisations  :  1040
 total energy-change (2. order) : 0.6670475E+04  (-0.1698220E+05)
 number of electron     382.0000000 magnetization      40.0000000
 augmentation part      382.0000000 magnetization      40.0000000

 Free energy of the ion-electron system (eV)
  ---------------------------------------------------
  alpha Z        PSCENC =      1179.95452451
  Ewald energy   TEWEN  =    -22526.15462626
  -Hartree energ DENC   =    -11187.66110059
  -exchange      EXHF   =         0.00000000
  -V(xc)+E(xc)   XCENC  =      1556.21013624
  PAW double counting   =     27261.33954750   -28529.28305776
  entropy T*S    EENTRO =        -0.00347420
  eigenvalues    EBANDS =      5892.22752368
  atomic energy  EATOM  =     33023.84575915
  Solvation  Ediel_sol  =         0.00000000
  ---------------------------------------------------
  free energy    TOTEN  =      6670.47523228 eV

  energy without entropy =     6670.47870648  energy(sigma->0) =     6670.47696938


--------------------------------------------------------------------------------------------------------




--------------------------------------- Iteration      1(   2)  ---------------------------------------


     EDDAV:  cpu time    2.1005: real time    2.1055
    --------------------------------------------
      LOOP:  cpu time    2.1003: real time    2.1053

 eigenvalue-minimisations  :  1072
 total energy-change (2. order) :-0.5385586E+04  (-0.4816499E+04)
 number of electron     382.0000000 magnetization      40.0000000
 augmentation part      382.0000000 magnetization      40.0000000

 Free energy of the ion-electron system (eV)
  ---------------------------------------------------
  alpha Z        PSCENC =      1179.95452451
  Ewald energy   TEWEN  =    -22526.15462626
  -Hartree energ DENC   =    -11187.66110059
  -exchange      EXHF   =         0.00000000
  -V(xc)+E(xc)   XCENC  =      1556.21013624
  PAW double counting   =     27261.33954750   -28529.28305776
  entropy T*S    EENTRO =        -0.02529973
  eigenvalues    EBANDS =       506.66378303
  atomic energy  EATOM  =     33023.84575915
  Solvation  Ediel_sol  =         0.00000000
  ---------------------------------------------------
  free energy    TOTEN  =      1284.88966610 eV

  energy without entropy =     1284.91496582  energy(sigma->0) =     1284.90231596


--------------------------------------------------------------------------------------------------------




--------------------------------------- Iteration      1(   3)  ---------------------------------------


     EDDAV:  cpu time    2.2213: real time    2.2266
    --------------------------------------------
      LOOP:  cpu time    2.2213: real time    2.2266

 eigenvalue-minimisations  :  1152
 total energy-change (2. order) :-0.1498929E+04  (-0.1236541E+04)
 number of electron     382.0000000 magnetization      40.0000000
 augmentation part      382.0000000 magnetization      40.0000000

 Free energy of the ion-electron system (eV)
  ---------------------------------------------------
  alpha Z        PSCENC =      1179.95452451
  Ewald energy   TEWEN  =    -22526.15462626
  -Hartree energ DENC   =    -11187.66110059
  -exchange      EXHF   =         0.00000000
  -V(xc)+E(xc)   XCENC  =      1556.21013624
  PAW double counting   =     27261.33954750   -28529.28305776
  entropy T*S    EENTRO =        -0.07580198
  eigenvalues    EBANDS =      -992.21477295
  atomic energy  EATOM  =     33023.84575915
  Solvation  Ediel_sol  =         0.00000000
  ---------------------------------------------------
  free energy    TOTEN  =      -214.03939214 eV

  energy without entropy =     -213.96359016  energy(sigma->0) =     -214.00149115


--------------------------------------------------------------------------------------------------------




--------------------------------------- Iteration      1(   4)  ---------------------------------------


     EDDAV:  cpu time    2.3126: real time    2.3181
    --------------------------------------------
      LOOP:  cpu time    2.3126: real time    2.3181

 eigenvalue-minimisations  :  1216
 total energy-change (2. order) :-0.2370610E+03  (-0.2293605E+03)
 number of electron     382.0000000 magnetization      40.0000000
 augmentation part      382.0000000 magnetization      40.0000000

 Free energy of the ion-electron system (eV)
  ---------------------------------------------------
  alpha Z        PSCENC =      1179.95452451
  Ewald energy   TEWEN  =    -22526.15462626
  -Hartree energ DENC   =    -11187.66110059
  -exchange      EXHF   =         0.00000000
  -V(xc)+E(xc)   XCENC  =      1556.21013624
  PAW double counting   =     27261.33954750   -28529.28305776
  entropy T*S    EENTRO =        -0.01255950
  eigenvalues    EBANDS =     -1229.33904992
  atomic energy  EATOM  =     33023.84575915
  Solvation  Ediel_sol  =         0.00000000
  ---------------------------------------------------
  free energy    TOTEN  =      -451.10042662 eV

  energy without entropy =     -451.08786712  energy(sigma->0) =     -451.09414687


--------------------------------------------------------------------------------------------------------




--------------------------------------- Iteration      1(   5)  ---------------------------------------


     EDDAV:  cpu time    3.0233: real time    3.0305
    CHARGE:  cpu time    0.1308: real time    0.1311
    MIXING:  cpu time    0.0038: real time    0.0038
    --------------------------------------------
      LOOP:  cpu time    3.1576: real time    3.1651

 eigenvalue-minimisations  :  1696
 total energy-change (2. order) :-0.1233612E+02  (-0.1221447E+02)
 number of electron     382.0000203 magnetization      39.0383801
 augmentation part      114.7841134 magnetization      29.9581450

 Broyden mixing:
  rms(total) = 0.11523E+02    rms(broyden)= 0.11522E+02
  rms(prec ) = 0.14455E+02
  weight for this iteration     100.00

 Free energy of the ion-electron system (eV)
  ---------------------------------------------------
  alpha Z        PSCENC =      1179.95452451
  Ewald energy   TEWEN  =    -22526.15462626
  -Hartree energ DENC   =    -11187.66110059
  -exchange      EXHF   =         0.00000000
  -V(xc)+E(xc)   XCENC  =      1556.21013624
  PAW double counting   =     27261.33954750   -28529.28305776
  entropy T*S    EENTRO =        -0.01230006
  eigenvalues    EBANDS =     -1241.67543241
  atomic energy  EATOM  =     33023.84575915
  Solvation  Ediel_sol  =         0.00000000
  ---------------------------------------------------
  free energy    TOTEN  =      -463.43654968 eV

  energy without entropy =     -463.42424962  energy(sigma->0) =     -463.43039965


--------------------------------------------------------------------------------------------------------




--------------------------------------- Iteration      1(   6)  ---------------------------------------


    POTLOK:  cpu time    0.1519: real time    0.1523
    SETDIJ:  cpu time    0.0206: real time    0.0206
     EDDAV:  cpu time    2.8612: real time    2.8680
    CHARGE:  cpu time    0.1249: real time    0.1252
    MIXING:  cpu time    0.0040: real time    0.0040
    --------------------------------------------
      LOOP:  cpu time    3.1626: real time    3.1702

 eigenvalue-minimisations  :  1584
 total energy-change (2. order) :-0.1054605E+03  (-0.1440025E+03)
 number of electron     382.0000208 magnetization      35.6817388
 augmentation part      137.2276307 magnetization      33.0816790

 Broyden mixing:
  rms(total) = 0.24213E+02    rms(broyden)= 0.24213E+02
  rms(prec ) = 0.27284E+02
  weight for this iteration     100.00

 eigenvalues of (default mixing * dielectric matrix)
  average eigenvalue GAMMA=   0.1602
  0.1602

 Free energy of the ion-electron system (eV)
  ---------------------------------------------------
  alpha Z        PSCENC =      1179.95452451
  Ewald energy   TEWEN  =    -22526.15462626
  -Hartree energ DENC   =    -10710.65160092
  -exchange      EXHF   =         0.00000000
  -V(xc)+E(xc)   XCENC  =      1562.84562256
  PAW double counting   =     30087.52012421   -31189.87255987
  entropy T*S    EENTRO =        -0.04025333
  eigenvalues    EBANDS =     -1996.34407117
  atomic energy  EATOM  =     33023.84575915
  Solvation  Ediel_sol  =         0.00000000
  ---------------------------------------------------
  free energy    TOTEN  =      -568.89708112 eV

  energy without entropy =     -568.85682779  energy(sigma->0) =     -568.87695445


--------------------------------------------------------------------------------------------------------




--------------------------------------- Iteration      1(   7)  ---------------------------------------


    POTLOK:  cpu time    0.1507: real time    0.1510
    SETDIJ:  cpu time    0.0221: real time    0.0221
     EDDAV:  cpu time    2.4755: real time    2.4814
    CHARGE:  cpu time    0.0998: real time    0.1000
    MIXING:  cpu time    0.0033: real time    0.0033
    --------------------------------------------
      LOOP:  cpu time    2.7513: real time    2.7578

 eigenvalue-minimisations  :  1472
 total energy-change (2. order) : 0.1258415E+03  (-0.3627187E+02)
 number of electron     382.0000208 magnetization      29.5607944
 augmentation part      139.3134909 magnetization      26.7409679

 Broyden mixing:
  rms(total) = 0.11428E+02    rms(broyden)= 0.11428E+02
  rms(prec ) = 0.13298E+02
  weight for this iteration     100.00

 eigenvalues of (default mixing * dielectric matrix)
  average eigenvalue GAMMA=   0.4166
  0.4166  0.4166

 Free energy of the ion-electron system (eV)
  ---------------------------------------------------
  alpha Z        PSCENC =      1179.95452451
  Ewald energy   TEWEN  =    -22526.15462626
  -Hartree energ DENC   =    -10784.00464510
  -exchange      EXHF   =         0.00000000
  -V(xc)+E(xc)   XCENC  =      1556.44620144
  PAW double counting   =     30979.08274869   -32144.87750007
  entropy T*S    EENTRO =        -0.02983705
  eigenvalues    EBANDS =     -1727.31817664
  atomic energy  EATOM  =     33023.84575915
  Solvation  Ediel_sol  =         0.00000000
  ---------------------------------------------------
  free energy    TOTEN  =      -443.05555133 eV

  energy without entropy =     -443.02571428  energy(sigma->0) =     -443.04063281


--------------------------------------------------------------------------------------------------------




--------------------------------------- Iteration      1(   8)  ---------------------------------------


    POTLOK:  cpu time    0.1368: real time    0.1371
    SETDIJ:  cpu time    0.0218: real time    0.0218
     EDDAV:  cpu time    2.0953: real time    2.1003
    CHARGE:  cpu time    0.1136: real time    0.1139
    MIXING:  cpu time    0.0035: real time    0.0035
    --------------------------------------------
      LOOP:  cpu time    2.3710: real time    2.3766

 eigenvalue-minimisations  :  1456
 total energy-change (2. order) : 0.7464067E+01  (-0.2585985E+02)
 number of electron     382.0000173 magnetization      26.0593199
 augmentation part      120.9529120 magnetization      24.7952398

 Broyden mixing:
  rms(total) = 0.14283E+02    rms(broyden)= 0.14282E+02
  rms(prec ) = 0.21159E+02
  weight for this iteration     100.00

 eigenvalues of (default mixing * dielectric matrix)
  average eigenvalue GAMMA=   0.4372
  0.5599  0.5599  0.1918

 Free energy of the ion-electron system (eV)
  ---------------------------------------------------
  alpha Z        PSCENC =      1179.95452451
  Ewald energy   TEWEN  =    -22526.15462626
  -Hartree energ DENC   =    -10987.06141225
  -exchange      EXHF   =         0.00000000
  -V(xc)+E(xc)   XCENC  =      1550.84389979
  PAW double counting   =     32166.12524063   -33456.39792551
  entropy T*S    EENTRO =        -0.05254767
  eigenvalues    EBANDS =     -1386.69439667
  atomic energy  EATOM  =     33023.84575915
  Solvation  Ediel_sol  =         0.00000000
  ---------------------------------------------------
  free energy    TOTEN  =      -435.59148428 eV

  energy without entropy =     -435.53893661  energy(sigma->0) =     -435.56521045


--------------------------------------------------------------------------------------------------------




--------------------------------------- Iteration      1(   9)  ---------------------------------------


    POTLOK:  cpu time    0.1414: real time    0.1418
    SETDIJ:  cpu time    0.0210: real time    0.0211
     EDDAV:  cpu time    2.0460: real time    2.0509
    CHARGE:  cpu time    0.1005: real time    0.1008
    MIXING:  cpu time    0.0036: real time    0.0036
    --------------------------------------------
      LOOP:  cpu time    2.3126: real time    2.3181

 eigenvalue-minimisations  :  1472
 total energy-change (2. order) : 0.3717129E+02  (-0.3416216E+02)
 number of electron     382.0000195 magnetization      20.6303209
 augmentation part      124.2102753 magnetization      18.4228562

 Broyden mixing:
  rms(total) = 0.87315E+01    rms(broyden)= 0.87304E+01
  rms(prec ) = 0.10774E+02
  weight for this iteration     100.00

 eigenvalues of (default mixing * dielectric matrix)
  average eigenvalue GAMMA=   0.4033
  0.6064  0.6064  0.2832  0.1171

 Free energy of the ion-electron system (eV)
  ---------------------------------------------------
  alpha Z        PSCENC =      1179.95452451
  Ewald energy   TEWEN  =    -22526.15462626
  -Hartree energ DENC   =    -10936.21546389
  -exchange      EXHF   =         0.00000000
  -V(xc)+E(xc)   XCENC  =      1548.22766156
  PAW double counting   =     32573.49213389   -33863.49063792
  entropy T*S    EENTRO =        -0.04188525
  eigenvalues    EBANDS =     -1398.03765829
  atomic energy  EATOM  =     33023.84575915
  Solvation  Ediel_sol  =         0.00000000
  ---------------------------------------------------
  free energy    TOTEN  =      -398.42019250 eV

  energy without entropy =     -398.37830725  energy(sigma->0) =     -398.39924988


--------------------------------------------------------------------------------------------------------




--------------------------------------- Iteration      1(  10)  ---------------------------------------


    POTLOK:  cpu time    0.1311: real time    0.1314
    SETDIJ:  cpu time    0.0203: real time    0.0203
     EDDAV:  cpu time    2.0314: real time    2.0362
    CHARGE:  cpu time    0.1076: real time    0.1079
    MIXING:  cpu time    0.0039: real time    0.0039
    --------------------------------------------
      LOOP:  cpu time    2.2942: real time    2.2997

 eigenvalue-minimisations  :  1440
 total energy-change (2. order) : 0.1287267E+02  (-0.1809948E+02)
 number of electron     382.0000208 magnetization      16.9264794
 augmentation part      125.2355565 magnetization      14.0403722

 Broyden mixing:
  rms(total) = 0.78293E+01    rms(broyden)= 0.78288E+01
  rms(prec ) = 0.10341E+02
  weight for this iteration     100.00

 eigenvalues of (default mixing * dielectric matrix)
  average eigenvalue GAMMA=   0.3904
  0.6052  0.6052  0.2824  0.2824  0.1765

 Free energy of the ion-electron system (eV)
  ---------------------------------------------------
  alpha Z        PSCENC =      1179.95452451
  Ewald energy   TEWEN  =    -22526.15462626
  -Hartree energ DENC   =    -10893.94305665
  -exchange      EXHF   =         0.00000000
  -V(xc)+E(xc)   XCENC  =      1545.85099192
  PAW double counting   =     33446.47740380   -34750.61101259
  entropy T*S    EENTRO =        -0.05436237
  eigenvalues    EBANDS =     -1410.91314828
  atomic energy  EATOM  =     33023.84575915
  Solvation  Ediel_sol  =         0.00000000
  ---------------------------------------------------
  free energy    TOTEN  =      -385.54752678 eV

  energy without entropy =     -385.49316441  energy(sigma->0) =     -385.52034559


--------------------------------------------------------------------------------------------------------




--------------------------------------- Iteration      1(  11)  ---------------------------------------


    POTLOK:  cpu time    0.1341: real time    0.1344
    SETDIJ:  cpu time    0.0215: real time    0.0215
     EDDAV:  cpu time    1.9076: real time    1.9121
    CHARGE:  cpu time    0.1022: real time    0.1024
    MIXING:  cpu time    0.0039: real time    0.0039
    --------------------------------------------
      LOOP:  cpu time    2.1692: real time    2.1744

 eigenvalue-minimisations  :  1296
 total energy-change (2. order) : 0.1971251E+02  (-0.7056479E+01)
 number of electron     382.0000198 magnetization      13.3463680
 augmentation part      126.2344205 magnetization      10.9412650

 Broyden mixing:
  rms(total) = 0.47187E+01    rms(broyden)= 0.47182E+01
  rms(prec ) = 0.64563E+01
  weight for this iteration     100.00

 eigenvalues of (default mixing * dielectric matrix)
  average eigenvalue GAMMA=   0.4893
  1.0814  0.7321  0.3944  0.3944  0.1516  0.1817

 Free energy of the ion-electron system (eV)
  ---------------------------------------------------
  alpha Z        PSCENC =      1179.95452451
  Ewald energy   TEWEN  =    -22526.15462626
  -Hartree energ DENC   =    -10884.98429636
  -exchange      EXHF   =         0.00000000
  -V(xc)+E(xc)   XCENC  =      1544.94019568
  PAW double counting   =     34146.16700541   -35465.13338257
  entropy T*S    EENTRO =        -0.04921356
  eigenvalues    EBANDS =     -1384.42098405
  atomic energy  EATOM  =     33023.84575915
  Solvation  Ediel_sol  =         0.00000000
  ---------------------------------------------------
  free energy    TOTEN  =      -365.83501807 eV

  energy without entropy =     -365.78580451  energy(sigma->0) =     -365.81041129


--------------------------------------------------------------------------------------------------------




--------------------------------------- Iteration      1(  12)  ---------------------------------------


    POTLOK:  cpu time    0.1311: real time    0.1314
    SETDIJ:  cpu time    0.0208: real time    0.0209
     EDDAV:  cpu time    2.0483: real time    2.0531
    CHARGE:  cpu time    0.1021: real time    0.1023
    MIXING:  cpu time    0.0042: real time    0.0042
    --------------------------------------------
      LOOP:  cpu time    2.3065: real time    2.3120

 eigenvalue-minimisations  :  1520
 total energy-change (2. order) :-0.7261541E+01  (-0.6887605E+01)
 number of electron     382.0000205 magnetization      10.8314368
 augmentation part      125.8165612 magnetization      10.6830915

 Broyden mixing:
  rms(total) = 0.71321E+01    rms(broyden)= 0.71314E+01
  rms(prec ) = 0.10255E+02
  weight for this iteration     100.00

 eigenvalues of (default mixing * dielectric matrix)
  average eigenvalue GAMMA=   0.4741
  1.1438  0.8479  0.4084  0.4084  0.2307  0.1399  0.1399

 Free energy of the ion-electron system (eV)
  ---------------------------------------------------
  alpha Z        PSCENC =      1179.95452451
  Ewald energy   TEWEN  =    -22526.15462626
  -Hartree energ DENC   =    -10884.51337493
  -exchange      EXHF   =         0.00000000
  -V(xc)+E(xc)   XCENC  =      1544.47951470
  PAW double counting   =     34690.57638397   -36018.17547442
  entropy T*S    EENTRO =        -0.01439099
  eigenvalues    EBANDS =     -1383.09487467
  atomic energy  EATOM  =     33023.84575915
  Solvation  Ediel_sol  =         0.00000000
  ---------------------------------------------------
  free energy    TOTEN  =      -373.09655893 eV

  energy without entropy =     -373.08216794  energy(sigma->0) =     -373.08936343


--------------------------------------------------------------------------------------------------------




--------------------------------------- Iteration      1(  13)  ---------------------------------------


    POTLOK:  cpu time    0.1307: real time    0.1310
    SETDIJ:  cpu time    0.0208: real time    0.0208
     EDDAV:  cpu time    2.3260: real time    2.3315
    CHARGE:  cpu time    0.1318: real time    0.1321
    MIXING:  cpu time    0.0049: real time    0.0049
    --------------------------------------------
      LOOP:  cpu time    2.6141: real time    2.6203

 eigenvalue-minimisations  :  1456
 total energy-change (2. order) : 0.1456966E+02  (-0.1907520E+01)
 number of electron     382.0000194 magnetization       9.4043167
 augmentation part      126.4895075 magnetization       7.7453726

 Broyden mixing:
  rms(total) = 0.31283E+01    rms(broyden)= 0.31274E+01
  rms(prec ) = 0.40960E+01
  weight for this iteration     100.00

 eigenvalues of (default mixing * dielectric matrix)
  average eigenvalue GAMMA=   0.4557
  0.9956  0.9956  0.4209  0.4209  0.3834  0.1589  0.1589  0.1112

 Free energy of the ion-electron system (eV)
  ---------------------------------------------------
  alpha Z        PSCENC =      1179.95452451
  Ewald energy   TEWEN  =    -22526.15462626
  -Hartree energ DENC   =    -10887.06703402
  -exchange      EXHF   =         0.00000000
  -V(xc)+E(xc)   XCENC  =      1544.34782437
  PAW double counting   =     34987.08403527   -36318.48739245
  entropy T*S    EENTRO =        -0.04884923
  eigenvalues    EBANDS =     -1362.00113725
  atomic energy  EATOM  =     33023.84575915
  Solvation  Ediel_sol  =         0.00000000
  ---------------------------------------------------
  free energy    TOTEN  =      -358.52689591 eV

  energy without entropy =     -358.47804668  energy(sigma->0) =     -358.50247130


--------------------------------------------------------------------------------------------------------




--------------------------------------- Iteration      1(  14)  ---------------------------------------


    POTLOK:  cpu time    0.1522: real time    0.1526
    SETDIJ:  cpu time    0.0222: real time    0.0223
     EDDAV:  cpu time    2.5513: real time    2.5574
    CHARGE:  cpu time    0.1309: real time    0.1313
    MIXING:  cpu time    0.0051: real time    0.0051
    --------------------------------------------
      LOOP:  cpu time    2.8618: real time    2.8687

 eigenvalue-minimisations  :  1360
 total energy-change (2. order) : 0.3280397E+01  (-0.1437104E+01)
 number of electron     382.0000203 magnetization       8.2085518
 augmentation part      126.9615422 magnetization       6.5101638

 Broyden mixing:
  rms(total) = 0.18601E+01    rms(broyden)= 0.18594E+01
  rms(prec ) = 0.23759E+01
  weight for this iteration     100.00

 eigenvalues of (default mixing * dielectric matrix)
  average eigenvalue GAMMA=   0.4477
  0.9701  0.9701  0.5711  0.4264  0.4264  0.2254  0.1709  0.1529  0.1161

 Free energy of the ion-electron system (eV)
  ---------------------------------------------------
  alpha Z        PSCENC =      1179.95452451
  Ewald energy   TEWEN  =    -22526.15462626
  -Hartree energ DENC   =    -10884.92683369
  -exchange      EXHF   =         0.00000000
  -V(xc)+E(xc)   XCENC  =      1544.19960601
  PAW double counting   =     35162.24936164   -36494.35193422
  entropy T*S    EENTRO =        -0.04723853
  eigenvalues    EBANDS =     -1360.01511799
  atomic energy  EATOM  =     33023.84575915
  Solvation  Ediel_sol  =         0.00000000
  ---------------------------------------------------
  free energy    TOTEN  =      -355.24649937 eV

  energy without entropy =     -355.19926084  energy(sigma->0) =     -355.22288010


--------------------------------------------------------------------------------------------------------




--------------------------------------- Iteration      1(  15)  ---------------------------------------


    POTLOK:  cpu time    0.1520: real time    0.1524
    SETDIJ:  cpu time    0.0219: real time    0.0220
     EDDAV:  cpu time    2.6190: real time    2.6252
    CHARGE:  cpu time    0.1303: real time    0.1306
    MIXING:  cpu time    0.0054: real time    0.0054
    --------------------------------------------
      LOOP:  cpu time    2.9286: real time    2.9356

 eigenvalue-minimisations  :  1408
 total energy-change (2. order) : 0.6726680E-01  (-0.8503066E+00)
 number of electron     382.0000199 magnetization       7.4097484
 augmentation part      126.8436859 magnetization       6.4668326

 Broyden mixing:
  rms(total) = 0.18844E+01    rms(broyden)= 0.18837E+01
  rms(prec ) = 0.25284E+01
  weight for this iteration     100.00

 eigenvalues of (default mixing * dielectric matrix)
  average eigenvalue GAMMA=   0.4448
  1.0302  1.0302  0.4328  0.4328  0.4678  0.4678  0.1769  0.1528  0.1432  0.1133

 Free energy of the ion-electron system (eV)
  ---------------------------------------------------
  alpha Z        PSCENC =      1179.95452451
  Ewald energy   TEWEN  =    -22526.15462626
  -Hartree energ DENC   =    -10887.32666471
  -exchange      EXHF   =         0.00000000
  -V(xc)+E(xc)   XCENC  =      1544.17461090
  PAW double counting   =     35319.44575029   -36650.94410848
  entropy T*S    EENTRO =        -0.01728769
  eigenvalues    EBANDS =     -1358.15719028
  atomic energy  EATOM  =     33023.84575915
  Solvation  Ediel_sol  =         0.00000000
  ---------------------------------------------------
  free energy    TOTEN  =      -355.17923257 eV

  energy without entropy =     -355.16194488  energy(sigma->0) =     -355.17058872


--------------------------------------------------------------------------------------------------------




--------------------------------------- Iteration      1(  16)  ---------------------------------------


    POTLOK:  cpu time    0.1522: real time    0.1526
    SETDIJ:  cpu time    0.0219: real time    0.0219
     EDDAV:  cpu time    2.6398: real time    2.6461
    CHARGE:  cpu time    0.1309: real time    0.1312
    MIXING:  cpu time    0.0058: real time    0.0058
    --------------------------------------------
      LOOP:  cpu time    2.9506: real time    2.9577

 eigenvalue-minimisations  :  1424
 total energy-change (2. order) : 0.8147590E+00  (-0.2545102E+00)
 number of electron     382.0000203 magnetization       7.0395067
 augmentation part      126.8629600 magnetization       5.4663425

 Broyden mixing:
  rms(total) = 0.11757E+01    rms(broyden)= 0.11748E+01
  rms(prec ) = 0.14726E+01
  weight for this iteration     100.00

 eigenvalues of (default mixing * dielectric matrix)
  average eigenvalue GAMMA=   0.4377
  0.8280  0.8280  0.7230  0.7230  0.4221  0.4221  0.3084  0.1611  0.1611  0.1287
  0.1089

 Free energy of the ion-electron system (eV)
  ---------------------------------------------------
  alpha Z        PSCENC =      1179.95452451
  Ewald energy   TEWEN  =    -22526.15462626
  -Hartree energ DENC   =    -10890.13947073
  -exchange      EXHF   =         0.00000000
  -V(xc)+E(xc)   XCENC  =      1544.19576221
  PAW double counting   =     35401.87191604   -36732.77598546
  entropy T*S    EENTRO =        -0.03473662
  eigenvalues    EBANDS =     -1355.12761641
  atomic energy  EATOM  =     33023.84575915
  Solvation  Ediel_sol  =         0.00000000
  ---------------------------------------------------
  free energy    TOTEN  =      -354.36447357 eV

  energy without entropy =     -354.32973695  energy(sigma->0) =     -354.34710526


--------------------------------------------------------------------------------------------------------




--------------------------------------- Iteration      1(  17)  ---------------------------------------


    POTLOK:  cpu time    0.1520: real time    0.1524
    SETDIJ:  cpu time    0.0220: real time    0.0221
     EDDAV:  cpu time    2.5242: real time    2.5302
    CHARGE:  cpu time    0.1312: real time    0.1315
    MIXING:  cpu time    0.0060: real time    0.0060
    --------------------------------------------
      LOOP:  cpu time    2.8354: real time    2.8421

 eigenvalue-minimisations  :  1344
 total energy-change (2. order) : 0.6783358E-01  (-0.1698468E+00)
 number of electron     382.0000203 magnetization       6.6945618
 augmentation part      126.8471652 magnetization       5.1494829

 Broyden mixing:
  rms(total) = 0.11717E+01    rms(broyden)= 0.11713E+01
  rms(prec ) = 0.14710E+01
  weight for this iteration     100.00

 eigenvalues of (default mixing * dielectric matrix)
  average eigenvalue GAMMA=   0.4544
  0.9843  0.9843  0.9527  0.4207  0.4207  0.4970  0.4970  0.1631  0.1631  0.1447
  0.1190  0.1064

 Free energy of the ion-electron system (eV)
  ---------------------------------------------------
  alpha Z        PSCENC =      1179.95452451
  Ewald energy   TEWEN  =    -22526.15462626
  -Hartree energ DENC   =    -10891.99912676
  -exchange      EXHF   =         0.00000000
  -V(xc)+E(xc)   XCENC  =      1544.21970300
  PAW double counting   =     35453.57412734   -36783.31759408
  entropy T*S    EENTRO =        -0.03689956
  eigenvalues    EBANDS =     -1354.38250733
  atomic energy  EATOM  =     33023.84575915
  Solvation  Ediel_sol  =         0.00000000
  ---------------------------------------------------
  free energy    TOTEN  =      -354.29663999 eV

  energy without entropy =     -354.25974044  energy(sigma->0) =     -354.27819022


--------------------------------------------------------------------------------------------------------




--------------------------------------- Iteration      1(  18)  ---------------------------------------


    POTLOK:  cpu time    0.1512: real time    0.1516
    SETDIJ:  cpu time    0.0218: real time    0.0218
     EDDAV:  cpu time    2.5559: real time    2.5621
    CHARGE:  cpu time    0.1301: real time    0.1304
    MIXING:  cpu time    0.0062: real time    0.0062
    --------------------------------------------
      LOOP:  cpu time    2.8652: real time    2.8721

 eigenvalue-minimisations  :  1360
 total energy-change (2. order) : 0.2694478E-02  (-0.1242264E+00)
 number of electron     382.0000202 magnetization       6.4167243
 augmentation part      126.6925552 magnetization       4.8294285

 Broyden mixing:
  rms(total) = 0.95704E+00    rms(broyden)= 0.95664E+00
  rms(prec ) = 0.11790E+01
  weight for this iteration     100.00

 eigenvalues of (default mixing * dielectric matrix)
  average eigenvalue GAMMA=   0.4517
  1.0457  1.0457  0.9993  0.5031  0.5031  0.4204  0.4204  0.2361  0.1684  0.1544
  0.1544  0.1179  0.1027

 Free energy of the ion-electron system (eV)
  ---------------------------------------------------
  alpha Z        PSCENC =      1179.95452451
  Ewald energy   TEWEN  =    -22526.15462626
  -Hartree energ DENC   =    -10896.59527284
  -exchange      EXHF   =         0.00000000
  -V(xc)+E(xc)   XCENC  =      1544.27520424
  PAW double counting   =     35516.86901813   -36845.38146962
  entropy T*S    EENTRO =        -0.03770873
  eigenvalues    EBANDS =     -1351.06937409
  atomic energy  EATOM  =     33023.84575915
  Solvation  Ediel_sol  =         0.00000000
  ---------------------------------------------------
  free energy    TOTEN  =      -354.29394552 eV

  energy without entropy =     -354.25623678  energy(sigma->0) =     -354.27509115


--------------------------------------------------------------------------------------------------------




--------------------------------------- Iteration      1(  19)  ---------------------------------------


    POTLOK:  cpu time    0.1500: real time    0.1504
    SETDIJ:  cpu time    0.0222: real time    0.0223
     EDDAV:  cpu time    2.5370: real time    2.5430
    CHARGE:  cpu time    0.1313: real time    0.1316
    MIXING:  cpu time    0.0064: real time    0.0064
    --------------------------------------------
      LOOP:  cpu time    2.8469: real time    2.8537

 eigenvalue-minimisations  :  1360
 total energy-change (2. order) : 0.7133113E-01  (-0.1344787E+00)
 number of electron     382.0000203 magnetization       6.0447137
 augmentation part      126.6815738 magnetization       4.2732900

 Broyden mixing:
  rms(total) = 0.76418E+00    rms(broyden)= 0.76379E+00
  rms(prec ) = 0.90930E+00
  weight for this iteration     100.00

 eigenvalues of (default mixing * dielectric matrix)
  average eigenvalue GAMMA=   0.4854
  1.2633  1.2633  1.1122  0.5278  0.5278  0.4233  0.4233  0.4049  0.1811  0.1609
  0.1609  0.1310  0.1137  0.1016

 Free energy of the ion-electron system (eV)
  ---------------------------------------------------
  alpha Z        PSCENC =      1179.95452451
  Ewald energy   TEWEN  =    -22526.15462626
  -Hartree energ DENC   =    -10898.10829006
  -exchange      EXHF   =         0.00000000
  -V(xc)+E(xc)   XCENC  =      1544.29462644
  PAW double counting   =     35578.78037731   -36906.46873344
  entropy T*S    EENTRO =        -0.03888937
  eigenvalues    EBANDS =     -1350.32736266
  atomic energy  EATOM  =     33023.84575915
  Solvation  Ediel_sol  =         0.00000000
  ---------------------------------------------------
  free energy    TOTEN  =      -354.22261439 eV

  energy without entropy =     -354.18372502  energy(sigma->0) =     -354.20316970


--------------------------------------------------------------------------------------------------------




--------------------------------------- Iteration      1(  20)  ---------------------------------------


    POTLOK:  cpu time    0.1523: real time    0.1527
    SETDIJ:  cpu time    0.0221: real time    0.0222
     EDDAV:  cpu time    2.6261: real time    2.6323
    CHARGE:  cpu time    0.1273: real time    0.1276
    MIXING:  cpu time    0.0067: real time    0.0068
    --------------------------------------------
      LOOP:  cpu time    2.9346: real time    2.9415

 eigenvalue-minimisations  :  1408
 total energy-change (2. order) :-0.9048881E-01  (-0.1315207E+00)
 number of electron     382.0000202 magnetization       5.8328029
 augmentation part      126.6456703 magnetization       4.2559279

 Broyden mixing:
  rms(total) = 0.65911E+00    rms(broyden)= 0.65885E+00
  rms(prec ) = 0.81863E+00
  weight for this iteration     100.00

 eigenvalues of (default mixing * dielectric matrix)
  average eigenvalue GAMMA=   0.4971
  1.3995  1.3995  1.0103  0.6043  0.5247  0.5247  0.4217  0.4217  0.3246  0.1633
  0.1633  0.1519  0.1316  0.1146  0.1013

 Free energy of the ion-electron system (eV)
  ---------------------------------------------------
  alpha Z        PSCENC =      1179.95452451
  Ewald energy   TEWEN  =    -22526.15462626
  -Hartree energ DENC   =    -10901.47850808
  -exchange      EXHF   =         0.00000000
  -V(xc)+E(xc)   XCENC  =      1544.40246280
  PAW double counting   =     35712.90129332   -37039.20713838
  entropy T*S    EENTRO =        -0.04695720
  eigenvalues    EBANDS =     -1348.52991304
  atomic energy  EATOM  =     33023.84575915
  Solvation  Ediel_sol  =         0.00000000
  ---------------------------------------------------
  free energy    TOTEN  =      -354.31310320 eV

  energy without entropy =     -354.26614599  energy(sigma->0) =     -354.28962459


--------------------------------------------------------------------------------------------------------




--------------------------------------- Iteration      1(  21)  ---------------------------------------


    POTLOK:  cpu time    0.1517: real time    0.1521
    SETDIJ:  cpu time    0.0220: real time    0.0220
     EDDAV:  cpu time    2.5755: real time    2.5816
    CHARGE:  cpu time    0.1280: real time    0.1283
    MIXING:  cpu time    0.0070: real time    0.0070
    --------------------------------------------
      LOOP:  cpu time    2.8842: real time    2.8910

 eigenvalue-minimisations  :  1376
 total energy-change (2. order) :-0.2795936E-02  (-0.1075253E+00)
 number of electron     382.0000203 magnetization       5.5354998
 augmentation part      126.6582139 magnetization       3.6926754

 Broyden mixing:
  rms(total) = 0.60368E+00    rms(broyden)= 0.60334E+00
  rms(prec ) = 0.75638E+00
  weight for this iteration     100.00

 eigenvalues of (default mixing * dielectric matrix)
  average eigenvalue GAMMA=   0.5356
  1.5962  1.5962  1.0150  0.7370  0.7048  0.7048  0.4220  0.4220  0.3948  0.1639
  0.1639  0.1553  0.1510  0.1269  0.1139  0.1012

 Free energy of the ion-electron system (eV)
  ---------------------------------------------------
  alpha Z        PSCENC =      1179.95452451
  Ewald energy   TEWEN  =    -22526.15462626
  -Hartree energ DENC   =    -10902.75909662
  -exchange      EXHF   =         0.00000000
  -V(xc)+E(xc)   XCENC  =      1544.48345709
  PAW double counting   =     35780.54227521   -37106.04010613
  entropy T*S    EENTRO =        -0.03295496
  eigenvalues    EBANDS =     -1348.15513111
  atomic energy  EATOM  =     33023.84575915
  Solvation  Ediel_sol  =         0.00000000
  ---------------------------------------------------
  free energy    TOTEN  =      -354.31589913 eV

  energy without entropy =     -354.28294417  energy(sigma->0) =     -354.29942165


--------------------------------------------------------------------------------------------------------




--------------------------------------- Iteration      1(  22)  ---------------------------------------


    POTLOK:  cpu time    0.1511: real time    0.1515
    SETDIJ:  cpu time    0.0219: real time    0.0220
     EDDAV:  cpu time    2.6082: real time    2.6144
    CHARGE:  cpu time    0.1275: real time    0.1278
    MIXING:  cpu time    0.0071: real time    0.0071
    --------------------------------------------
      LOOP:  cpu time    2.9159: real time    2.9228

 eigenvalue-minimisations  :  1392
 total energy-change (2. order) :-0.3694050E-01  (-0.8192089E-01)
 number of electron     382.0000202 magnetization       5.3475798
 augmentation part      126.7052324 magnetization       3.9948776

 Broyden mixing:
  rms(total) = 0.60884E+00    rms(broyden)= 0.60846E+00
  rms(prec ) = 0.77370E+00
  weight for this iteration     100.00

 eigenvalues of (default mixing * dielectric matrix)
  average eigenvalue GAMMA=   0.5229
  1.6123  1.6123  0.9870  0.9870  0.6460  0.6460  0.4224  0.4224  0.3912  0.2067
  0.1668  0.1668  0.1542  0.1369  0.1010  0.1120  0.1179

 Free energy of the ion-electron system (eV)
  ---------------------------------------------------
  alpha Z        PSCENC =      1179.95452451
  Ewald energy   TEWEN  =    -22526.15462626
  -Hartree energ DENC   =    -10904.76877051
  -exchange      EXHF   =         0.00000000
  -V(xc)+E(xc)   XCENC  =      1544.65394478
  PAW double counting   =     35904.29002366   -37229.30749731
  entropy T*S    EENTRO =        -0.03515853
  eigenvalues    EBANDS =     -1346.83103912
  atomic energy  EATOM  =     33023.84575915
  Solvation  Ediel_sol  =         0.00000000
  ---------------------------------------------------
  free energy    TOTEN  =      -354.35283963 eV

  energy without entropy =     -354.31768110  energy(sigma->0) =     -354.33526037


--------------------------------------------------------------------------------------------------------




--------------------------------------- Iteration      1(  23)  ---------------------------------------


    POTLOK:  cpu time    0.1515: real time    0.1518
    SETDIJ:  cpu time    0.0217: real time    0.0218
     EDDAV:  cpu time    2.5727: real time    2.5788
    CHARGE:  cpu time    0.1277: real time    0.1280
    MIXING:  cpu time    0.0073: real time    0.0073
    --------------------------------------------
      LOOP:  cpu time    2.8809: real time    2.8878

 eigenvalue-minimisations  :  1376
 total energy-change (2. order) : 0.5000715E-01  (-0.5577964E-01)
 number of electron     382.0000202 magnetization       5.2758219
 augmentation part      126.7323611 magnetization       3.6797205

 Broyden mixing:
  rms(total) = 0.39213E+00    rms(broyden)= 0.39180E+00
  rms(prec ) = 0.49317E+00
  weight for this iteration     100.00

 eigenvalues of (default mixing * dielectric matrix)
  average eigenvalue GAMMA=   0.5223
  1.6049  1.6049  1.0831  1.0831  0.6466  0.6466  0.4219  0.4219  0.3917  0.3917
  0.1714  0.1714  0.1582  0.1478  0.1255  0.1008  0.1177  0.1124

 Free energy of the ion-electron system (eV)
  ---------------------------------------------------
  alpha Z        PSCENC =      1179.95452451
  Ewald energy   TEWEN  =    -22526.15462626
  -Hartree energ DENC   =    -10905.20798858
  -exchange      EXHF   =         0.00000000
  -V(xc)+E(xc)   XCENC  =      1544.71661762
  PAW double counting   =     35948.86532753   -37273.62046038
  entropy T*S    EENTRO =        -0.03794120
  eigenvalues    EBANDS =     -1346.66404486
  atomic energy  EATOM  =     33023.84575915
  Solvation  Ediel_sol  =         0.00000000
  ---------------------------------------------------
  free energy    TOTEN  =      -354.30283249 eV

  energy without entropy =     -354.26489129  energy(sigma->0) =     -354.28386189


--------------------------------------------------------------------------------------------------------




--------------------------------------- Iteration      1(  24)  ---------------------------------------


    POTLOK:  cpu time    0.1519: real time    0.1523
    SETDIJ:  cpu time    0.0220: real time    0.0221
     EDDAV:  cpu time    2.6901: real time    2.6965
    CHARGE:  cpu time    0.1277: real time    0.1280
    MIXING:  cpu time    0.0077: real time    0.0077
    --------------------------------------------
      LOOP:  cpu time    2.9994: real time    3.0065

 eigenvalue-minimisations  :  1456
 total energy-change (2. order) :-0.2470028E-02  (-0.2051307E-01)
 number of electron     382.0000202 magnetization       5.1865159
 augmentation part      126.7467682 magnetization       4.0244887

 Broyden mixing:
  rms(total) = 0.45578E+00    rms(broyden)= 0.45560E+00
  rms(prec ) = 0.54273E+00
  weight for this iteration     100.00

 eigenvalues of (default mixing * dielectric matrix)
  average eigenvalue GAMMA=   0.4975
  1.6039  1.6039  1.0948  1.0948  0.6454  0.6454  0.4218  0.4218  0.3925  0.3925
  0.1726  0.1726  0.1586  0.1482  0.1009  0.1132  0.1232  0.1232  0.0229

 Free energy of the ion-electron system (eV)
  ---------------------------------------------------
  alpha Z        PSCENC =      1179.95452451
  Ewald energy   TEWEN  =    -22526.15462626
  -Hartree energ DENC   =    -10905.52480416
  -exchange      EXHF   =         0.00000000
  -V(xc)+E(xc)   XCENC  =      1544.75460793
  PAW double counting   =     35969.73137132   -37294.62256141
  entropy T*S    EENTRO =        -0.02964524
  eigenvalues    EBANDS =     -1346.25992834
  atomic energy  EATOM  =     33023.84575915
  Solvation  Ediel_sol  =         0.00000000
  ---------------------------------------------------
  free energy    TOTEN  =      -354.30530251 eV

  energy without entropy =     -354.27565728  energy(sigma->0) =     -354.29047990


--------------------------------------------------------------------------------------------------------




--------------------------------------- Iteration      1(  25)  ---------------------------------------


    POTLOK:  cpu time    0.1520: real time    0.1523
    SETDIJ:  cpu time    0.0220: real time    0.0221
     EDDAV:  cpu time    2.7822: real time    2.7888
    CHARGE:  cpu time    0.1278: real time    0.1281
    MIXING:  cpu time    0.0080: real time    0.0080
    --------------------------------------------
      LOOP:  cpu time    3.0920: real time    3.0994

 eigenvalue-minimisations  :  1520
 total energy-change (2. order) : 0.4309972E-02  (-0.4661981E-02)
 number of electron     382.0000202 magnetization       5.2301994
 augmentation part      126.7488781 magnetization       4.0486817

 Broyden mixing:
  rms(total) = 0.40221E+00    rms(broyden)= 0.40218E+00
  rms(prec ) = 0.45690E+00
  weight for this iteration     100.00

 eigenvalues of (default mixing * dielectric matrix)
  average eigenvalue GAMMA=   0.4937
  1.6104  1.6104  1.0666  1.0666  0.6565  0.6565  0.4218  0.4218  0.4107  0.4107
  0.3115  0.1891  0.1628  0.1628  0.1530  0.1362  0.1245  0.1138  0.1012  0.0872

 Free energy of the ion-electron system (eV)
  ---------------------------------------------------
  alpha Z        PSCENC =      1179.95452451
  Ewald energy   TEWEN  =    -22526.15462626
  -Hartree energ DENC   =    -10905.60373523
  -exchange      EXHF   =         0.00000000
  -V(xc)+E(xc)   XCENC  =      1544.76619616
  PAW double counting   =     35976.50258580   -37301.44225149
  entropy T*S    EENTRO =        -0.02024442
  eigenvalues    EBANDS =     -1346.14920076
  atomic energy  EATOM  =     33023.84575915
  Solvation  Ediel_sol  =         0.00000000
  ---------------------------------------------------
  free energy    TOTEN  =      -354.30099254 eV

  energy without entropy =     -354.28074813  energy(sigma->0) =     -354.29087033


--------------------------------------------------------------------------------------------------------




--------------------------------------- Iteration      1(  26)  ---------------------------------------


    POTLOK:  cpu time    0.1518: real time    0.1522
    SETDIJ:  cpu time    0.0221: real time    0.0221
     EDDAV:  cpu time    2.8031: real time    2.8098
    CHARGE:  cpu time    0.1286: real time    0.1289
    MIXING:  cpu time    0.0078: real time    0.0078
    --------------------------------------------
      LOOP:  cpu time    3.1134: real time    3.1208

 eigenvalue-minimisations  :  1536
 total energy-change (2. order) : 0.8973005E-02  (-0.5075089E-03)
 number of electron     382.0000202 magnetization       5.0525732
 augmentation part      126.7484974 magnetization       3.8606865

 Broyden mixing:
  rms(total) = 0.41438E+00    rms(broyden)= 0.41438E+00
  rms(prec ) = 0.46736E+00
  weight for this iteration     100.00

 eigenvalues of (default mixing * dielectric matrix)
  average eigenvalue GAMMA=   0.5338
  1.6412  1.6412  1.1045  1.1045  0.7714  0.7714  0.6311  0.6311  0.4222  0.4222
  0.4148  0.4148  0.1868  0.1637  0.1637  0.1542  0.1399  0.1239  0.1138  0.1014
  0.0923

 Free energy of the ion-electron system (eV)
  ---------------------------------------------------
  alpha Z        PSCENC =      1179.95452451
  Ewald energy   TEWEN  =    -22526.15462626
  -Hartree energ DENC   =    -10905.58297940
  -exchange      EXHF   =         0.00000000
  -V(xc)+E(xc)   XCENC  =      1544.76125004
  PAW double counting   =     35973.96431337   -37298.86839861
  entropy T*S    EENTRO =        -0.02151832
  eigenvalues    EBANDS =     -1346.19034401
  atomic energy  EATOM  =     33023.84575915
  Solvation  Ediel_sol  =         0.00000000
  ---------------------------------------------------
  free energy    TOTEN  =      -354.29201954 eV

  energy without entropy =     -354.27050122  energy(sigma->0) =     -354.28126038


--------------------------------------------------------------------------------------------------------




--------------------------------------- Iteration      1(  27)  ---------------------------------------


    POTLOK:  cpu time    0.1461: real time    0.1464
    SETDIJ:  cpu time    0.0216: real time    0.0216
     EDDAV:  cpu time    2.1212: real time    2.1263
    CHARGE:  cpu time    0.1126: real time    0.1129
    MIXING:  cpu time    0.0079: real time    0.0079
    --------------------------------------------
      LOOP:  cpu time    2.4094: real time    2.4151

 eigenvalue-minimisations  :  1424
 total energy-change (2. order) :-0.4465891E-01  (-0.4068969E-02)
 number of electron     382.0000202 magnetization       4.5577605
 augmentation part      126.7509779 magnetization       3.4067039

 Broyden mixing:
  rms(total) = 0.44041E+00    rms(broyden)= 0.44039E+00
  rms(prec ) = 0.52617E+00
  weight for this iteration     100.00

 eigenvalues of (default mixing * dielectric matrix)
  average eigenvalue GAMMA=   0.5646
  1.6746  1.6746  1.5554  1.0834  1.0834  0.7719  0.7719  0.5667  0.5667  0.4220
  0.4220  0.3942  0.2080  0.1665  0.1665  0.1620  0.1574  0.1420  0.1244  0.1139
[...]
   0.253E+02 -.246E+00 0.549E+01   -.261E+02 0.212E+00 -.513E+01   0.790E+00 0.338E-01 -.354E+00   0.404E-02 0.108E-02 0.728E-02
   0.220E+02 0.193E-01 0.104E+02   -.230E+02 -.757E-03 -.103E+02   0.968E+00 -.172E-01 -.142E+00   0.287E-02 -.114E-02 0.667E-02
   0.236E+02 -.876E-03 0.387E+01   -.244E+02 -.126E-01 -.361E+01   0.791E+00 0.144E-01 -.233E+00   0.713E-02 -.142E-02 0.830E-03
   -.130E+02 0.222E+01 -.567E+01   0.133E+02 -.232E+01 0.567E+01   -.282E+00 0.961E-01 -.803E-02   0.234E-02 0.838E-03 -.319E-02
   0.396E+02 0.125E+01 0.201E+02   -.404E+02 -.123E+01 -.202E+02   0.775E+00 -.155E-01 0.180E+00   0.791E-02 0.208E-02 0.152E-01
   -.125E+02 -.451E+00 0.433E+01   0.130E+02 0.420E+00 -.437E+01   -.535E+00 0.219E-01 0.302E-01   -.100E-01 0.103E-01 -.261E-02
   0.302E+02 -.258E-01 0.587E+02   -.304E+02 -.125E-01 -.597E+02   0.209E+00 0.161E-01 0.956E+00   0.966E-02 0.144E-01 0.338E-02
   0.979E+01 0.201E+00 -.326E+01   -.990E+01 -.166E+00 0.329E+01   0.931E-01 -.180E-01 -.328E-01   0.761E-02 -.140E-01 0.696E-02
   -.335E+02 0.259E+00 -.239E+02   0.338E+02 -.233E+00 0.239E+02   -.306E+00 -.950E-02 -.643E-01   -.943E-02 -.117E-01 -.260E-02
   0.400E+02 -.118E+01 0.200E+02   -.408E+02 0.116E+01 -.201E+02   0.754E+00 0.263E-01 0.183E+00   0.635E-02 -.226E-02 0.156E-01
   -.378E+02 0.351E+00 -.383E+02   0.383E+02 -.238E+00 0.388E+02   -.530E+00 -.112E+00 -.551E+00   -.540E-02 0.757E-03 -.125E-01
   -.378E+02 -.372E+00 -.384E+02   0.383E+02 0.276E+00 0.390E+02   -.537E+00 0.956E-01 -.569E+00   -.404E-02 -.835E-03 -.133E-01
   -.359E+02 -.253E+00 -.390E+02   0.365E+02 0.153E+00 0.396E+02   -.504E+00 0.981E-01 -.562E+00   -.439E-01 -.687E-02 -.122E-01
   0.116E+02 0.555E+00 -.477E+01   -.118E+02 -.548E+00 0.476E+01   0.113E+00 -.112E-01 -.171E-01   -.701E-02 0.428E-02 0.921E-02
   -.392E+02 0.418E+00 -.207E+02   0.396E+02 -.377E+00 0.208E+02   -.419E+00 -.468E-01 -.114E+00   0.696E-02 0.442E-02 -.452E-02
   -.178E+02 -.530E+00 0.767E+01   0.184E+02 0.465E+00 -.767E+01   -.682E+00 0.704E-01 -.122E-02   0.736E-02 -.385E-02 -.439E-02
   0.329E+02 -.420E+00 0.575E+02   -.332E+02 0.399E+00 -.585E+02   0.263E+00 0.248E-01 0.962E+00   -.578E-02 -.442E-02 0.491E-02
   -.346E+02 0.327E+00 -.389E+02   0.352E+02 -.173E+00 0.394E+02   -.504E+00 -.151E+00 -.540E+00   -.434E-01 0.636E-02 -.126E-01
   0.409E+02 -.157E+01 0.203E+02   -.417E+02 0.155E+01 -.205E+02   0.808E+00 0.317E-01 0.145E+00   0.399E-01 -.752E-02 0.123E-01
   0.409E+02 0.159E+01 0.207E+02   -.417E+02 -.160E+01 -.208E+02   0.717E+00 -.474E-02 0.179E+00   0.404E-01 0.876E-02 0.122E-01
   -.222E+02 0.367E+02 0.350E+03   0.214E+02 -.393E+02 -.371E+03   0.852E+00 0.257E+01 0.207E+02   -.270E-01 0.179E-02 -.173E-01
   -.727E+02 -.285E+02 -.335E+03   0.776E+02 0.299E+02 0.353E+03   -.495E+01 -.131E+01 -.179E+02   -.674E-02 -.192E-01 -.132E-01
   -.709E+02 0.288E+02 -.336E+03   0.759E+02 -.301E+02 0.353E+03   -.502E+01 0.130E+01 -.176E+02   -.543E-02 0.170E-01 0.768E-02
   -.247E+02 -.377E+02 0.352E+03   0.240E+02 0.404E+02 -.372E+03   0.733E+00 -.273E+01 0.206E+02   -.651E-02 -.905E-02 -.957E-02
   0.795E+02 -.189E+01 0.360E+03   -.851E+02 0.189E+01 -.378E+03   0.559E+01 -.150E-02 0.184E+02   0.307E-01 -.704E-03 -.420E-02
   -.362E+02 -.518E+00 -.292E+03   0.395E+02 0.442E+00 0.306E+03   -.337E+01 0.778E-01 -.143E+02   0.694E-02 -.699E-03 -.393E-02
   -.174E+02 0.167E+01 -.301E+03   0.199E+02 -.181E+01 0.316E+03   -.255E+01 0.150E+00 -.145E+02   0.194E-01 0.274E-03 -.147E-01
   0.102E+03 0.811E+00 0.363E+03   -.110E+03 -.610E+00 -.382E+03   0.749E+01 -.200E+00 0.189E+02   0.328E-01 0.760E-03 -.251E-02
   -.153E+02 0.750E+00 -.301E+03   0.179E+02 -.795E+00 0.315E+03   -.264E+01 0.369E-01 -.145E+02   -.677E-02 0.908E-02 -.114E-01
   0.102E+03 0.109E+00 0.361E+03   -.110E+03 -.599E-01 -.380E+03   0.761E+01 -.587E-01 0.191E+02   0.232E-01 0.978E-02 0.150E-01
   0.784E+02 -.795E+00 0.359E+03   -.841E+02 0.857E+00 -.378E+03   0.565E+01 -.521E-01 0.188E+02   0.161E-01 -.974E-02 0.166E-01
   -.355E+02 -.177E+00 -.292E+03   0.390E+02 0.112E+00 0.306E+03   -.344E+01 0.730E-01 -.143E+02   -.165E-01 -.899E-02 -.371E-02
   -.254E+02 -.379E+02 0.351E+03   0.248E+02 0.408E+02 -.371E+03   0.648E+00 -.286E+01 0.206E+02   -.354E-01 -.142E-02 -.135E-01
   -.715E+02 0.284E+02 -.335E+03   0.765E+02 -.297E+02 0.353E+03   -.494E+01 0.122E+01 -.178E+02   0.581E-03 0.191E-01 -.161E-01
   -.710E+02 -.285E+02 -.336E+03   0.760E+02 0.298E+02 0.354E+03   -.493E+01 -.130E+01 -.177E+02   0.457E-02 -.170E-01 0.877E-03
   -.239E+02 0.371E+02 0.352E+03   0.232E+02 -.397E+02 -.372E+03   0.717E+00 0.265E+01 0.206E+02   -.176E-01 0.900E-02 -.172E-02
   0.300E+02 -.760E+01 0.306E+03   -.329E+02 0.773E+01 -.322E+03   0.289E+01 -.112E+00 0.159E+02   0.120E-01 -.185E-01 0.975E-02
   0.544E+02 0.631E+01 -.304E+03   -.540E+02 -.665E+01 0.319E+03   -.415E+00 0.329E+00 -.150E+02   0.236E-01 0.164E-02 0.196E-01
   0.489E+02 -.581E+01 -.303E+03   -.483E+02 0.602E+01 0.319E+03   -.585E+00 -.201E+00 -.150E+02   0.200E-01 -.861E-02 0.380E-02
   0.386E+02 0.776E+01 0.302E+03   -.422E+02 -.787E+01 -.317E+03   0.358E+01 0.921E-01 0.152E+02   -.793E-02 0.165E-01 0.837E-03
   0.507E+01 0.147E+00 0.286E+03   -.848E+01 -.340E-01 -.300E+03   0.341E+01 -.121E+00 0.139E+02   -.436E-02 0.897E-02 0.951E-02
   -.103E+02 0.151E+01 -.398E+03   0.110E+02 -.163E+01 0.423E+03   -.697E+00 0.115E+00 -.250E+02   -.348E-01 0.966E-02 -.189E-02
   -.663E+02 -.382E+00 -.356E+03   0.738E+02 0.204E+00 0.374E+03   -.740E+01 0.187E+00 -.187E+02   -.364E-01 -.964E-02 -.465E-02
   -.350E+02 -.114E+01 0.305E+03   0.345E+02 0.113E+01 -.319E+03   0.512E+00 0.120E-01 0.144E+02   -.177E-01 -.878E-02 0.208E-01
   -.674E+02 0.141E+00 -.354E+03   0.749E+02 -.224E+00 0.373E+03   -.752E+01 0.685E-01 -.189E+02   -.155E-01 0.151E-01 -.643E-02
   -.386E+02 -.503E+00 0.305E+03   0.382E+02 0.486E+00 -.319E+03   0.361E+00 0.359E-02 0.147E+02   -.263E-02 0.139E-01 0.437E-02
   0.208E+01 -.708E-01 0.287E+03   -.542E+01 0.175E+00 -.301E+03   0.333E+01 -.893E-01 0.140E+02   0.105E-01 -.140E-01 -.406E-02
   -.109E+02 0.590E+00 -.397E+03   0.118E+02 -.628E+00 0.422E+03   -.890E+00 0.530E-01 -.251E+02   -.693E-02 -.151E-01 -.867E-02
   0.341E+02 0.794E+01 0.305E+03   -.375E+02 -.806E+01 -.321E+03   0.337E+01 0.103E+00 0.156E+02   0.140E-01 0.185E-01 0.905E-02
   0.509E+02 -.553E+01 -.305E+03   -.504E+02 0.570E+01 0.320E+03   -.509E+00 -.171E+00 -.154E+02   0.204E-01 -.182E-02 0.207E-01
   0.503E+02 0.602E+01 -.303E+03   -.498E+02 -.627E+01 0.318E+03   -.560E+00 0.244E+00 -.150E+02   0.262E-01 0.944E-02 -.230E-02
   0.366E+02 -.769E+01 0.303E+03   -.401E+02 0.779E+01 -.318E+03   0.349E+01 -.747E-01 0.152E+02   -.134E-01 -.171E-01 0.677E-02
 -----------------------------------------------------------------------------------------------
   0.320E+00 -.867E-02 0.115E+00   -.206E-12 -.311E-13 0.114E-12   -.341E+00 0.166E-01 -.127E+00   0.433E-02 -.147E-03 0.258E-01
 
 
 POSITION                                       TOTAL-FORCE (eV/Angst)
 -----------------------------------------------------------------------------------
      1.71716      5.51089      2.34550         0.023966     -0.002946     -0.024885
      4.38004      1.38377      2.36762         0.012387      0.000147     -0.009333
      2.51009      4.15263      7.19478         0.021078      0.001026     -0.008057
      1.70425      2.78467      2.35093         0.012160     -0.001019     -0.019859
     -0.17972      0.02092      7.18759         0.015335     -0.002429     -0.012489
      8.67104      1.38528      2.42075        -0.052076     -0.000679      0.021767
      6.92210      1.38670      7.22086         0.021561      0.000325      0.019087
      6.80823      4.15245      7.25439        -0.047526      0.000075      0.023074
      8.79373      4.15043      2.39001         0.011765     -0.000626      0.020229
     -0.16815      2.74772      7.18455         0.018302      0.002560     -0.013767
      0.00040      0.00148      0.07784        -0.000824      0.000385      0.016506
     -1.24615      1.38559      9.58616         0.000664      0.001543     -0.008863
      3.74115      1.38647      9.60303        -0.007927     -0.007972     -0.002752
      7.47427      4.15058      0.00198        -0.013629      0.002461     -0.001468
     -1.23321      4.15146      9.60182         0.000667      0.005304     -0.009375
      0.00114      2.76496      0.07813         0.000630     -0.001395      0.016462
      1.26213      5.53121      9.56822         0.014119      0.001791     -0.002140
      1.26129      2.77198      9.56752         0.013999     -0.001391     -0.001278
      3.12925      0.00369      4.74285         0.004662     -0.008756     -0.007819
      5.60468      1.38632      4.82346        -0.017126     -0.000009     -0.011349
      0.63184      1.38584      4.78046        -0.007045     -0.001047     -0.011075
      0.61931      4.15197      4.76589        -0.002659      0.001478     -0.011014
      5.61180      4.15256      4.77870        -0.016856     -0.000950     -0.010192
      3.13137      2.76269      4.74286         0.006583      0.008531     -0.007773
     -1.86286      5.53268      4.90202        -0.000653      0.007343      0.012749
     -1.86843      2.76962      4.90288        -0.001685     -0.005794      0.013336
      4.85680      0.01859      3.84428         0.003806      0.001220      0.008178
      1.39870      5.52306      5.72534         0.012959      0.000881     -0.013396
      3.26963      0.01002      0.90360         0.014014     -0.002895     -0.018805
      2.98440      5.51890      8.66547         0.007025     -0.000275      0.007461
      7.33677      1.38370      3.88840        -0.013476      0.001242      0.020354
     -1.20149      1.38813      5.94465         0.001546      0.000988      0.008341
     -1.08499      4.15214      5.89097         0.015119      0.001272      0.002030
      7.44578      4.15258      3.84721        -0.009963      0.001156      0.012525
      0.78846      1.38357      1.06416         0.014618      0.001104      0.000318
      5.57602      1.38625      8.66768        -0.009357      0.000018      0.012924
      5.46546      4.15261      8.70936        -0.019655     -0.000649      0.018474
      0.66749      4.15025      1.12071         0.001278     -0.000950      0.007868
      4.84615      2.75119      3.83998         0.003177     -0.000753      0.009700
      1.40495      2.77816      5.72393         0.012815     -0.000956     -0.013441
      3.26761      2.75606      0.90215         0.015996     -0.000012     -0.018739
      2.98624      2.78583      8.66817         0.003420      0.002620      0.005297
     -0.17966      0.02448      3.82186        -0.019084      0.000853      0.009164
      6.38422      5.51482      5.78788         0.004465     -0.002139      0.018694
      8.22957      0.02312      0.96894         0.002285      0.000581      0.017343
     -2.02074      5.51581      8.63250        -0.018951     -0.001777      0.003462
      2.48076      1.38095      3.68385        -0.004925      0.000127     -0.015777
      3.89393      1.38543      5.70324        -0.001595     -0.000452     -0.007440
      3.79397      4.15040      5.73886         0.002027     -0.001278     -0.013492
      2.34819      4.14753      3.75488        -0.006508     -0.000651     -0.011656
      5.65784      1.38433      0.91800         0.002448      0.000494     -0.014843
      0.47945      1.38479      8.57612        -0.000590      0.000438     -0.017653
      0.61629      4.15071      8.50704         0.002175      0.000300     -0.020290
      5.76120      4.15052      0.88354         0.003781     -0.000578     -0.012431
     -0.16298      2.75025      3.81745        -0.018453      0.000662      0.007502
      6.36187      2.79217      5.78734         0.005620      0.002046      0.019631
      8.23713      2.74541      0.97045         0.001022     -0.000042      0.017962
     -2.03048      2.78938      8.63384        -0.016910     -0.000549      0.001009
 -----------------------------------------------------------------------------------
    total drift:                               -0.017285      0.007738      0.014113


--------------------------------------------------------------------------------------------------------



  FREE ENERGIE OF THE ION-ELECTRON SYSTEM (eV)
  ---------------------------------------------------
  free  energy   TOTEN  =      -354.5121826298 eV

  energy  without entropy=     -354.5111114432  energy(sigma->0) =     -354.51164704
 
 d Force = 0.6323825E-03[ 0.607E-03, 0.657E-03]  d Energy = 0.6967686E-03-0.644E-04
 d Force = 0.3622720E+00[ 0.362E+00, 0.362E+00]  d Ewald  =-0.1629482E+01 0.199E+01


--------------------------------------------------------------------------------------------------------


    POTLOK:  cpu time    0.1738: real time    0.1742


--------------------------------------------------------------------------------------------------------


 Quasi-Newton relaxation of ions (Broydens 2nd method)
  g(Force)  = 0.113E-02   g(Stress)= 0.118E-03

 retain information from N=  1 steps
 eigenvalues of (default step * inverse Hessian matrix)
  average eigenvalue of G=   0.2848
 eigenvalue spectrum of G is  0.2848


--------------------------------------------------------------------------------------------------------


     LOOP+:  cpu time   19.3529: real time   19.4737
    4ORBIT:  cpu time    0.0000: real time    0.0000

volume of typ            1:    14.7 %

volume of typ            2:    19.2 %

volume of typ            3:     9.8 %
 
total charge     
 
# of ion       s       p       d       tot
------------------------------------------
    1        2.078   0.232   0.088   2.398
    2        2.076   0.235   0.088   2.398
    3        2.075   0.233   0.087   2.394
    4        2.076   0.234   0.088   2.398
    5        2.076   0.234   0.088   2.398
    6        2.077   0.239   0.089   2.405
    7        2.079   0.243   0.090   2.412
    8        2.076   0.238   0.089   2.402
    9        2.078   0.242   0.090   2.411
   10        2.078   0.232   0.088   2.397
   11        0.279   0.382   7.864   8.526
   12        0.277   0.376   7.872   8.526
   13        0.271   0.361   7.854   8.486
   14        0.286   0.396   7.846   8.528
   15        0.268   0.351   7.895   8.514
   16        0.279   0.384   7.865   8.528
   17        0.284   0.393   7.848   8.526
   18        0.284   0.393   7.847   8.524
   19        0.284   0.392   7.848   8.525
   20        0.286   0.396   7.847   8.529
   21        0.268   0.351   7.892   8.512
   22        0.277   0.376   7.871   8.524
   23        0.270   0.361   7.856   8.488
   24        0.285   0.395   7.847   8.526
   25        0.282   0.390   7.862   8.534
   26        0.281   0.385   7.863   8.529
   27        1.271   2.760   0.008   4.039
   28        1.263   2.775   0.007   4.046
   29        1.263   2.777   0.007   4.047
   30        1.271   2.759   0.007   4.038
   31        1.269   2.768   0.007   4.044
   32        1.256   2.794   0.006   4.056
   33        1.258   2.792   0.006   4.055
   34        1.270   2.765   0.007   4.043
   35        1.257   2.792   0.006   4.055
   36        1.269   2.766   0.007   4.043
   37        1.268   2.769   0.007   4.043
   38        1.256   2.795   0.006   4.056
   39        1.271   2.759   0.007   4.037
   40        1.264   2.775   0.007   4.045
   41        1.263   2.777   0.007   4.047
   42        1.271   2.760   0.008   4.039
   43        1.258   2.787   0.007   4.052
   44        1.260   2.790   0.006   4.056
   45        1.259   2.793   0.006   4.058
   46        1.257   2.789   0.006   4.053
   47        1.256   2.797   0.006   4.059
   48        1.282   2.726   0.008   4.016
   49        1.271   2.767   0.007   4.045
   50        1.259   2.790   0.006   4.055
   51        1.270   2.768   0.007   4.045
   52        1.259   2.791   0.006   4.056
   53        1.256   2.797   0.006   4.059
   54        1.282   2.725   0.008   4.015
   55        1.258   2.788   0.007   4.053
   56        1.259   2.792   0.007   4.057
   57        1.259   2.792   0.006   4.057
   58        1.258   2.788   0.006   4.053
--------------------------------------------------
tot          65.67   97.31  126.88  289.86
 
magnetization (x)
 
# of ion       s       p       d       tot
------------------------------------------
    1        0.000   0.000  -0.000   0.000
    2       -0.002  -0.002  -0.000  -0.005
    3       -0.002  -0.002  -0.000  -0.005
    4        0.004   0.004  -0.000   0.008
    5        0.004   0.005  -0.000   0.008
    6        0.003   0.005   0.000   0.008
    7       -0.002  -0.001  -0.000  -0.004
    8        0.004   0.005  -0.000   0.008
    9       -0.002  -0.001  -0.000  -0.003
   10       -0.001  -0.000  -0.000  -0.001
   11        0.002  -0.000   0.444   0.446
   12        0.002  -0.000   0.477   0.478
   13       -0.003   0.000  -0.557  -0.559
   14       -0.000   0.001   0.188   0.189
   15        0.005  -0.000   0.522   0.527
   16        0.001  -0.000   0.396   0.397
   17        0.001  -0.000   0.264   0.264
   18        0.001  -0.000   0.279   0.280
   19        0.001  -0.000   0.265   0.266
   20        0.000   0.000   0.202   0.202
   21        0.006  -0.000   0.555   0.561
   22        0.002  -0.000   0.504   0.506
   23       -0.002   0.000  -0.520  -0.522
   24       -0.001  -0.000  -0.264  -0.266
   25       -0.001  -0.000  -0.327  -0.329
   26        0.002  -0.000   0.399   0.401
   27        0.002   0.026   0.000   0.029
   28        0.004   0.031   0.000   0.035
   29        0.004   0.030   0.000   0.034
   30        0.002   0.018   0.000   0.020
   31        0.003   0.020   0.000   0.022
   32        0.005   0.082   0.000   0.087
   33        0.005   0.053   0.000   0.057
   34       -0.005  -0.073  -0.000  -0.079
   35        0.007   0.060   0.000   0.067
   36       -0.004  -0.075  -0.000  -0.080
   37        0.005   0.036   0.000   0.042
   38        0.006   0.082   0.000   0.088
   39       -0.004  -0.039  -0.000  -0.043
   40       -0.001  -0.001  -0.000  -0.001
   41        0.004   0.030   0.000   0.034
   42        0.002   0.021   0.000   0.023
   43       -0.001  -0.019  -0.000  -0.020
   44       -0.004  -0.045  -0.000  -0.049
   45        0.004   0.044   0.000   0.048
   46        0.006   0.048   0.000   0.053
   47        0.005   0.083   0.000   0.088
   48        0.002   0.031   0.000   0.033
   49       -0.006  -0.077  -0.000  -0.083
   50        0.005   0.064   0.000   0.069
   51       -0.005  -0.077  -0.000  -0.082
   52        0.007   0.069   0.000   0.076
   53        0.006   0.084   0.000   0.090
   54        0.004   0.045   0.000   0.049
   55        0.005   0.045   0.000   0.051
   56        0.004   0.041   0.000   0.044
   57        0.003   0.036   0.000   0.039
   58        0.005   0.043   0.000   0.049
--------------------------------------------------
tot           0.09    0.73    2.83    3.65
 

 total amount of memory used by VASP MPI-rank0    94883. kBytes
=======================================================================

   base      :      30000. kBytes
   nonlr-proj:      23014. kBytes
   fftplans  :       5418. kBytes
   grid      :      31961. kBytes
   one-center:        902. kBytes
   wavefun   :       3588. kBytes
 
  
  
 General timing and accounting informations for this job:
 ========================================================
  
                  Total CPU time used (sec):      730.540
                            User time (sec):      727.395
                          System time (sec):        3.145
                         Elapsed time (sec):      737.526
  
                   Maximum memory used (kb):      145872.
                   Average memory used (kb):           0.
  
                          Minor page faults:        39047
                          Major page faults:           43
                 Voluntary context switches:         1380
