 vasp.5.4.4.18Apr17-6-g9f103f2a35 (build May 12 2020 05:39:39) gamma-only       
  
 MD_VERSION_INFO: Compiled 2020-05-12T12:39:39-UTC in devlin.sd.materialsdesign.
 com:/home/medea2/data/build/wwolf/vasp-gpu5.4.4/13047/x86_64/src/src/build/gam 
 from svn 13047
 
 This VASP executable licensed from Materials Design, Inc.
 
 executed on                        Lin64 date 2023.03.07  00:23:34
 running on   16 total cores
 distrk:  each k-point on   16 cores,    1 groups
 distr:  one band on NCORES_PER_BAND=   1 cores,   16 groups


--------------------------------------------------------------------------------------------------------


 INCAR:
 POTCAR:    PAW_PBE Li_sv 10Sep2004               
 POTCAR:    PAW_PBE Ni 02Aug2007                  
 POTCAR:    PAW_PBE O 08Apr2002                   

 ----------------------------------------------------------------------------- 
|                                                                             |
|           W    W    AA    RRRRR   N    N  II  N    N   GGGG   !!!           |
|           W    W   A  A   R    R  NN   N  II  NN   N  G    G  !!!           |
|           W    W  A    A  R    R  N N  N  II  N N  N  G       !!!           |
|           W WW W  AAAAAA  RRRRR   N  N N  II  N  N N  G  GGG   !            |
|           WW  WW  A    A  R   R   N   NN  II  N   NN  G    G                |
|           W    W  A    A  R    R  N    N  II  N    N   GGGG   !!!           |
|                                                                             |
|      For optimal performance we recommend to set                            |
|        NCORE= 4 - approx SQRT( number of cores)                             |
|      NCORE specifies how many cores store one orbital (NPAR=cpu/NCORE).     |
|      This setting can  greatly improve the performance of VASP for DFT.     |
|      The default,   NCORE=1            might be grossly inefficient         |
|      on modern multi-core architectures or massively parallel machines.     |
|      Do your own testing !!!!                                               |
|      Unfortunately you need to use the default for GW and RPA calculations. |
|      (for HF NCORE is supported but not extensively tested yet)             |
|                                                                             |
 ----------------------------------------------------------------------------- 

 POTCAR:    PAW_PBE Li_sv 10Sep2004               
  local pseudopotential read in
  atomic valenz-charges read in
  non local Contribution for L=           0  read in
    real space projection operators read in
  non local Contribution for L=           0  read in
    real space projection operators read in
  non local Contribution for L=           1  read in
    real space projection operators read in
    PAW grid and wavefunctions read in
 
   number of l-projection  operators is LMAX  =           3
   number of lm-projection operators is LMMAX =           5
 
 POTCAR:    PAW_PBE Ni 02Aug2007                  
  local pseudopotential read in
  partial core-charges read in
  partial kinetic energy density read in
  atomic valenz-charges read in
  non local Contribution for L=           2  read in
    real space projection operators read in
  non local Contribution for L=           2  read in
    real space projection operators read in
  non local Contribution for L=           0  read in
    real space projection operators read in
  non local Contribution for L=           0  read in
    real space projection operators read in
  non local Contribution for L=           1  read in
    real space projection operators read in
  non local Contribution for L=           1  read in
    real space projection operators read in
    PAW grid and wavefunctions read in
 
   number of l-projection  operators is LMAX  =           6
   number of lm-projection operators is LMMAX =          18
 
 POTCAR:    PAW_PBE O 08Apr2002                   
  local pseudopotential read in
  partial core-charges read in
  partial kinetic energy density read in
  kinetic energy density of atom read in
  atomic valenz-charges read in
  non local Contribution for L=           0  read in
    real space projection operators read in
  non local Contribution for L=           0  read in
    real space projection operators read in
  non local Contribution for L=           1  read in
    real space projection operators read in
  non local Contribution for L=           1  read in
    real space projection operators read in
    PAW grid and wavefunctions read in
 
   number of l-projection  operators is LMAX  =           4
   number of lm-projection operators is LMMAX =           8
 
 Optimization of the real space projectors (new method)

 maximal supplied QI-value         = 22.11
 optimisation between [QCUT,QGAM] = [ 11.28, 22.77] = [ 35.61,145.23] Ry 
 Optimized for a Real-space Cutoff    1.10 Angstroem

   l    n(q)    QCUT    max X(q) W(low)/X(q) W(high)/X(q)  e(spline) 
   0      7    11.276    10.506    0.54E-04    0.58E-04    0.16E-07
   0      7    11.276     8.367    0.11E-03    0.14E-03    0.35E-07
   1      7    11.276     8.983    0.23E-03    0.43E-03    0.86E-07
 Optimization of the real space projectors (new method)

 maximal supplied QI-value         = 16.25
 optimisation between [QCUT,QGAM] = [ 11.38, 22.75] = [ 36.24,144.96] Ry 
 Optimized for a Real-space Cutoff    1.47 Angstroem

   l    n(q)    QCUT    max X(q) W(low)/X(q) W(high)/X(q)  e(spline) 
   2      9    11.376    60.317    0.17E-03    0.16E-04    0.16E-06
   2      9    11.376    55.921    0.17E-03    0.16E-04    0.17E-06
   0     10    11.376    51.690    0.45E-04    0.60E-04    0.21E-06
   0     10    11.376    30.015    0.37E-04    0.55E-04    0.19E-06
   1     10    11.376    18.849    0.83E-04    0.11E-03    0.92E-07
   1     10    11.376    14.624    0.69E-04    0.92E-04    0.82E-07
 Optimization of the real space projectors (new method)

 maximal supplied QI-value         = 24.76
 optimisation between [QCUT,QGAM] = [ 11.39, 22.77] = [ 36.31,145.25] Ry 
 Optimized for a Real-space Cutoff    1.10 Angstroem

   l    n(q)    QCUT    max X(q) W(low)/X(q) W(high)/X(q)  e(spline) 
   0      7    11.387    20.381    0.22E-03    0.48E-03    0.18E-06
   0      7    11.387    15.268    0.22E-03    0.52E-03    0.19E-06
   1      7    11.387     5.964    0.22E-03    0.73E-03    0.24E-06
   1      7    11.387     5.382    0.19E-03    0.60E-03    0.21E-06

 ----------------------------------------------------------------------------- 
|                                                                             |
|  ADVICE TO THIS USER RUNNING 'VASP/VAMP'   (HEAR YOUR MASTER'S VOICE ...):  |
|                                                                             |
|      You enforced a specific xc-type in the INCAR file,                     |
|      a different type was found on the POTCAR file                          |
|          I HOPE YOU KNOW, WHAT YOU ARE  DOING                               |
|                                                                             |
 ----------------------------------------------------------------------------- 

  PAW_PBE Li_sv 10Sep2004               :
 energy of atom  1       EATOM= -202.7858
 kinetic energy error for atom=    0.0143 (will be added to EATOM!!)
  PAW_PBE Ni 02Aug2007                  :
 energy of atom  2       EATOM=-1077.6739
 kinetic energy error for atom=    0.0030 (will be added to EATOM!!)
  PAW_PBE O 08Apr2002                   :
 energy of atom  3       EATOM= -432.3788
 kinetic energy error for atom=    0.0224 (will be added to EATOM!!)
 
 
 POSCAR: ce15860_1                               
  positions in direct lattice
  No initial velocities read in
 exchange correlation table for  LEXCH =       14
   RHO(1)=    0.500       N(1)  =     2000
   RHO(2)=  100.500       N(2)  =     4000
 


--------------------------------------------------------------------------------------------------------


 ion  position               nearest neighbor table
   1  0.254  0.251  0.483-  46 2.01  40 2.08  28 2.09  38 2.14  26 2.22  50 2.23  11 2.78  23 2.83

   2  0.746  0.251  0.483-  49 2.01  40 2.08  28 2.09  38 2.14  26 2.22  53 2.23  14 2.78  23 2.83

   3  0.500  0.751  0.715-  41 1.96  47 2.04  48 2.04  36 2.28  35 2.28  23 2.70
   4  0.000  0.249  0.748-  26 2.03  50 2.13  53 2.13  44 2.14  33 2.15  30 2.15  16 2.84
   5  0.000  0.751  0.284-  27 1.91  51 2.05  52 2.05  16 2.71
   6  0.254  0.249  0.019-  34 2.04  54 2.06  42 2.08  56 2.16  44 2.19  20 2.75
   7  0.250  0.749  0.999-  43 2.11  35 2.12  57 2.13  31 2.13  45 2.14  55 2.15
   8  0.750  0.749  0.999-  43 2.11  36 2.12  57 2.13  32 2.13  45 2.14  55 2.15
   9  0.746  0.249  0.019-  37 2.04  54 2.06  42 2.08  56 2.16  44 2.19  21 2.75
  10  0.000  0.995  0.998-  34 1.85  37 1.85  36 1.86  35 1.86  45 2.02  44 2.03  15 2.78  15 2.78
                            12 2.83  13 2.83  11 2.84  14 2.84
  11  0.250  0.001  0.249-  40 1.86  45 1.88  28 1.89  57 1.89  51 1.94  34 1.96   1 2.78  14 2.78
                            14 2.79  16 2.83  15 2.83  10 2.84  17 2.84
  12  0.250  0.006  0.753-  41 1.84  29 1.85  44 1.86  56 1.88  50 2.04  35 2.05  13 2.78  13 2.79
                            10 2.83  15 2.84  17 2.85  16 2.86
  13  0.750  0.006  0.753-  41 1.84  29 1.85  44 1.86  56 1.88  53 2.04  36 2.05  12 2.78  12 2.79
                            10 2.83  15 2.84  17 2.85  16 2.86
  14  0.750  0.001  0.249-  40 1.86  45 1.88  28 1.89  57 1.89  52 1.94  37 1.96   2 2.78  11 2.78
                            11 2.79  16 2.83  15 2.83  10 2.84  17 2.84
  15  0.500  0.998  0.999-  35 1.84  36 1.84  34 1.85  37 1.85  56 1.91  57 1.93  10 2.78  10 2.78
                            14 2.83  11 2.83  12 2.84  13 2.84
  16  0.000  0.003  0.499-  51 1.85  52 1.85  50 1.85  53 1.85  29 1.91  28 1.93   5 2.71  17 2.78
                            17 2.78  11 2.83  14 2.83   4 2.84  13 2.86  12 2.86
  17  0.500  0.000  0.499-  51 1.86  52 1.86  50 1.86  53 1.86  41 1.96  40 1.97  16 2.78  16 2.78
                            11 2.84  14 2.84  13 2.85  12 2.85
  18  0.000  0.506  0.504-  46 1.84  49 1.84  48 1.85  47 1.85  27 2.02  26 2.12  23 2.78  23 2.78
                            19 2.82  22 2.82  21 2.85  20 2.85
  19  0.250  0.497  0.749-  26 1.86  55 1.86  38 1.90  43 1.91  47 1.94  30 2.00  22 2.78  22 2.79
                            18 2.82  23 2.83  25 2.84  24 2.84
  20  0.251  0.496  0.250-  27 1.83  54 1.85  39 1.86  42 1.89  46 1.99  31 2.05   6 2.75  21 2.77
                            21 2.79  23 2.83  25 2.84  24 2.85  18 2.85
  21  0.749  0.496  0.250-  27 1.83  54 1.85  39 1.86  42 1.89  49 1.99  32 2.05   9 2.75  20 2.77
                            20 2.79  23 2.83  25 2.84  24 2.85  18 2.85
  22  0.750  0.497  0.749-  26 1.86  55 1.86  38 1.90  43 1.91  48 1.94  33 2.00  19 2.78  19 2.79
                            18 2.82  23 2.83  25 2.84  24 2.84
  23  0.500  0.500  0.500-  46 1.85  49 1.85  48 1.85  47 1.85  39 1.89  38 1.91   3 2.70  18 2.78
                            18 2.78  21 2.83  20 2.83   2 2.83   1 2.83  22 2.83  19 2.83
  24  0.000  0.500  1.000-  31 1.85  32 1.85  30 1.85  33 1.85  43 1.90  42 1.90  25 2.78  25 2.78
                            19 2.84  22 2.84  21 2.85  20 2.85
  25  0.500  0.499  1.000-  31 1.85  32 1.85  30 1.86  33 1.86  54 1.98  55 2.03  24 2.78  24 2.78
                            19 2.84  22 2.84  21 2.84  20 2.84
  26  0.000  0.388  0.643-  19 1.86  22 1.86   4 2.03  18 2.12   1 2.22   2 2.22
  27  0.000  0.599  0.354-  20 1.83  21 1.83   5 1.91  18 2.02
  28  0.000  0.105  0.367-  11 1.89  14 1.89  16 1.93   2 2.09   1 2.09
  29  0.000  0.910  0.636-  12 1.85  13 1.85  16 1.91
  30  0.249  0.396  0.889-  24 1.85  25 1.86  19 2.00   4 2.15
  31  0.249  0.603  0.109-  24 1.85  25 1.85  20 2.05   7 2.13
  32  0.751  0.603  0.109-  24 1.85  25 1.85  21 2.05   8 2.13
  33  0.751  0.396  0.889-  24 1.85  25 1.86  22 2.00   4 2.15
  34  0.248  0.098  0.109-  10 1.85  15 1.85  11 1.96   6 2.04
  35  0.253  0.894  0.888-  15 1.84  10 1.86  12 2.05   7 2.12   3 2.28
  36  0.747  0.894  0.888-  15 1.84  10 1.86  13 2.05   8 2.12   3 2.28
  37  0.752  0.098  0.109-  10 1.85  15 1.85  14 1.96   9 2.04
  38  0.500  0.395  0.626-  19 1.90  22 1.90  23 1.91   2 2.14   1 2.14
  39  0.500  0.594  0.366-  20 1.86  21 1.86  23 1.89
  40  0.500  0.103  0.363-  11 1.86  14 1.86  17 1.97   2 2.08   1 2.08
  41  0.500  0.907  0.642-  12 1.84  13 1.84   3 1.96  17 1.96
  42  0.000  0.397  0.128-  20 1.89  21 1.89  24 1.90   9 2.08   6 2.08
  43  0.000  0.601  0.871-  24 1.90  22 1.91  19 1.91   8 2.11   7 2.11
  44  0.000  0.109  0.866-  12 1.86  13 1.86  10 2.03   4 2.14   9 2.19   6 2.19
  45  0.000  0.892  0.139-  11 1.88  14 1.88  10 2.02   8 2.14   7 2.14
  46  0.245  0.400  0.393-  18 1.84  23 1.85  20 1.99   1 2.01
  47  0.254  0.600  0.617-  18 1.85  23 1.85  19 1.94   3 2.04
  48  0.746  0.600  0.617-  18 1.85  23 1.85  22 1.94   3 2.04
  49  0.755  0.400  0.393-  18 1.84  23 1.85  21 1.99   2 2.01
  50  0.249  0.108  0.608-  16 1.85  17 1.86  12 2.04   4 2.13   1 2.23
  51  0.248  0.902  0.385-  16 1.85  17 1.86  11 1.94   5 2.05
  52  0.752  0.902  0.385-  16 1.85  17 1.86  14 1.94   5 2.05
  53  0.751  0.108  0.608-  16 1.85  17 1.86  13 2.04   4 2.13   2 2.23
  54  0.500  0.396  0.136-  20 1.85  21 1.85  25 1.98   9 2.06   6 2.06
  55  0.500  0.603  0.859-  19 1.86  22 1.86  25 2.03   8 2.15   7 2.15
  56  0.500  0.104  0.873-  12 1.88  13 1.88  15 1.91   9 2.16   6 2.16
  57  0.500  0.896  0.130-  11 1.89  14 1.89  15 1.93   8 2.13   7 2.13
 
  LATTYP: Found a simple monoclinic cell.
 ALAT       =    11.4581262595
 B/A-ratio  =     0.4859469181
 C/A-ratio  =     1.6864935031
 COS(beta)  =    -0.9041422094
  
  Lattice vectors:
  
 A1 = (  -6.2687271916,   0.0000000000,  -9.5912312440)
 A2 = (   0.0000000000,  -5.5680411425,   0.0000000000)
 A3 = (   2.6480368122,   0.0000000000,  19.1417611991)


Analysis of symmetry for initial positions (statically):
=====================================================================
 Subroutine PRICEL returns:
 Original cell was already a primitive cell.
 

 Routine SETGRP: Setting up the symmetry group for a 
 simple monoclinic supercell.


 Subroutine GETGRP returns: Found  2 space group operations
 (whereof  2 operations were pure point group operations)
 out of a pool of  4 trial point group operations.


The static configuration has the point symmetry C_1h.


Analysis of symmetry for dynamics (positions and initial velocities):
=====================================================================
 Subroutine PRICEL returns:
 Original cell was already a primitive cell.
 

 Routine SETGRP: Setting up the symmetry group for a 
 simple monoclinic supercell.


 Subroutine GETGRP returns: Found  2 space group operations
 (whereof  2 operations were pure point group operations)
 out of a pool of  4 trial point group operations.


The dynamic configuration has the point symmetry C_1h.


Analysis of structural, dynamic, and magnetic symmetry:
=====================================================================
 Subroutine PRICEL returns:
 Original cell was already a primitive cell.
 

 Routine SETGRP: Setting up the symmetry group for a 
 simple monoclinic supercell.


 Subroutine GETGRP returns: Found  2 space group operations
 (whereof  2 operations were pure point group operations)
 out of a pool of  4 trial point group operations.


The magnetic configuration has the point symmetry C_1h.


 Subroutine INISYM returns: Found  2 space group operations
 (whereof  2 operations are pure point group operations),
 and found     1 'primitive' translations

 
 
 KPOINTS: Automatic mesh                          

Automatic generation of k-mesh.
Space group operators:
 irot       det(A)        alpha          n_x          n_y          n_z        tau_x        tau_y        tau_z
    1     1.000000     0.000000     1.000000     0.000000     0.000000     0.000000     0.000000     0.000000
    2    -1.000000   180.000000     0.000000     1.000000     0.000000     0.000000     0.000000     0.000000
 
 Subroutine IBZKPT returns following result:
 ===========================================
 
 Found      1 irreducible k-points:
 
 Following reciprocal coordinates:
            Coordinates               Weight
  0.000000  0.000000  0.000000      1.000000
 
 Following cartesian coordinates:
            Coordinates               Weight
  0.000000  0.000000  0.000000      1.000000
 


--------------------------------------------------------------------------------------------------------




 Dimension of arrays:
   k-points           NKPTS =      1   k-points in BZ     NKDIM =      1   number of bands    NBANDS=    256
   number of dos      NEDOS =    301   number of ions     NIONS =     57
   non local maximal  LDIM  =      6   non local SUM 2l+1 LMDIM =     18
   total plane-waves  NPLWV = 241920
   max r-space proj   IRMAX =   6216   max aug-charges    IRDMAX=  15086
   dimension x,y,z NGX =    42 NGY =   80 NGZ =   72
   dimension x,y,z NGXF=    84 NGYF=  160 NGZF=  144
   support grid    NGXF=    84 NGYF=  160 NGZF=  144
   ions per type =               9  16  32
   NGX,Y,Z   is equivalent  to a cutoff of  12.54, 13.02, 12.10 a.u.
   NGXF,Y,Z  is equivalent  to a cutoff of  25.08, 26.04, 24.21 a.u.

 SYSTEM =  unknown system                          
 POSCAR =  ce15860_1                               

 Startparameter for this run:
   NWRITE =      1    write-flag & timer
   PREC   = accura    normal or accurate (medium, high low for compatibility)
   ISTART =      0    job   : 0-new  1-cont  2-samecut
   ICHARG =      2    charge: 1-file 2-atom 10-const
   ISPIN  =      2    spin polarized calculation?
   LNONCOLLINEAR =      F non collinear calculations
   LSORBIT =      F    spin-orbit coupling
   INIWAV =      1    electr: 0-lowe 1-rand  2-diag
   LASPH  =      F    aspherical Exc in radial PAW
   METAGGA=      F    non-selfconsistent MetaGGA calc.

 Electronic Relaxation 1
   ENCUT  =  500.0 eV  36.75 Ry    6.06 a.u.  10.15 18.62 18.03*2*pi/ulx,y,z
   ENINI  =  500.0     initial cutoff
   ENAUG  =  628.9 eV  augmentation charge cutoff
   NELM   =     80;   NELMIN=  2; NELMDL= -5     # of ELM steps 
   EDIFF  = 0.1E-04   stopping-criterion for ELM
   LREAL  =      T    real-space projection
   NLSPLINE    = F    spline interpolate recip. space projectors
   LCOMPAT=      F    compatible to vasp.4.4
   GGA_COMPAT  = T    GGA compatible to vasp.4.4-vasp.4.6
   LMAXPAW     = -100 max onsite density
   LMAXMIX     =    2 max onsite mixed and CHGCAR
   VOSKOWN=      1    Vosko Wilk Nusair interpolation
   ROPT   =   -0.00025  -0.00025  -0.00025
 Ionic relaxation
   EDIFFG = -.2E-01   stopping-criterion for IOM
   NSW    =     20    number of steps for IOM
   NBLOCK =      1;   KBLOCK =     20    inner block; outer block 
   IBRION =      1    ionic relax: 0-MD 1-quasi-New 2-CG
   NFREE  =      0    steps in history (QN), initial steepest desc. (CG)
   ISIF   =      3    stress and relaxation
   IWAVPR =     11    prediction:  0-non 1-charg 2-wave 3-comb
   ISYM   =      2    0-nonsym 1-usesym 2-fastsym
   LCORR  =      T    Harris-Foulkes like correction to forces

   POTIM  = 0.5000    time-step for ionic-motion
   TEIN   =    0.0    initial temperature
   TEBEG  =    0.0;   TEEND  =   0.0 temperature during run
   SMASS  =  -3.00    Nose mass-parameter (am)
   estimated Nose-frequenzy (Omega)   =  0.10E-29 period in steps =****** mass=  -0.709E-27a.u.
   SCALEE = 1.0000    scale energy and forces
   NPACO  =    256;   APACO  = 16.0  distance and # of slots for P.C.
   PSTRESS=    0.0 pullay stress

  Mass of Ions in am
   POMASS =   7.01 58.69 16.00
  Ionic Valenz
   ZVAL   =   3.00 10.00  6.00
  Atomic Wigner-Seitz radii
   RWIGS  =   1.23  1.15  0.73
  virtual crystal weights 
   VCA    =   1.00  1.00  1.00
   NELECT =     379.0000    total number of electrons
   NUPDOWN=      -1.0000    fix difference up-down

 DOS related values:
   EMIN   =  10.00;   EMAX   =-10.00  energy-range for DOS
   EFERMI =   0.00
   ISMEAR =     0;   SIGMA  =   0.05  broadening in eV -4-tet -1-fermi 0-gaus

 Electronic relaxation 2 (details)
   IALGO  =     38    algorithm
   LDIAG  =      T    sub-space diagonalisation (order eigenvalues)
   LSUBROT=      F    optimize rotation matrix (better conditioning)
   TURBO    =      0    0=normal 1=particle mesh
   IRESTART =      0    0=no restart 2=restart with 2 vectors
   NREBOOT  =      0    no. of reboots
   NMIN     =      0    reboot dimension
   EREF     =   0.00    reference energy to select bands
   IMIX   =      4    mixing-type and parameters
     AMIX     =   0.40;   BMIX     =  1.00
     AMIX_MAG =   1.60;   BMIX_MAG =  1.00
     AMIN     =   0.10
     WC   =   100.;   INIMIX=   1;  MIXPRE=   1;  MAXMIX= -45

 Intra band minimization:
   WEIMIN = 0.0010     energy-eigenvalue tresh-hold
   EBREAK =  0.98E-08  absolut break condition
   DEPER  =   0.30     relativ break condition  

   TIME   =   0.40     timestep for ELM

  volume/ion in A,a.u.               =       9.24        62.36
  Fermi-wavevector in a.u.,A,eV,Ry     =   1.466995  2.772219 29.280753  2.152075
  Thomas-Fermi vector in A             =   2.582666
 
 Write flags
   LWAVE        =      F    write WAVECAR
   LDOWNSAMPLE  =      F    k-point downsampling of WAVECAR
   LCHARG       =      T    write CHGCAR
   LVTOT        =      F    write LOCPOT, total local potential
   LVHAR        =      F    write LOCPOT, Hartree potential only
   LELF         =      F    write electronic localiz. function (ELF)
   LORBIT       =      0    0 simple, 1 ext, 2 COOP (PROOUT), +10 PAW based schemes


 Dipole corrections
   LMONO  =      F    monopole corrections only (constant potential shift)
   LDIPOL =      F    correct potential (dipole corrections)
   IDIPOL =      0    1-x, 2-y, 3-z, 4-all directions 
   EPSILON=  1.0000000 bulk dielectric constant

 Exchange correlation treatment:
   GGA     =    PS    GGA type
   LEXCH   =    14    internal setting for exchange type
   VOSKOWN=      1    Vosko Wilk Nusair interpolation
   LHFCALC =     F    Hartree Fock is set to
   LHFONE  =     F    Hartree Fock one center treatment
   AEXX    =    0.0000 exact exchange contribution

 Linear response parameters
   LEPSILON=     F    determine dielectric tensor
   LRPA    =     F    only Hartree local field effects (RPA)
   LNABLA  =     F    use nabla operator in PAW spheres
   LVEL    =     F    velocity operator in full k-point grid
   LINTERFAST=   F  fast interpolation
   KINTER  =     0    interpolate to denser k-point grid
   CSHIFT  =0.1000    complex shift for real part using Kramers Kronig
   OMEGAMAX=  -1.0    maximum frequency
   DEG_THRESHOLD= 0.2000000E-02 threshold for treating states as degnerate
   RTIME   =   -0.100 relaxation time in fs
  (WPLASMAI=    0.000 imaginary part of plasma frequency in eV, 0.658/RTIME)
   DFIELD  = 0.0000000 0.0000000 0.0000000 field for delta impulse in time
 
 Orbital magnetization related:
   ORBITALMAG=     F  switch on orbital magnetization
   LCHIMAG   =     F  perturbation theory with respect to B field
   DQ        =  0.001000  dq finite difference perturbation B field
   LLRAUG    =     F  two centre corrections for induced B field



--------------------------------------------------------------------------------------------------------


 quasi-Newton-method for relaxation of ions
 charge density and potential will be updated during run
 spin polarized calculation
 Variant of blocked Davidson
 Davidson routine will perform the subspace rotation
 perform sub-space diagonalisation
    after iterative eigenvector-optimisation
 modified Broyden-mixing scheme, WC =      100.0
 initial mixing is a Kerker type mixing with AMIX =  0.4000 and BMIX =      1.0000
 Hartree-type preconditioning will be used
 using additional bands           66
 real space projection scheme for non local part
 use partial core corrections
 calculate Harris-corrections to forces 
   (improved forces if not selfconsistent)
 use gradient corrections 
 use of overlap-Matrix (Vanderbilt PP)
 Gauss-broadening in eV      SIGMA  =   0.05


--------------------------------------------------------------------------------------------------------


  energy-cutoff  :      500.00
  volume of cell :      526.72
      direct lattice vectors                 reciprocal lattice vectors
     0.000000000  5.568041143  0.000000000     0.000000000  0.179596374  0.000000000
    -3.620690379  0.000000000  9.550529955    -0.000430262  0.000000000  0.104543115
     9.889417571  0.000000000  0.040701289     0.100960663  0.000000000  0.038275080

  length of vectors
     5.568041143 10.213815215  9.889501327     0.179596374  0.104544001  0.107972391


 
 k-points in units of 2pi/SCALE and weight: Automatic mesh                          
   0.00000000  0.00000000  0.00000000       1.000
 
 k-points in reciprocal lattice and weights: Automatic mesh                          
   0.00000000  0.00000000  0.00000000       1.000
 
 position of ions in fractional coordinates (direct lattice) 
   0.25431168  0.25146932  0.48253952
   0.74568832  0.25146932  0.48253952
   0.50000000  0.75108066  0.71484157
   0.00000000  0.24945121  0.74820693
   0.00000000  0.75096919  0.28378640
   0.25416394  0.24866211  0.01900950
   0.24971554  0.74896218  0.99875829
   0.75028446  0.74896218  0.99875829
   0.74583606  0.24866211  0.01900950
   0.00000000  0.99509832  0.99769235
   0.25009543  0.00067386  0.24937300
   0.24961978  0.00574994  0.75250765
   0.75038022  0.00574994  0.75250765
   0.74990457  0.00067386  0.24937300
   0.50000000  0.99762744  0.99905632
   0.00000000  0.00313806  0.49931480
   0.50000000  0.00009670  0.49910197
   0.00000000  0.50581536  0.50444729
   0.25032587  0.49716764  0.74900280
   0.25085764  0.49619575  0.24973802
   0.74914236  0.49619575  0.24973802
   0.74967413  0.49716764  0.74900280
   0.50000000  0.49995228  0.50029861
   0.00000000  0.49972224  0.99992570
   0.50000000  0.49948972  0.99999153
   0.00000000  0.38845947  0.64342072
   0.00000000  0.59911920  0.35447940
   0.00000000  0.10467034  0.36734745
   0.00000000  0.90994102  0.63644092
   0.24879375  0.39601566  0.88924090
   0.24900660  0.60334679  0.10897146
   0.75099340  0.60334679  0.10897146
   0.75120625  0.39601566  0.88924090
   0.24766627  0.09751265  0.10935076
   0.25334990  0.89373075  0.88839866
   0.74665010  0.89373075  0.88839866
   0.75233373  0.09751265  0.10935076
   0.50000000  0.39482677  0.62642353
   0.50000000  0.59436541  0.36646501
   0.50000000  0.10255518  0.36297695
   0.50000000  0.90653794  0.64196801
   0.00000000  0.39728128  0.12771077
   0.00000000  0.60088970  0.87148893
   0.00000000  0.10938077  0.86557855
   0.00000000  0.89185819  0.13856414
   0.24480558  0.40031589  0.39319868
   0.25351808  0.59976426  0.61724682
   0.74648192  0.59976426  0.61724682
   0.75519442  0.40031589  0.39319868
   0.24946731  0.10751367  0.60777033
   0.24761223  0.90244629  0.38547043
   0.75238777  0.90244629  0.38547043
   0.75053269  0.10751367  0.60777033
   0.50000000  0.39585104  0.13606335
   0.50000000  0.60346287  0.85918671
   0.50000000  0.10369435  0.87341809
   0.50000000  0.89598960  0.13041770
 
 position of ions in cartesian coordinates  (Angst):
   3.86154226  1.41601790  2.42130525
   3.86154226  4.15202325  2.42130525
   4.34993626  2.78402057  7.20231332
   6.49614516  0.00000000  2.41284424
   0.08745529  0.00000000  7.18370422
  -0.71233563  1.41519527  2.37562864
   7.16537762  1.39042640  7.19363649
   7.16537762  4.17761474  7.19363649
  -0.71233563  4.15284587  2.37562864
   6.26365334  0.00000000  9.54432368
   2.46371389  1.39254164  0.01658552
   7.42104362  1.38989321  0.08554301
   7.42104362  4.17814794  0.08554301
   2.46371389  4.17549950  0.01658552
   6.26798505  2.78402057  9.56853363
   4.92657061  0.00000000  0.05029289
   4.93547767  2.78402057  0.02123763
   3.15728909  0.00000000  4.85133640
   5.60711136  1.39382474  4.77869982
   0.67319238  1.39678566  4.74909703
   0.67319238  4.17125548  4.74909703
   5.60711136  4.17421640  4.77869982
   3.13748945  2.78402057  4.79517202
   8.07934328  0.00000000  4.81331049
   8.08083618  2.78402057  4.81109248
   4.95656471  0.00000000  3.73618186
   1.33636968  0.00000000  5.73633363
   3.25387343  0.00000000  1.01460873
   2.99941532  0.00000000  8.71632293
   7.36022449  1.38529384  3.81835267
  -1.10686765  1.38647899  5.76671687
  -1.10686765  4.18156215  5.76671687
   7.36022449  4.18274731  3.81835267
   0.72835221  1.37901598  0.93574820
   5.54982299  1.41066267  8.57176127
   5.54982299  4.15737848  8.57176127
   0.72835221  4.18902516  0.93574820
   4.76541838  2.78402057  3.79630114
   1.47211239  2.78402057  5.69142025
   3.21831007  2.78402057  0.99422995
   3.06639652  2.78402057  8.68404668
  -0.17544738  0.00000000  3.79944476
   6.44288238  0.00000000  5.77428580
   8.16403382  0.00000000  1.07987448
  -1.85882373  0.00000000  8.52335810
   2.43908604  1.36308754  3.83923259
   3.93265086  1.41159910  5.75318927
   3.93265086  4.15644204  5.75318927
   2.43908604  4.20495360  3.83923259
   5.62122087  1.38904425  1.05154956
   0.54459944  1.37871508  8.63452947
   0.54459944  4.18932606  8.63452947
   5.62122087  4.17899690  1.05154956
  -0.08766677  2.78402057  3.78612517
   6.31190394  2.78402057  5.79836022
   8.26215107  2.78402057  1.02588524
  -1.95434583  2.78402057  8.56248368
 


--------------------------------------------------------------------------------------------------------


 use serial FFT for orbitals x direction half grid
 k-point  1 :   0.0000 0.0000 0.0000  plane waves:    6679

 maximum and minimum number of plane-waves per node :      6679     6679

 maximum number of plane-waves:      6679
 maximum index in each direction: 
   IXMAX=   10   IYMAX=   18   IZMAX=   17
   IXMIN=    0   IYMIN=  -18   IZMIN=  -18

 The following grids will avoid any aliasing or wrap around errors in the Hartre
 e energy
  - symmetry arguments have not been applied
  - exchange correlation energies might require even more grid points
  - we recommend to set PREC=Normal or Accurate and rely on VASP defaults
 NGX is ok and might be reduce to    42
 NGY is ok and might be reduce to    80
 NGZ is ok and might be reduce to    72

 serial   3D FFT for wavefunctions
 parallel 3D FFT for charge:
    minimum data exchange during FFTs selected (reduces bandwidth)


 total amount of memory used by VASP MPI-rank0    93478. kBytes
=======================================================================

   base      :      30000. kBytes
   nonlr-proj:      21709. kBytes
   fftplans  :       5544. kBytes
   grid      :      31764. kBytes
   one-center:        886. kBytes
   wavefun   :       3575. kBytes
 
     INWAV:  cpu time    0.0000: real time    0.0000
 Broyden mixing: mesh for mixing (old mesh)
   NGX = 21   NGY = 37   NGZ = 37
  (NGX  = 84   NGY  =160   NGZ  =144)
  gives a total of  28749 points

 initial charge density was supplied:
 charge density of overlapping atoms calculated
 number of electron     379.0000000 magnetization      40.0000000
 keeping initial charge density in first step


--------------------------------------------------------------------------------------------------------


 Maximum index for non-local projection operator         6001
 Maximum index for augmentation-charges         1416 (set IRDMAX)


--------------------------------------------------------------------------------------------------------


 First call to EWALD:  gamma=   0.219
 Maximum number of real-space cells 4x 2x 2
 Maximum number of reciprocal cells 2x 3x 3

    FEWALD:  cpu time    0.0038: real time    0.0038


--------------------------------------- Iteration      1(   1)  ---------------------------------------


    POTLOK:  cpu time    0.1648: real time    0.1703
    SETDIJ:  cpu time    0.0209: real time    0.0209
     EDDAV:  cpu time    1.7679: real time    1.7891
    --------------------------------------------
      LOOP:  cpu time    1.9540: real time    1.9808

 eigenvalue-minimisations  :  1024
 total energy-change (2. order) : 0.6610323E+04  (-0.1672454E+05)
 number of electron     379.0000000 magnetization      40.0000000
 augmentation part      379.0000000 magnetization      40.0000000

 Free energy of the ion-electron system (eV)
  ---------------------------------------------------
  alpha Z        PSCENC =      1170.09077456
  Ewald energy   TEWEN  =    -22156.09954243
  -Hartree energ DENC   =    -11367.30293967
  -exchange      EXHF   =         0.00000000
  -V(xc)+E(xc)   XCENC  =      1542.99244380
  PAW double counting   =     27181.59578623   -28434.31066105
  entropy T*S    EENTRO =        -0.00001321
  eigenvalues    EBANDS =      5850.52900993
  atomic energy  EATOM  =     32822.82841862
  Solvation  Ediel_sol  =         0.00000000
  ---------------------------------------------------
  free energy    TOTEN  =      6610.32327678 eV

  energy without entropy =     6610.32328999  energy(sigma->0) =     6610.32328338


--------------------------------------------------------------------------------------------------------




--------------------------------------- Iteration      1(   2)  ---------------------------------------


     EDDAV:  cpu time    1.7669: real time    1.7712
    --------------------------------------------
      LOOP:  cpu time    1.7668: real time    1.7710

 eigenvalue-minimisations  :  1072
 total energy-change (2. order) :-0.5366484E+04  (-0.4777983E+04)
 number of electron     379.0000000 magnetization      40.0000000
 augmentation part      379.0000000 magnetization      40.0000000

 Free energy of the ion-electron system (eV)
  ---------------------------------------------------
  alpha Z        PSCENC =      1170.09077456
  Ewald energy   TEWEN  =    -22156.09954243
  -Hartree energ DENC   =    -11367.30293967
  -exchange      EXHF   =         0.00000000
  -V(xc)+E(xc)   XCENC  =      1542.99244380
  PAW double counting   =     27181.59578623   -28434.31066105
  entropy T*S    EENTRO =        -0.01617289
  eigenvalues    EBANDS =       484.06139289
  atomic energy  EATOM  =     32822.82841862
  Solvation  Ediel_sol  =         0.00000000
  ---------------------------------------------------
  free energy    TOTEN  =      1243.83950006 eV

  energy without entropy =     1243.85567295  energy(sigma->0) =     1243.84758650


--------------------------------------------------------------------------------------------------------




--------------------------------------- Iteration      1(   3)  ---------------------------------------


     EDDAV:  cpu time    1.9559: real time    1.9605
    --------------------------------------------
      LOOP:  cpu time    1.9560: real time    1.9606

 eigenvalue-minimisations  :  1136
 total energy-change (2. order) :-0.1465936E+04  (-0.1214942E+04)
 number of electron     379.0000000 magnetization      40.0000000
 augmentation part      379.0000000 magnetization      40.0000000

 Free energy of the ion-electron system (eV)
  ---------------------------------------------------
  alpha Z        PSCENC =      1170.09077456
  Ewald energy   TEWEN  =    -22156.09954243
  -Hartree energ DENC   =    -11367.30293967
  -exchange      EXHF   =         0.00000000
  -V(xc)+E(xc)   XCENC  =      1542.99244380
  PAW double counting   =     27181.59578623   -28434.31066105
  entropy T*S    EENTRO =        -0.07237519
  eigenvalues    EBANDS =      -981.81814645
  atomic energy  EATOM  =     32822.82841862
  Solvation  Ediel_sol  =         0.00000000
  ---------------------------------------------------
  free energy    TOTEN  =      -222.09624158 eV

  energy without entropy =     -222.02386639  energy(sigma->0) =     -222.06005398


--------------------------------------------------------------------------------------------------------




--------------------------------------- Iteration      1(   4)  ---------------------------------------


     EDDAV:  cpu time    2.0576: real time    2.0625
    --------------------------------------------
      LOOP:  cpu time    2.0575: real time    2.0624

 eigenvalue-minimisations  :  1248
 total energy-change (2. order) :-0.2255185E+03  (-0.2175461E+03)
 number of electron     379.0000000 magnetization      40.0000000
 augmentation part      379.0000000 magnetization      40.0000000

 Free energy of the ion-electron system (eV)
  ---------------------------------------------------
  alpha Z        PSCENC =      1170.09077456
  Ewald energy   TEWEN  =    -22156.09954243
  -Hartree energ DENC   =    -11367.30293967
  -exchange      EXHF   =         0.00000000
  -V(xc)+E(xc)   XCENC  =      1542.99244380
  PAW double counting   =     27181.59578623   -28434.31066105
  entropy T*S    EENTRO =        -0.10345918
  eigenvalues    EBANDS =     -1207.30557287
  atomic energy  EATOM  =     32822.82841862
  Solvation  Ediel_sol  =         0.00000000
  ---------------------------------------------------
  free energy    TOTEN  =      -447.61475199 eV

  energy without entropy =     -447.51129281  energy(sigma->0) =     -447.56302240


--------------------------------------------------------------------------------------------------------




--------------------------------------- Iteration      1(   5)  ---------------------------------------


     EDDAV:  cpu time    2.5130: real time    2.5190
    CHARGE:  cpu time    0.1337: real time    0.1340
    MIXING:  cpu time    0.0033: real time    0.0083
    --------------------------------------------
      LOOP:  cpu time    2.6497: real time    2.6611

 eigenvalue-minimisations  :  1600
 total energy-change (2. order) :-0.1099167E+02  (-0.1087976E+02)
 number of electron     378.9999896 magnetization      39.8576333
 augmentation part      113.4527450 magnetization      30.4421004

 Broyden mixing:
  rms(total) = 0.11557E+02    rms(broyden)= 0.11556E+02
  rms(prec ) = 0.14216E+02
  weight for this iteration     100.00

 Free energy of the ion-electron system (eV)
  ---------------------------------------------------
  alpha Z        PSCENC =      1170.09077456
  Ewald energy   TEWEN  =    -22156.09954243
  -Hartree energ DENC   =    -11367.30293967
  -exchange      EXHF   =         0.00000000
  -V(xc)+E(xc)   XCENC  =      1542.99244380
  PAW double counting   =     27181.59578623   -28434.31066105
  entropy T*S    EENTRO =        -0.10115005
  eigenvalues    EBANDS =     -1218.29955458
  atomic energy  EATOM  =     32822.82841862
  Solvation  Ediel_sol  =         0.00000000
  ---------------------------------------------------
  free energy    TOTEN  =      -458.60642457 eV

  energy without entropy =     -458.50527452  energy(sigma->0) =     -458.55584955


--------------------------------------------------------------------------------------------------------




--------------------------------------- Iteration      1(   6)  ---------------------------------------


    POTLOK:  cpu time    0.1389: real time    0.1393
    SETDIJ:  cpu time    0.0220: real time    0.0220
     EDDAV:  cpu time    2.2130: real time    2.2183
    CHARGE:  cpu time    0.1719: real time    0.1723
    MIXING:  cpu time    0.0042: real time    0.0042
    --------------------------------------------
      LOOP:  cpu time    2.5501: real time    2.5561

 eigenvalue-minimisations  :  1584
 total energy-change (2. order) :-0.6414460E+02  (-0.1147440E+03)
 number of electron     378.9999898 magnetization      35.4721149
 augmentation part      139.3206159 magnetization      33.6241255

 Broyden mixing:
  rms(total) = 0.21933E+02    rms(broyden)= 0.21933E+02
  rms(prec ) = 0.24501E+02
  weight for this iteration     100.00

 eigenvalues of (default mixing * dielectric matrix)
  average eigenvalue GAMMA=   0.2004
  0.2004

 Free energy of the ion-electron system (eV)
  ---------------------------------------------------
  alpha Z        PSCENC =      1170.09077456
  Ewald energy   TEWEN  =    -22156.09954243
  -Hartree energ DENC   =    -10874.31634896
  -exchange      EXHF   =         0.00000000
  -V(xc)+E(xc)   XCENC  =      1551.05565132
  PAW double counting   =     30023.82121976   -31108.31233833
  entropy T*S    EENTRO =        -0.04830004
  eigenvalues    EBANDS =     -1951.77055785
  atomic energy  EATOM  =     32822.82841862
  Solvation  Ediel_sol  =         0.00000000
  ---------------------------------------------------
  free energy    TOTEN  =      -522.75102335 eV

  energy without entropy =     -522.70272331  energy(sigma->0) =     -522.72687333


--------------------------------------------------------------------------------------------------------




--------------------------------------- Iteration      1(   7)  ---------------------------------------


    POTLOK:  cpu time    0.1804: real time    0.1808
    SETDIJ:  cpu time    0.0217: real time    0.0217
     EDDAV:  cpu time    2.3522: real time    2.3578
    CHARGE:  cpu time    0.1705: real time    0.1709
    MIXING:  cpu time    0.0032: real time    0.0032
    --------------------------------------------
      LOOP:  cpu time    2.7280: real time    2.7345

 eigenvalue-minimisations  :  1392
 total energy-change (2. order) : 0.1176706E+03  (-0.3448694E+02)
 number of electron     378.9999909 magnetization      29.4178100
 augmentation part      136.1084191 magnetization      27.1262935

 Broyden mixing:
  rms(total) = 0.10006E+02    rms(broyden)= 0.10005E+02
  rms(prec ) = 0.11744E+02
  weight for this iteration     100.00

 eigenvalues of (default mixing * dielectric matrix)
  average eigenvalue GAMMA=   0.4297
  0.4297  0.4297

 Free energy of the ion-electron system (eV)
  ---------------------------------------------------
  alpha Z        PSCENC =      1170.09077456
  Ewald energy   TEWEN  =    -22156.09954243
  -Hartree energ DENC   =    -10994.80988880
  -exchange      EXHF   =         0.00000000
  -V(xc)+E(xc)   XCENC  =      1542.63620433
  PAW double counting   =     31048.37160718   -32218.81351979
  entropy T*S    EENTRO =        -0.01845267
  eigenvalues    EBANDS =     -1619.26600060
  atomic energy  EATOM  =     32822.82841862
  Solvation  Ediel_sol  =         0.00000000
  ---------------------------------------------------
  free energy    TOTEN  =      -405.08039959 eV

  energy without entropy =     -405.06194692  energy(sigma->0) =     -405.07117326


--------------------------------------------------------------------------------------------------------




--------------------------------------- Iteration      1(   8)  ---------------------------------------


    POTLOK:  cpu time    0.1772: real time    0.1777
    SETDIJ:  cpu time    0.0313: real time    0.0314
     EDDAV:  cpu time    2.6192: real time    2.6254
    CHARGE:  cpu time    0.1362: real time    0.1366
    MIXING:  cpu time    0.0036: real time    0.0036
    --------------------------------------------
      LOOP:  cpu time    2.9676: real time    2.9746

 eigenvalue-minimisations  :  1472
 total energy-change (2. order) : 0.2201726E+01  (-0.1963978E+02)
 number of electron     378.9999895 magnetization      25.4417110
 augmentation part      124.4002007 magnetization      22.1494161

 Broyden mixing:
  rms(total) = 0.10297E+02    rms(broyden)= 0.10296E+02
  rms(prec ) = 0.15581E+02
  weight for this iteration     100.00

 eigenvalues of (default mixing * dielectric matrix)
  average eigenvalue GAMMA=   0.4609
  0.5755  0.5755  0.2316

 Free energy of the ion-electron system (eV)
  ---------------------------------------------------
  alpha Z        PSCENC =      1170.09077456
  Ewald energy   TEWEN  =    -22156.09954243
  -Hartree energ DENC   =    -11134.65885093
  -exchange      EXHF   =         0.00000000
  -V(xc)+E(xc)   XCENC  =      1537.06022017
  PAW double counting   =     32133.80372423   -33398.35917106
  entropy T*S    EENTRO =        -0.05192923
  eigenvalues    EBANDS =     -1377.49231719
  atomic energy  EATOM  =     32822.82841862
  Solvation  Ediel_sol  =         0.00000000
  ---------------------------------------------------
  free energy    TOTEN  =      -402.87867326 eV

  energy without entropy =     -402.82674403  energy(sigma->0) =     -402.85270864


--------------------------------------------------------------------------------------------------------




--------------------------------------- Iteration      1(   9)  ---------------------------------------


    POTLOK:  cpu time    0.1423: real time    0.1426
    SETDIJ:  cpu time    0.0219: real time    0.0219
     EDDAV:  cpu time    2.1508: real time    2.1559
    CHARGE:  cpu time    0.1364: real time    0.1367
    MIXING:  cpu time    0.0035: real time    0.0036
    --------------------------------------------
      LOOP:  cpu time    2.4548: real time    2.4606

 eigenvalue-minimisations  :  1424
 total energy-change (2. order) : 0.1939749E+02  (-0.3597691E+02)
 number of electron     378.9999904 magnetization      21.5858096
 augmentation part      122.5593802 magnetization      16.7789077

 Broyden mixing:
  rms(total) = 0.92149E+01    rms(broyden)= 0.92145E+01
  rms(prec ) = 0.12295E+02
  weight for this iteration     100.00

 eigenvalues of (default mixing * dielectric matrix)
  average eigenvalue GAMMA=   0.4252
  0.6785  0.4421  0.4421  0.1381

 Free energy of the ion-electron system (eV)
  ---------------------------------------------------
  alpha Z        PSCENC =      1170.09077456
  Ewald energy   TEWEN  =    -22156.09954243
  -Hartree energ DENC   =    -11107.94356531
  -exchange      EXHF   =         0.00000000
  -V(xc)+E(xc)   XCENC  =      1534.37863542
  PAW double counting   =     32761.12736459   -34039.57731340
  entropy T*S    EENTRO =        -0.02828191
  eigenvalues    EBANDS =     -1368.25767540
  atomic energy  EATOM  =     32822.82841862
  Solvation  Ediel_sol  =         0.00000000
  ---------------------------------------------------
  free energy    TOTEN  =      -383.48118526 eV

  energy without entropy =     -383.45290335  energy(sigma->0) =     -383.46704430


--------------------------------------------------------------------------------------------------------




--------------------------------------- Iteration      1(  10)  ---------------------------------------


    POTLOK:  cpu time    0.1423: real time    0.1426
    SETDIJ:  cpu time    0.0220: real time    0.0220
     EDDAV:  cpu time    2.1156: real time    2.1206
    CHARGE:  cpu time    0.1399: real time    0.1403
    MIXING:  cpu time    0.0046: real time    0.0046
    --------------------------------------------
      LOOP:  cpu time    2.4244: real time    2.4302

 eigenvalue-minimisations  :  1392
 total energy-change (2. order) : 0.4599212E+00  (-0.2027414E+02)
 number of electron     378.9999905 magnetization      18.4613025
 augmentation part      122.2437111 magnetization      16.8464628

 Broyden mixing:
  rms(total) = 0.87305E+01    rms(broyden)= 0.87301E+01
  rms(prec ) = 0.11355E+02
  weight for this iteration     100.00

 eigenvalues of (default mixing * dielectric matrix)
  average eigenvalue GAMMA=   0.3995
  0.8727  0.4156  0.4156  0.1469  0.1469

 Free energy of the ion-electron system (eV)
  ---------------------------------------------------
  alpha Z        PSCENC =      1170.09077456
  Ewald energy   TEWEN  =    -22156.09954243
  -Hartree energ DENC   =    -11085.59546453
  -exchange      EXHF   =         0.00000000
  -V(xc)+E(xc)   XCENC  =      1532.61812135
  PAW double counting   =     33606.77329497   -34902.25564867
  entropy T*S    EENTRO =        -0.03834724
  eigenvalues    EBANDS =     -1371.34287072
  atomic energy  EATOM  =     32822.82841862
  Solvation  Ediel_sol  =         0.00000000
  ---------------------------------------------------
  free energy    TOTEN  =      -383.02126409 eV

  energy without entropy =     -382.98291685  energy(sigma->0) =     -383.00209047


--------------------------------------------------------------------------------------------------------




--------------------------------------- Iteration      1(  11)  ---------------------------------------


    POTLOK:  cpu time    0.1410: real time    0.1413
    SETDIJ:  cpu time    0.0217: real time    0.0218
     EDDAV:  cpu time    2.3386: real time    2.3442
    CHARGE:  cpu time    0.1726: real time    0.1730
    MIXING:  cpu time    0.0050: real time    0.0050
    --------------------------------------------
      LOOP:  cpu time    2.6788: real time    2.6852

 eigenvalue-minimisations  :  1344
 total energy-change (2. order) : 0.2670445E+02  (-0.9198195E+01)
 number of electron     378.9999908 magnetization      15.2299648
 augmentation part      125.2574412 magnetization      13.7743915

 Broyden mixing:
  rms(total) = 0.35112E+01    rms(broyden)= 0.35105E+01
  rms(prec ) = 0.49639E+01
  weight for this iteration     100.00

 eigenvalues of (default mixing * dielectric matrix)
  average eigenvalue GAMMA=   0.4598
  0.8875  0.8875  0.3392  0.3392  0.1813  0.1244

 Free energy of the ion-electron system (eV)
  ---------------------------------------------------
  alpha Z        PSCENC =      1170.09077456
  Ewald energy   TEWEN  =    -22156.09954243
  -Hartree energ DENC   =    -11063.28281803
  -exchange      EXHF   =         0.00000000
  -V(xc)+E(xc)   XCENC  =      1531.61412404
  PAW double counting   =     34152.51591907   -35455.65226912
  entropy T*S    EENTRO =        -0.03248988
  eigenvalues    EBANDS =     -1358.29892923
  atomic energy  EATOM  =     32822.82841862
  Solvation  Ediel_sol  =         0.00000000
  ---------------------------------------------------
  free energy    TOTEN  =      -356.31681239 eV

  energy without entropy =     -356.28432251  energy(sigma->0) =     -356.30056745


--------------------------------------------------------------------------------------------------------




--------------------------------------- Iteration      1(  12)  ---------------------------------------


    POTLOK:  cpu time    0.1717: real time    0.1721
    SETDIJ:  cpu time    0.0331: real time    0.0331
     EDDAV:  cpu time    2.0192: real time    2.0240
    CHARGE:  cpu time    0.1385: real time    0.1388
    MIXING:  cpu time    0.0041: real time    0.0041
    --------------------------------------------
      LOOP:  cpu time    2.3666: real time    2.3722

 eigenvalue-minimisations  :  1344
 total energy-change (2. order) :-0.1190891E+02  (-0.5629398E+01)
 number of electron     378.9999905 magnetization      13.1330520
 augmentation part      123.9945381 magnetization      10.0286237

 Broyden mixing:
  rms(total) = 0.93233E+01    rms(broyden)= 0.93226E+01
  rms(prec ) = 0.14025E+02
  weight for this iteration     100.00

 eigenvalues of (default mixing * dielectric matrix)
  average eigenvalue GAMMA=   0.4233
  0.9129  0.9129  0.3661  0.3661  0.1801  0.1217  0.1035

 Free energy of the ion-electron system (eV)
  ---------------------------------------------------
  alpha Z        PSCENC =      1170.09077456
  Ewald energy   TEWEN  =    -22156.09954243
  -Hartree energ DENC   =    -11055.42803619
  -exchange      EXHF   =         0.00000000
  -V(xc)+E(xc)   XCENC  =      1531.12101789
  PAW double counting   =     34447.43971941   -35748.54242182
  entropy T*S    EENTRO =        -0.05768178
  eigenvalues    EBANDS =     -1379.57797359
  atomic energy  EATOM  =     32822.82841862
  Solvation  Ediel_sol  =         0.00000000
  ---------------------------------------------------
  free energy    TOTEN  =      -368.22572533 eV

  energy without entropy =     -368.16804356  energy(sigma->0) =     -368.19688444


--------------------------------------------------------------------------------------------------------




--------------------------------------- Iteration      1(  13)  ---------------------------------------


    POTLOK:  cpu time    0.1648: real time    0.1652
    SETDIJ:  cpu time    0.0312: real time    0.0312
     EDDAV:  cpu time    2.3990: real time    2.4047
    CHARGE:  cpu time    0.1370: real time    0.1373
    MIXING:  cpu time    0.0044: real time    0.0044
    --------------------------------------------
      LOOP:  cpu time    2.7364: real time    2.7429

 eigenvalue-minimisations  :  1472
 total energy-change (2. order) : 0.1734462E+02  (-0.8019762E+01)
 number of electron     378.9999904 magnetization      11.3379278
 augmentation part      125.4078331 magnetization      10.0342143

 Broyden mixing:
  rms(total) = 0.24869E+01    rms(broyden)= 0.24858E+01
  rms(prec ) = 0.31334E+01
  weight for this iteration     100.00

 eigenvalues of (default mixing * dielectric matrix)
  average eigenvalue GAMMA=   0.4284
  0.9253  0.9253  0.4011  0.4011  0.3599  0.1834  0.1336  0.0978

 Free energy of the ion-electron system (eV)
  ---------------------------------------------------
  alpha Z        PSCENC =      1170.09077456
  Ewald energy   TEWEN  =    -22156.09954243
  -Hartree energ DENC   =    -11064.55663216
  -exchange      EXHF   =         0.00000000
  -V(xc)+E(xc)   XCENC  =      1531.08734482
  PAW double counting   =     34742.03035375   -36048.80845387
  entropy T*S    EENTRO =        -0.03006157
  eigenvalues    EBANDS =     -1347.42331067
  atomic energy  EATOM  =     32822.82841862
  Solvation  Ediel_sol  =         0.00000000
  ---------------------------------------------------
  free energy    TOTEN  =      -350.88110896 eV

  energy without entropy =     -350.85104739  energy(sigma->0) =     -350.86607817


--------------------------------------------------------------------------------------------------------




--------------------------------------- Iteration      1(  14)  ---------------------------------------


    POTLOK:  cpu time    0.1420: real time    0.1423
    SETDIJ:  cpu time    0.0219: real time    0.0220
     EDDAV:  cpu time    2.1359: real time    2.1409
    CHARGE:  cpu time    0.1360: real time    0.1364
    MIXING:  cpu time    0.0045: real time    0.0045
    --------------------------------------------
      LOOP:  cpu time    2.4404: real time    2.4461

 eigenvalue-minimisations  :  1408
 total energy-change (2. order) :-0.1061993E+01  (-0.2323912E+01)
 number of electron     378.9999905 magnetization       9.5173675
 augmentation part      125.4874976 magnetization       8.1675993

 Broyden mixing:
  rms(total) = 0.26060E+01    rms(broyden)= 0.26052E+01
  rms(prec ) = 0.35122E+01
  weight for this iteration     100.00

 eigenvalues of (default mixing * dielectric matrix)
  average eigenvalue GAMMA=   0.4239
  0.9404  0.9404  0.4612  0.4612  0.3627  0.2475  0.1810  0.1281  0.0928

 Free energy of the ion-electron system (eV)
  ---------------------------------------------------
  alpha Z        PSCENC =      1170.09077456
  Ewald energy   TEWEN  =    -22156.09954243
  -Hartree energ DENC   =    -11065.37512967
  -exchange      EXHF   =         0.00000000
  -V(xc)+E(xc)   XCENC  =      1530.88272548
  PAW double counting   =     34954.99175492   -36265.62837613
  entropy T*S    EENTRO =        -0.00965893
  eigenvalues    EBANDS =     -1343.62406847
  atomic energy  EATOM  =     32822.82841862
  Solvation  Ediel_sol  =         0.00000000
  ---------------------------------------------------
  free energy    TOTEN  =      -351.94310205 eV

  energy without entropy =     -351.93344312  energy(sigma->0) =     -351.93827259


--------------------------------------------------------------------------------------------------------




--------------------------------------- Iteration      1(  15)  ---------------------------------------


    POTLOK:  cpu time    0.1423: real time    0.1427
    SETDIJ:  cpu time    0.0222: real time    0.0223
     EDDAV:  cpu time    2.1731: real time    2.1782
    CHARGE:  cpu time    0.1366: real time    0.1369
    MIXING:  cpu time    0.0048: real time    0.0048
    --------------------------------------------
      LOOP:  cpu time    2.4791: real time    2.4850

 eigenvalue-minimisations  :  1408
 total energy-change (2. order) : 0.1914826E+01  (-0.1371842E+01)
 number of electron     378.9999905 magnetization       8.8397014
 augmentation part      125.8313669 magnetization       7.0244532

 Broyden mixing:
  rms(total) = 0.18892E+01    rms(broyden)= 0.18886E+01
  rms(prec ) = 0.22658E+01
  weight for this iteration     100.00

 eigenvalues of (default mixing * dielectric matrix)
  average eigenvalue GAMMA=   0.4303
  0.7856  0.7856  0.7148  0.7148  0.3757  0.3757  0.1823  0.1439  0.1299  0.0948

 Free energy of the ion-electron system (eV)
  ---------------------------------------------------
  alpha Z        PSCENC =      1170.09077456
  Ewald energy   TEWEN  =    -22156.09954243
  -Hartree energ DENC   =    -11062.17830820
  -exchange      EXHF   =         0.00000000
  -V(xc)+E(xc)   XCENC  =      1530.67544236
  PAW double counting   =     35152.38496430   -36462.29884188
  entropy T*S    EENTRO =        -0.04086694
  eigenvalues    EBANDS =     -1345.39031651
  atomic energy  EATOM  =     32822.82841862
  Solvation  Ediel_sol  =         0.00000000
  ---------------------------------------------------
  free energy    TOTEN  =      -350.02827612 eV

  energy without entropy =     -349.98740918  energy(sigma->0) =     -350.00784265


--------------------------------------------------------------------------------------------------------




--------------------------------------- Iteration      1(  16)  ---------------------------------------


    POTLOK:  cpu time    0.1424: real time    0.1428
    SETDIJ:  cpu time    0.0220: real time    0.0221
     EDDAV:  cpu time    2.3632: real time    2.3688
    CHARGE:  cpu time    0.1361: real time    0.1364
    MIXING:  cpu time    0.0050: real time    0.0050
    --------------------------------------------
      LOOP:  cpu time    2.6688: real time    2.6751

 eigenvalue-minimisations  :  1328
 total energy-change (2. order) :-0.2954166E+00  (-0.3871833E+00)
 number of electron     378.9999905 magnetization       7.8335027
 augmentation part      125.4040657 magnetization       6.3914598

 Broyden mixing:
  rms(total) = 0.21061E+01    rms(broyden)= 0.21058E+01
  rms(prec ) = 0.26662E+01
  weight for this iteration     100.00

 eigenvalues of (default mixing * dielectric matrix)
  average eigenvalue GAMMA=   0.4291
  0.8959  0.8959  0.7323  0.7323  0.3791  0.3791  0.1753  0.1552  0.1552  0.1264
  0.0936

 Free energy of the ion-electron system (eV)
  ---------------------------------------------------
  alpha Z        PSCENC =      1170.09077456
  Ewald energy   TEWEN  =    -22156.09954243
  -Hartree energ DENC   =    -11070.38685889
  -exchange      EXHF   =         0.00000000
  -V(xc)+E(xc)   XCENC  =      1530.76282674
  PAW double counting   =     35236.57344296   -36547.77375263
  entropy T*S    EENTRO =        -0.04151828
  eigenvalues    EBANDS =     -1336.27748333
  atomic energy  EATOM  =     32822.82841862
  Solvation  Ediel_sol  =         0.00000000
  ---------------------------------------------------
  free energy    TOTEN  =      -350.32369269 eV

  energy without entropy =     -350.28217441  energy(sigma->0) =     -350.30293355


--------------------------------------------------------------------------------------------------------




--------------------------------------- Iteration      1(  17)  ---------------------------------------


    POTLOK:  cpu time    0.1419: real time    0.1422
    SETDIJ:  cpu time    0.0220: real time    0.0220
     EDDAV:  cpu time    2.2656: real time    2.2709
    CHARGE:  cpu time    0.1687: real time    0.1691
    MIXING:  cpu time    0.0060: real time    0.0060
    --------------------------------------------
      LOOP:  cpu time    2.6042: real time    2.6104

 eigenvalue-minimisations  :  1280
 total energy-change (2. order) : 0.3904990E+00  (-0.3598391E+00)
 number of electron     378.9999905 magnetization       6.5534972
 augmentation part      125.2917378 magnetization       4.6345419

 Broyden mixing:
  rms(total) = 0.14463E+01    rms(broyden)= 0.14459E+01
  rms(prec ) = 0.17627E+01
  weight for this iteration     100.00

 eigenvalues of (default mixing * dielectric matrix)
  average eigenvalue GAMMA=   0.4975
  1.1578  1.1578  1.1776  0.4997  0.4997  0.3929  0.3929  0.1921  0.1527  0.0941
  0.1329  0.1200

 Free energy of the ion-electron system (eV)
  ---------------------------------------------------
  alpha Z        PSCENC =      1170.09077456
  Ewald energy   TEWEN  =    -22156.09954243
  -Hartree energ DENC   =    -11075.27625430
  -exchange      EXHF   =         0.00000000
  -V(xc)+E(xc)   XCENC  =      1530.81896620
  PAW double counting   =     35351.84336514   -36663.25076249
  entropy T*S    EENTRO =        -0.01395366
  eigenvalues    EBANDS =     -1330.87420530
  atomic energy  EATOM  =     32822.82841862
  Solvation  Ediel_sol  =         0.00000000
  ---------------------------------------------------
  free energy    TOTEN  =      -349.93319366 eV

  energy without entropy =     -349.91924000  energy(sigma->0) =     -349.92621683


--------------------------------------------------------------------------------------------------------




--------------------------------------- Iteration      1(  18)  ---------------------------------------


    POTLOK:  cpu time    0.1790: real time    0.1795
    SETDIJ:  cpu time    0.0306: real time    0.0307
     EDDAV:  cpu time    2.3070: real time    2.3124
    CHARGE:  cpu time    0.1848: real time    0.1853
    MIXING:  cpu time    0.0062: real time    0.0063
    --------------------------------------------
      LOOP:  cpu time    2.7077: real time    2.7141

 eigenvalue-minimisations  :  1344
 total energy-change (2. order) :-0.4219261E+00  (-0.2910958E+00)
 number of electron     378.9999906 magnetization       5.8650251
 augmentation part      125.3784946 magnetization       4.0616422

 Broyden mixing:
  rms(total) = 0.17563E+01    rms(broyden)= 0.17559E+01
  rms(prec ) = 0.21411E+01
  weight for this iteration     100.00

 eigenvalues of (default mixing * dielectric matrix)
  average eigenvalue GAMMA=   0.4952
  1.2416  1.2416  1.2820  0.5162  0.5162  0.3888  0.3888  0.2047  0.1762  0.0939
  0.1419  0.1303  0.1162

 Free energy of the ion-electron system (eV)
  ---------------------------------------------------
  alpha Z        PSCENC =      1170.09077456
  Ewald energy   TEWEN  =    -22156.09954243
  -Hartree energ DENC   =    -11076.12089025
  -exchange      EXHF   =         0.00000000
  -V(xc)+E(xc)   XCENC  =      1530.86075128
  PAW double counting   =     35566.51989261   -36876.79650094
  entropy T*S    EENTRO =        -0.03982644
  eigenvalues    EBANDS =     -1331.59819682
  atomic energy  EATOM  =     32822.82841862
  Solvation  Ediel_sol  =         0.00000000
  ---------------------------------------------------
  free energy    TOTEN  =      -350.35511981 eV

  energy without entropy =     -350.31529337  energy(sigma->0) =     -350.33520659


--------------------------------------------------------------------------------------------------------




--------------------------------------- Iteration      1(  19)  ---------------------------------------


    POTLOK:  cpu time    0.1846: real time    0.1850
    SETDIJ:  cpu time    0.0318: real time    0.0319
     EDDAV:  cpu time    2.1425: real time    2.1476
    CHARGE:  cpu time    0.1847: real time    0.1851
    MIXING:  cpu time    0.0065: real time    0.0065
    --------------------------------------------
      LOOP:  cpu time    2.5500: real time    2.5561

 eigenvalue-minimisations  :  1344
 total energy-change (2. order) : 0.4338723E+00  (-0.2698804E+00)
 number of electron     378.9999905 magnetization       5.9068945
 augmentation part      125.5079110 magnetization       3.9150648

 Broyden mixing:
  rms(total) = 0.98671E+00    rms(broyden)= 0.98627E+00
  rms(prec ) = 0.12411E+01
  weight for this iteration     100.00

 eigenvalues of (default mixing * dielectric matrix)
  average eigenvalue GAMMA=   0.5092
  1.3879  1.3879  1.2828  0.5384  0.5384  0.3830  0.3830  0.3966  0.1838  0.0940
  0.1513  0.1513  0.1317  0.1192

 Free energy of the ion-electron system (eV)
  ---------------------------------------------------
  alpha Z        PSCENC =      1170.09077456
  Ewald energy   TEWEN  =    -22156.09954243
  -Hartree energ DENC   =    -11077.03915157
  -exchange      EXHF   =         0.00000000
  -V(xc)+E(xc)   XCENC  =      1530.94883861
  PAW double counting   =     35705.31481832   -37015.22318853
  entropy T*S    EENTRO =        -0.03052293
  eigenvalues    EBANDS =     -1330.71169212
  atomic energy  EATOM  =     32822.82841862
  Solvation  Ediel_sol  =         0.00000000
  ---------------------------------------------------
  free energy    TOTEN  =      -349.92124746 eV

  energy without entropy =     -349.89072454  energy(sigma->0) =     -349.90598600


--------------------------------------------------------------------------------------------------------




--------------------------------------- Iteration      1(  20)  ---------------------------------------


    POTLOK:  cpu time    0.1844: real time    0.1849
    SETDIJ:  cpu time    0.0314: real time    0.0315
     EDDAV:  cpu time    2.2983: real time    2.3038
    CHARGE:  cpu time    0.1791: real time    0.1795
    MIXING:  cpu time    0.0067: real time    0.0068
    --------------------------------------------
      LOOP:  cpu time    2.7000: real time    2.7064

 eigenvalue-minimisations  :  1440
 total energy-change (2. order) :-0.4372611E-01  (-0.2042110E+00)
 number of electron     378.9999906 magnetization       6.0275257
 augmentation part      125.4445802 magnetization       3.9314233

 Broyden mixing:
  rms(total) = 0.10254E+01    rms(broyden)= 0.10252E+01
  rms(prec ) = 0.12980E+01
  weight for this iteration     100.00

 eigenvalues of (default mixing * dielectric matrix)
  average eigenvalue GAMMA=   0.5085
  1.3968  1.3968  1.3997  0.5869  0.5869  0.3887  0.3887  0.4115  0.2464  0.1975
  0.1558  0.0940  0.1328  0.1293  0.1161

 Free energy of the ion-electron system (eV)
  ---------------------------------------------------
  alpha Z        PSCENC =      1170.09077456
  Ewald energy   TEWEN  =    -22156.09954243
  -Hartree energ DENC   =    -11079.73227105
  -exchange      EXHF   =         0.00000000
  -V(xc)+E(xc)   XCENC  =      1531.13028835
  PAW double counting   =     35749.58000384   -37059.14717847
  entropy T*S    EENTRO =        -0.02885075
  eigenvalues    EBANDS =     -1328.58661624
  atomic energy  EATOM  =     32822.82841862
  Solvation  Ediel_sol  =         0.00000000
  ---------------------------------------------------
  free energy    TOTEN  =      -349.96497357 eV

  energy without entropy =     -349.93612282  energy(sigma->0) =     -349.95054820


--------------------------------------------------------------------------------------------------------




--------------------------------------- Iteration      1(  21)  ---------------------------------------


    POTLOK:  cpu time    0.1852: real time    0.1857
    SETDIJ:  cpu time    0.0312: real time    0.0312
     EDDAV:  cpu time    2.0512: real time    2.0561
    CHARGE:  cpu time    0.1488: real time    0.1492
    MIXING:  cpu time    0.0068: real time    0.0068
    --------------------------------------------
      LOOP:  cpu time    2.4232: real time    2.4290

 eigenvalue-minimisations  :  1296
 total energy-change (2. order) : 0.1539682E+00  (-0.1081381E+00)
 number of electron     378.9999905 magnetization       6.1280655
 augmentation part      125.4498910 magnetization       4.0165994

 Broyden mixing:
  rms(total) = 0.60392E+00    rms(broyden)= 0.60363E+00
  rms(prec ) = 0.76272E+00
  weight for this iteration     100.00

 eigenvalues of (default mixing * dielectric matrix)
  average eigenvalue GAMMA=   0.5284
  1.4628  1.4628  1.4918  0.6871  0.6871  0.4387  0.4387  0.4019  0.4019  0.1878
  0.1813  0.0940  0.1500  0.1325  0.1219  0.1148

 Free energy of the ion-electron system (eV)
  ---------------------------------------------------
  alpha Z        PSCENC =      1170.09077456
  Ewald energy   TEWEN  =    -22156.09954243
  -Hartree energ DENC   =    -11080.92113206
  -exchange      EXHF   =         0.00000000
  -V(xc)+E(xc)   XCENC  =      1531.22555607
  PAW double counting   =     35797.75361475   -37107.85300429
  entropy T*S    EENTRO =        -0.02085470
  eigenvalues    EBANDS =     -1326.81483586
  atomic energy  EATOM  =     32822.82841862
  Solvation  Ediel_sol  =         0.00000000
  ---------------------------------------------------
  free energy    TOTEN  =      -349.81100533 eV

  energy without entropy =     -349.79015063  energy(sigma->0) =     -349.80057798


--------------------------------------------------------------------------------------------------------




--------------------------------------- Iteration      1(  22)  ---------------------------------------


    POTLOK:  cpu time    0.1924: real time    0.1929
    SETDIJ:  cpu time    0.0309: real time    0.0310
     EDDAV:  cpu time    2.4856: real time    2.4914
    CHARGE:  cpu time    0.1377: real time    0.1380
    MIXING:  cpu time    0.0061: real time    0.0061
    --------------------------------------------
      LOOP:  cpu time    2.8527: real time    2.8594

 eigenvalue-minimisations  :  1344
 total energy-change (2. order) : 0.1825258E-01  (-0.4173546E-01)
 number of electron     378.9999906 magnetization       6.1956346
 augmentation part      125.5569915 magnetization       4.0472469

 Broyden mixing:
  rms(total) = 0.54101E+00    rms(broyden)= 0.54089E+00
  rms(prec ) = 0.65506E+00
  weight for this iteration     100.00

 eigenvalues of (default mixing * dielectric matrix)
  average eigenvalue GAMMA=   0.5179
  1.5407  1.4641  1.4641  0.6997  0.6997  0.4456  0.4456  0.3761  0.3761  0.3073
  0.1856  0.1856  0.1512  0.0940  0.1315  0.1217  0.1159

 Free energy of the ion-electron system (eV)
  ---------------------------------------------------
  alpha Z        PSCENC =      1170.09077456
  Ewald energy   TEWEN  =    -22156.09954243
  -Hartree energ DENC   =    -11079.91731967
  -exchange      EXHF   =         0.00000000
  -V(xc)+E(xc)   XCENC  =      1531.30987495
  PAW double counting   =     35871.33745670   -37181.50390094
  entropy T*S    EENTRO =        -0.00690015
  eigenvalues    EBANDS =     -1327.83161439
  atomic energy  EATOM  =     32822.82841862
  Solvation  Ediel_sol  =         0.00000000
  ---------------------------------------------------
  free energy    TOTEN  =      -349.79275274 eV

  energy without entropy =     -349.78585259  energy(sigma->0) =     -349.78930267


--------------------------------------------------------------------------------------------------------




--------------------------------------- Iteration      1(  23)  ---------------------------------------


    POTLOK:  cpu time    0.1423: real time    0.1426
    SETDIJ:  cpu time    0.0220: real time    0.0221
     EDDAV:  cpu time    2.3549: real time    2.3605
    CHARGE:  cpu time    0.1750: real time    0.1755
    MIXING:  cpu time    0.0074: real time    0.0074
    --------------------------------------------
      LOOP:  cpu time    2.7017: real time    2.7081

 eigenvalue-minimisations  :  1360
 total energy-change (2. order) : 0.4048563E-01  (-0.1388970E-01)
 number of electron     378.9999906 magnetization       6.3318118
 augmentation part      125.5522601 magnetization       4.2119316

 Broyden mixing:
  rms(total) = 0.38705E+00    rms(broyden)= 0.38699E+00
  rms(prec ) = 0.44769E+00
  weight for this iteration     100.00

 eigenvalues of (default mixing * dielectric matrix)
  average eigenvalue GAMMA=   0.5271
  1.5463  1.4578  1.4578  0.7785  0.7785  0.5281  0.5281  0.4806  0.3862  0.3862
  0.1936  0.1936  0.0940  0.1629  0.1469  0.1326  0.1216  0.1146

 Free energy of the ion-electron system (eV)
  ---------------------------------------------------
  alpha Z        PSCENC =      1170.09077456
  Ewald energy   TEWEN  =    -22156.09954243
  -Hartree energ DENC   =    -11080.29114128
  -exchange      EXHF   =         0.00000000
  -V(xc)+E(xc)   XCENC  =      1531.35837532
  PAW double counting   =     35894.62409339   -37204.90746379
  entropy T*S    EENTRO =        -0.00804066
  eigenvalues    EBANDS =     -1327.34774084
  atomic energy  EATOM  =     32822.82841862
  Solvation  Ediel_sol  =         0.00000000
  ---------------------------------------------------
  free energy    TOTEN  =      -349.75226711 eV

  energy without entropy =     -349.74422645  energy(sigma->0) =     -349.74824678


--------------------------------------------------------------------------------------------------------




--------------------------------------- Iteration      1(  24)  ---------------------------------------


    POTLOK:  cpu time    0.1821: real time    0.1825
    SETDIJ:  cpu time    0.0310: real time    0.0310
     EDDAV:  cpu time    2.2372: real time    2.2424
    CHARGE:  cpu time    0.1370: real time    0.1373
    MIXING:  cpu time    0.0067: real time    0.0067
    --------------------------------------------
      LOOP:  cpu time    2.5939: real time    2.6000

 eigenvalue-minimisations  :  1456
 total energy-change (2. order) :-0.1819223E-01  (-0.6791151E-02)
 number of electron     378.9999906 magnetization       6.5319883
 augmentation part      125.5721796 magnetization       4.4158741

 Broyden mixing:
  rms(total) = 0.35248E+00    rms(broyden)= 0.35246E+00
  rms(prec ) = 0.41705E+00
  weight for this iteration     100.00

 eigenvalues of (default mixing * dielectric matrix)
  average eigenvalue GAMMA=   0.5950
  1.7758  1.5977  1.5977  1.0769  1.0769  0.6169  0.6169  0.5019  0.5019  0.3915
  0.3915  0.1867  0.1867  0.1725  0.0940  0.1498  0.1321  0.1217  0.1150

 Free energy of the ion-electron system (eV)
  ---------------------------------------------------
  alpha Z        PSCENC =      1170.09077456
  Ewald energy   TEWEN  =    -22156.09954243
  -Hartree energ DENC   =    -11080.07428614
  -exchange      EXHF   =         0.00000000
  -V(xc)+E(xc)   XCENC  =      1531.39391406
  PAW double counting   =     35912.19555969   -37222.69142108
  entropy T*S    EENTRO =        -0.00284847
  eigenvalues    EBANDS =     -1327.41102815
  atomic energy  EATOM  =     32822.82841862
  Solvation  Ediel_sol  =         0.00000000
  ---------------------------------------------------
  free energy    TOTEN  =      -349.77045934 eV

  energy without entropy =     -349.76761087  energy(sigma->0) =     -349.76903511


--------------------------------------------------------------------------------------------------------




--------------------------------------- Iteration      1(  25)  ---------------------------------------


    POTLOK:  cpu time    0.1421: real time    0.1425
    SETDIJ:  cpu time    0.0218: real time    0.0219
     EDDAV:  cpu time    2.5610: real time    2.5671
    CHARGE:  cpu time    0.1767: real time    0.1771
    MIXING:  cpu time    0.0079: real time    0.0079
    --------------------------------------------
      LOOP:  cpu time    2.9095: real time    2.9164

 eigenvalue-minimisations  :  1408
 total energy-change (2. order) :-0.1657767E-01  (-0.1416010E-01)
 number of electron     378.9999906 magnetization       6.6013827
 augmentation part      125.5849928 magnetization       4.5019457

 Broyden mixing:
  rms(total) = 0.30890E+00    rms(broyden)= 0.30885E+00
  rms(prec ) = 0.39856E+00
  weight for this iteration     100.00

 eigenvalues of (default mixing * dielectric matrix)
  average eigenvalue GAMMA=   0.6015
  2.0538  1.6652  1.6652  1.0688  1.0688  0.6444  0.6444  0.4859  0.4859  0.3905
  0.3905  0.3073  0.1876  0.1876  0.1712  0.0940  0.1498  0.1321  0.1216  0.1150

 Free energy of the ion-electron system (eV)
  ---------------------------------------------------
  alpha Z        PSCENC =      1170.09077456
  Ewald energy   TEWEN  =    -22156.09954243
  -Hartree energ DENC   =    -11080.11034480
  -exchange      EXHF   =         0.00000000
  -V(xc)+E(xc)   XCENC  =      1531.48776819
  PAW double counting   =     35953.22314104   -37263.95676954
  entropy T*S    EENTRO =        -0.00192534
  eigenvalues    EBANDS =     -1327.24855732
  atomic energy  EATOM  =     32822.82841862
  Solvation  Ediel_sol  =         0.00000000
  ---------------------------------------------------
  free energy    TOTEN  =      -349.78703701 eV

  energy without entropy =     -349.78511167  energy(sigma->0) =     -349.78607434


--------------------------------------------------------------------------------------------------------




--------------------------------------- Iteration      1(  26)  ---------------------------------------


    POTLOK:  cpu time    0.1926: real time    0.1930
    SETDIJ:  cpu time    0.0311: real time    0.0312
     EDDAV:  cpu time    2.1954: real time    2.2007
    CHARGE:  cpu time    0.1377: real time    0.1380
    MIXING:  cpu time    0.0072: real time    0.0072
    --------------------------------------------
      LOOP:  cpu time    2.5639: real time    2.5700

 eigenvalue-minimisations  :  1408
 total energy-change (2. order) : 0.2388722E-01  (-0.1403072E-01)
 number of electron     378.9999906 magnetization       6.7309813
 augmentation part      125.6201542 magnetization       4.6307725

 Broyden mixing:
  rms(total) = 0.19078E+00    rms(broyden)= 0.19071E+00
  rms(prec ) = 0.22346E+00
  weight for this iteration     100.00

 eigenvalues of (default mixing * dielectric matrix)
  average eigenvalue GAMMA=   0.6011
  2.0118  1.7028  1.7028  1.0514  1.0514  0.7241  0.7241  0.5111  0.5111  0.5063
  0.3899  0.3899  0.0940  0.1903  0.1903  0.1780  0.1750  0.1498  0.1321  0.1217
  0.1150

 Free energy of the ion-electron system (eV)
  ---------------------------------------------------
  alpha Z        PSCENC =      1170.09077456
  Ewald energy   TEWEN  =    -22156.09954243
  -Hartree energ DENC   =    -11079.66296359
  -exchange      EXHF   =         0.00000000
  -V(xc)+E(xc)   XCENC  =      1531.51782298
  PAW double counting   =     35982.43232650   -37293.37979814
  entropy T*S    EENTRO =        -0.00234240
  eigenvalues    EBANDS =     -1327.48784589
  atomic energy  EATOM  =     32822.82841862
  Solvation  Ediel_sol  =         0.00000000
  ---------------------------------------------------
  free energy    TOTEN  =      -349.76314979 eV

  energy without entropy =     -349.76080740  energy(sigma->0) =     -349.76197859


--------------------------------------------------------------------------------------------------------




--------------------------------------- Iteration      1(  27)  ---------------------------------------


    POTLOK:  cpu time    0.1421: real time    0.1424
    SETDIJ:  cpu time    0.0217: real time    0.0218
     EDDAV:  cpu time    2.4247: real time    2.4304
    CHARGE:  cpu time    0.1373: real time    0.1376
    MIXING:  cpu time    0.0074: real time    0.0074
    --------------------------------------------
      LOOP:  cpu time    2.7331: real time    2.7396

 eigenvalue-minimisations  :  1552
 total energy-change (2. order) : 0.3311655E-02  (-0.2237379E-02)
 number of electron     378.9999906 magnetization       6.8272012
 augmentation part      125.6218585 magnetization       4.7344736

 Broyden mixing:
  rms(total) = 0.13960E+00    rms(broyden)= 0.13959E+00
  rms(prec ) = 0.16451E+00
  weight for this iteration     100.00

 eigenvalues of (default mixing * dielectric matrix)
  average eigenvalue GAMMA=   0.6203
  1.9824  1.7758  1.7758  1.0171  1.0171  0.9158  0.9158  0.5465  0.5465  0.5059
  0.5059  0.3908  0.3908  0.2033  0.1871  0.1871  0.0940  0.1705  0.1498  0.1321
  0.1217  0.1150

 Free energy of the ion-electron system (eV)
  ---------------------------------------------------
[...]
   -.202E+02 -.856E-14 0.602E+01   0.214E+02 0.102E-13 -.618E+01   -.117E+01 0.000E+00 0.158E+00   -.547E-02 -.746E-12 -.893E-03
   -.973E+01 -.187E+01 -.380E+01   0.104E+02 0.194E+01 0.370E+01   -.635E+00 -.757E-01 0.907E-01   -.349E-02 -.134E-02 -.531E-02
   0.932E-01 -.994E+00 -.205E+01   -.668E-01 0.961E+00 0.203E+01   -.146E-01 0.366E-01 0.187E-01   -.926E-02 -.164E-02 -.253E-02
   0.932E-01 0.994E+00 -.205E+01   -.668E-01 -.961E+00 0.203E+01   -.146E-01 -.366E-01 0.187E-01   -.926E-02 0.164E-02 -.253E-02
   -.973E+01 0.187E+01 -.380E+01   0.104E+02 -.194E+01 0.370E+01   -.635E+00 0.757E-01 0.907E-01   -.349E-02 0.134E-02 -.531E-02
   0.267E+02 -.474E-13 0.347E+02   -.266E+02 0.352E-13 -.349E+02   -.138E+00 0.000E+00 0.120E+00   -.375E-02 0.150E-11 -.968E-02
   -.852E+00 -.131E+02 -.215E+01   0.824E+00 0.132E+02 0.234E+01   0.736E-01 -.151E+00 -.185E+00   -.456E-01 -.817E-02 -.664E-02
   0.278E+02 -.176E+01 0.578E+02   -.285E+02 0.172E+01 -.586E+02   0.567E+00 0.491E-01 0.830E+00   0.495E-01 -.905E-02 0.139E-01
   0.278E+02 0.176E+01 0.578E+02   -.285E+02 -.172E+01 -.586E+02   0.567E+00 -.491E-01 0.830E+00   0.495E-01 0.905E-02 0.139E-01
   -.852E+00 0.131E+02 -.215E+01   0.824E+00 -.132E+02 0.234E+01   0.736E-01 0.151E+00 -.185E+00   -.456E-01 0.817E-02 -.664E-02
   0.185E+01 0.971E-12 -.183E+01   -.175E+01 -.885E-13 0.185E+01   -.972E-01 0.000E+00 -.968E-02   -.375E-02 -.155E-11 -.983E-02
   -.385E+02 -.459E-15 0.100E+03   0.392E+02 0.654E-14 -.101E+03   -.684E+00 0.000E+00 0.745E+00   -.247E-02 -.550E-12 0.132E-01
   -.411E+02 0.101E-11 0.116E+03   0.415E+02 -.586E-13 -.118E+03   -.443E+00 0.000E+00 0.106E+01   -.239E-02 0.522E-12 0.118E-01
   0.397E+02 -.310E-13 -.129E+03   -.408E+02 -.502E-13 0.131E+03   0.100E+01 0.000E+00 -.133E+01   0.558E-01 0.118E-11 0.648E-02
   0.219E+02 -.217E+01 -.222E+02   -.224E+02 0.219E+01 0.224E+02   0.507E+00 -.108E-01 -.251E+00   -.938E-03 -.853E-02 0.914E-02
   -.454E+02 -.125E+02 -.351E+02   0.465E+02 0.127E+02 0.355E+02   -.113E+01 -.174E+00 -.393E+00   -.207E-02 -.708E-02 -.123E-01
   -.454E+02 0.125E+02 -.351E+02   0.465E+02 -.127E+02 0.355E+02   -.113E+01 0.174E+00 -.393E+00   -.207E-02 0.708E-02 -.123E-01
   0.219E+02 0.217E+01 -.222E+02   -.224E+02 -.219E+01 0.224E+02   0.507E+00 0.108E-01 -.251E+00   -.938E-03 0.853E-02 0.914E-02
   0.705E+02 0.959E-12 -.715E+02   -.715E+02 -.840E-13 0.720E+02   0.914E+00 0.000E+00 -.457E+00   0.561E-01 -.122E-11 0.660E-02
   -.370E+02 -.448E-13 -.230E+02   0.372E+02 -.326E-13 0.232E+02   -.189E+00 0.000E+00 -.168E+00   -.539E-01 -.103E-11 -.837E-02
   -.268E+02 0.968E-12 -.186E+02   0.272E+02 -.297E-13 0.184E+02   -.370E+00 0.000E+00 0.157E+00   -.530E-01 0.103E-11 -.876E-02
   0.407E+02 0.675E-13 0.281E+03   -.442E+02 0.272E-13 -.294E+03   0.355E+01 0.000E+00 0.133E+02   0.175E-01 -.960E-12 0.325E-01
   -.571E+02 -.932E-13 -.365E+03   0.626E+02 -.617E-14 0.384E+03   -.556E+01 0.000E+00 -.189E+02   0.208E-01 0.626E-13 0.845E-02
   0.446E+02 0.126E-13 -.314E+03   -.472E+02 0.823E-13 0.329E+03   0.270E+01 0.000E+00 -.154E+02   -.110E-01 0.681E-12 0.162E-01
   0.524E+01 0.189E-12 0.408E+03   -.586E+01 0.115E-12 -.433E+03   0.596E+00 0.000E+00 0.250E+02   0.195E-01 0.765E-12 -.150E-01
   0.248E+02 -.375E+02 0.326E+03   -.278E+02 0.399E+02 -.343E+03   0.299E+01 -.242E+01 0.178E+02   -.242E-01 -.161E-01 0.121E-01
   -.818E+02 -.310E+02 -.348E+03   0.870E+02 0.328E+02 0.365E+03   -.519E+01 -.186E+01 -.174E+02   -.327E-01 -.161E-01 0.215E-02
   -.818E+02 0.310E+02 -.348E+03   0.870E+02 -.328E+02 0.365E+03   -.519E+01 0.186E+01 -.174E+02   -.327E-01 0.161E-01 0.215E-02
   0.248E+02 0.375E+02 0.326E+03   -.278E+02 -.399E+02 -.343E+03   0.299E+01 0.242E+01 0.178E+02   -.242E-01 0.161E-01 0.121E-01
   -.509E+02 0.711E+01 -.349E+03   0.555E+02 -.758E+01 0.368E+03   -.455E+01 0.467E+00 -.196E+02   -.222E-01 0.257E-02 -.157E-01
   0.814E+02 0.303E+02 0.343E+03   -.869E+02 -.320E+02 -.361E+03   0.550E+01 0.167E+01 0.174E+02   0.206E-01 0.225E-02 0.241E-02
   0.814E+02 -.303E+02 0.343E+03   -.869E+02 0.320E+02 -.361E+03   0.550E+01 -.167E+01 0.174E+02   0.206E-01 -.225E-02 0.241E-02
   -.509E+02 -.711E+01 -.349E+03   0.555E+02 0.758E+01 0.368E+03   -.455E+01 -.467E+00 -.196E+02   -.222E-01 -.257E-02 -.157E-01
   -.149E+02 0.257E-12 0.311E+03   0.176E+02 0.165E-12 -.327E+03   -.276E+01 0.000E+00 0.164E+02   0.185E-01 0.845E-12 0.305E-01
   -.467E+01 0.120E-12 -.396E+03   0.507E+01 0.375E-13 0.421E+03   -.431E+00 0.000E+00 -.252E+02   0.241E-01 -.220E-12 0.887E-02
   0.240E+02 0.195E-12 -.305E+03   -.246E+02 -.778E-13 0.319E+03   0.614E+00 0.000E+00 -.145E+02   -.250E-01 -.658E-12 0.228E-01
   0.576E+02 0.419E-12 0.369E+03   -.629E+02 -.445E-13 -.388E+03   0.521E+01 0.000E+00 0.194E+02   0.347E-01 -.920E-12 -.227E-01
   -.546E+02 -.790E-13 0.303E+03   0.557E+02 -.782E-13 -.319E+03   -.107E+01 0.000E+00 0.160E+02   -.287E-01 -.373E-12 -.161E-01
   0.498E+02 0.448E-13 -.335E+03   -.527E+02 0.213E-13 0.350E+03   0.295E+01 0.000E+00 -.155E+02   -.138E-01 0.755E-12 -.226E-01
   -.252E+02 0.168E-12 -.273E+03   0.290E+02 0.184E-13 0.287E+03   -.376E+01 0.000E+00 -.142E+02   0.221E-01 0.343E-13 0.706E-02
   -.741E+01 0.230E-13 0.309E+03   0.652E+01 0.127E-14 -.322E+03   0.929E+00 0.000E+00 0.133E+02   -.292E-01 -.887E-12 -.640E-02
   0.648E+02 0.877E+01 0.315E+03   -.702E+02 -.978E+01 -.334E+03   0.530E+01 0.101E+01 0.189E+02   0.283E-01 -.295E-02 0.138E-02
   0.286E+02 0.353E+02 -.382E+03   -.277E+02 -.378E+02 0.403E+03   -.101E+01 0.251E+01 -.202E+02   0.287E-01 -.308E-02 -.147E-01
   0.286E+02 -.353E+02 -.382E+03   -.277E+02 0.378E+02 0.403E+03   -.101E+01 -.251E+01 -.202E+02   0.287E-01 0.308E-02 -.147E-01
   0.648E+02 -.877E+01 0.315E+03   -.702E+02 0.978E+01 -.334E+03   0.530E+01 -.101E+01 0.189E+02   0.283E-01 0.295E-02 0.138E-02
   -.418E+02 -.391E+02 -.289E+03   0.457E+02 0.420E+02 0.306E+03   -.396E+01 -.286E+01 -.170E+02   0.134E-01 -.154E-01 0.361E-01
   -.295E+02 -.371E+02 0.387E+03   0.290E+02 0.399E+02 -.407E+03   0.504E+00 -.278E+01 0.203E+02   -.148E-01 -.162E-01 -.202E-01
   -.295E+02 0.371E+02 0.387E+03   0.290E+02 -.399E+02 -.407E+03   0.504E+00 0.278E+01 0.203E+02   -.148E-01 0.162E-01 -.202E-01
   -.418E+02 0.391E+02 -.289E+03   0.457E+02 -.420E+02 0.306E+03   -.396E+01 0.286E+01 -.170E+02   0.134E-01 0.154E-01 0.361E-01
   -.355E+02 0.146E-12 0.296E+03   0.353E+02 -.595E-13 -.312E+03   0.166E+00 0.000E+00 0.156E+02   -.137E-01 0.304E-12 -.262E-01
   0.680E+01 0.267E-12 -.316E+03   -.606E+01 0.321E-13 0.330E+03   -.712E+00 0.000E+00 -.143E+02   -.258E-01 -.790E-12 -.148E-01
   0.277E+02 0.363E-12 -.304E+03   -.291E+02 -.610E-13 0.321E+03   0.143E+01 0.000E+00 -.172E+02   0.287E-01 -.198E-12 0.198E-02
   -.509E+02 0.213E-12 0.323E+03   0.541E+02 -.547E-13 -.339E+03   -.322E+01 0.000E+00 0.156E+02   -.363E-01 0.687E-12 -.238E-02
 -----------------------------------------------------------------------------------------------
   0.280E+00 0.130E-10 -.216E+00   -.185E-12 -.811E-14 -.171E-12   -.274E+00 0.000E+00 0.195E+00   -.210E-01 -.329E-11 0.308E-01
 
 
 POSITION                                       TOTAL-FORCE (eV/Angst)
 -----------------------------------------------------------------------------------
      3.86518      1.41822      2.41624         0.004723     -0.000515     -0.002384
      3.86518      4.15471      2.41624         0.004723      0.000515     -0.002384
      4.32803      2.78646      7.23013        -0.022453     -0.000000      0.008926
      6.50393     -0.00000      2.42817         0.007094     -0.000000      0.011016
      0.08534     -0.00000      7.19635         0.010633     -0.000000     -0.002557
     -0.70143      1.41222      2.36940         0.012912     -0.002072     -0.007596
      7.16067      1.39088      7.20205         0.002781      0.001965     -0.003355
      7.16067      4.18205      7.20205         0.002781     -0.001965     -0.003355
     -0.70143      4.16071      2.36940         0.012912      0.002072     -0.007596
      6.25250     -0.00000      9.55538         0.000286     -0.000000     -0.005105
      2.45895      1.39353      0.01095        -0.000297     -0.000445     -0.004018
      7.40938      1.39174      0.09287        -0.010339      0.001970      0.001790
      7.40938      4.18118      0.09287        -0.010339     -0.001970      0.001790
      2.45895      4.17939      0.01095        -0.000297      0.000445     -0.004018
      6.26464      2.78646      9.57907        -0.000558     -0.000000     -0.005444
      4.92531     -0.00000      0.06304        -0.004529     -0.000000      0.005408
      4.93459      2.78646      0.03437        -0.004081     -0.000000      0.006833
      3.14361     -0.00000      4.85233         0.001386     -0.000000     -0.000088
      5.60586      1.39606      4.79207        -0.000070      0.002370      0.003372
      0.67287      1.39848      4.75422         0.008921     -0.004270      0.000756
      0.67287      4.17444      4.75422         0.008921      0.004270      0.000756
      5.60586      4.17686      4.79207        -0.000070     -0.002370      0.003372
      3.13687      2.78646      4.79447         0.002921     -0.000000      0.000337
      8.07666     -0.00000      4.81805         0.002164     -0.000000      0.000452
      8.07456      2.78646      4.81319         0.001742     -0.000000     -0.000429
      4.90180     -0.00000      3.77279        -0.003261     -0.000000      0.008784
      1.36997     -0.00000      5.73333         0.000949     -0.000000     -0.013492
      3.25723     -0.00000      1.00699        -0.007573     -0.000000     -0.000478
      2.97498     -0.00000      8.75047        -0.002385     -0.000000      0.018704
      7.35336      1.38097      3.82405        -0.004687     -0.001254      0.002752
     -1.10231      1.38609      5.77371         0.005817     -0.000342     -0.007458
     -1.10231      4.18684      5.77371         0.005817      0.000342     -0.007458
      7.35336      4.19195      3.82405        -0.004687      0.001254      0.002752
      0.73099      1.37625      0.92601         0.000411     -0.001046     -0.012228
      5.53428      1.41192      8.58745        -0.007512     -0.000295     -0.000868
      5.53428      4.16101      8.58745        -0.007512      0.000295     -0.000868
      0.73099      4.19667      0.92601         0.000411      0.001046     -0.012228
      4.77444      2.78646      3.81265         0.003557     -0.000000      0.005105
      1.46639      2.78646      5.68769        -0.002095     -0.000000     -0.011494
      3.21231      2.78646      0.99645        -0.007903     -0.000000     -0.002187
      3.05077      2.78646      8.71361        -0.004175     -0.000000      0.020284
     -0.16045     -0.00000      3.80749        -0.000954     -0.000000     -0.009155
      6.43078     -0.00000      5.77826         0.003288     -0.000000      0.001707
      8.14194     -0.00000      1.09355         0.004262     -0.000000      0.011518
     -1.84525     -0.00000      8.52656         0.004180     -0.000000     -0.008915
      2.43923      1.36902      3.83575         0.002532      0.000276     -0.005759
      3.91779      1.41521      5.75931        -0.003837      0.000699     -0.002415
      3.91779      4.15772      5.75931        -0.003837     -0.000699     -0.002415
      2.43923      4.20390      3.83575         0.002532     -0.000276     -0.005759
      5.61110      1.38747      1.06791        -0.008402     -0.000126      0.015734
      0.54933      1.38069      8.66403         0.001824     -0.000232      0.008456
      0.54933      4.19223      8.66403         0.001824      0.000232      0.008456
      5.61110      4.18546      1.06791        -0.008402      0.000126      0.015734
     -0.10602      2.78646      3.79222         0.001128     -0.000000     -0.012992
      6.33444      2.78646      5.80434         0.002604     -0.000000      0.001821
      8.27164      2.78646      1.01607         0.007391     -0.000000      0.005379
     -1.96999      2.78646      8.58250        -0.003170     -0.000000     -0.007493
 -----------------------------------------------------------------------------------
    total drift:                               -0.015731      0.000000      0.010055


--------------------------------------------------------------------------------------------------------



  FREE ENERGIE OF THE ION-ELECTRON SYSTEM (eV)
  ---------------------------------------------------
  free  energy   TOTEN  =      -349.7913571189 eV

  energy  without entropy=     -349.7872831861  energy(sigma->0) =     -349.78932015
 
 d Force = 0.1602481E-04[ 0.940E-05, 0.227E-04]  d Energy = 0.3179310E-04-0.158E-04
 d Force = 0.1003711E+00[ 0.100E+00, 0.100E+00]  d Ewald  =-0.5328276E+00 0.633E+00


--------------------------------------------------------------------------------------------------------


    POTLOK:  cpu time    0.1599: real time    0.1603


--------------------------------------------------------------------------------------------------------


 Quasi-Newton relaxation of ions (Broydens 2nd method)
  g(Force)  = 0.275E-03   g(Stress)= 0.200E-03

 retain information from N=  3 steps
 eigenvalues of (default step * inverse Hessian matrix)
  average eigenvalue of G=   2.7137
 eigenvalue spectrum of G is  6.7945  0.0431  1.3035


--------------------------------------------------------------------------------------------------------


     LOOP+:  cpu time   13.7256: real time   13.7868
    4ORBIT:  cpu time    0.0000: real time    0.0000

volume of typ            1:    13.3 %

volume of typ            2:    19.3 %

volume of typ            3:     9.9 %
 
total charge     
 
# of ion       s       p       d       tot
------------------------------------------
    1        2.076   0.246   0.089   2.412
    2        2.076   0.246   0.089   2.412
    3        2.072   0.227   0.084   2.383
    4        2.075   0.234   0.087   2.397
    5        2.072   0.224   0.083   2.378
    6        2.074   0.234   0.087   2.395
    7        2.073   0.236   0.084   2.393
    8        2.073   0.236   0.084   2.393
    9        2.074   0.234   0.087   2.395
   10        0.276   0.375   7.869   8.519
   11        0.273   0.369   7.852   8.494
   12        0.272   0.363   7.860   8.495
   13        0.272   0.363   7.860   8.495
   14        0.273   0.369   7.852   8.494
   15        0.298   0.424   7.853   8.575
   16        0.300   0.426   7.848   8.575
   17        0.278   0.380   7.842   8.500
   18        0.278   0.379   7.850   8.506
   19        0.271   0.364   7.858   8.493
   20        0.275   0.369   7.853   8.497
   21        0.275   0.369   7.853   8.497
   22        0.271   0.364   7.858   8.493
   23        0.299   0.424   7.846   8.569
   24        0.299   0.425   7.854   8.578
   25        0.277   0.378   7.858   8.513
   26        1.261   2.787   0.006   4.054
   27        1.269   2.768   0.007   4.044
   28        1.264   2.783   0.006   4.053
   29        1.279   2.734   0.008   4.022
   30        1.266   2.771   0.007   4.044
   31        1.268   2.766   0.007   4.040
   32        1.268   2.766   0.007   4.040
   33        1.266   2.771   0.007   4.044
   34        1.269   2.769   0.007   4.044
   35        1.266   2.770   0.007   4.042
   36        1.266   2.770   0.007   4.042
   37        1.269   2.769   0.007   4.044
   38        1.265   2.775   0.007   4.047
   39        1.280   2.732   0.008   4.020
   40        1.264   2.783   0.006   4.054
   41        1.268   2.772   0.008   4.047
   42        1.258   2.793   0.007   4.058
   43        1.264   2.779   0.006   4.050
   44        1.256   2.796   0.006   4.058
   45        1.262   2.783   0.006   4.051
   46        1.270   2.764   0.007   4.042
   47        1.269   2.764   0.007   4.041
   48        1.269   2.764   0.007   4.041
   49        1.270   2.764   0.007   4.042
   50        1.267   2.770   0.006   4.043
   51        1.271   2.760   0.007   4.038
   52        1.271   2.760   0.007   4.038
   53        1.267   2.770   0.006   4.043
   54        1.258   2.794   0.007   4.059
   55        1.261   2.786   0.006   4.053
   56        1.260   2.786   0.007   4.052
   57        1.264   2.778   0.006   4.049
--------------------------------------------------
tot          63.68   96.96  126.66  287.29
 
magnetization (x)
 
# of ion       s       p       d       tot
------------------------------------------
    1        0.006   0.016   0.000   0.021
    2        0.006   0.016   0.000   0.021
    3        0.003   0.006  -0.000   0.009
    4        0.004   0.009  -0.000   0.013
    5        0.003   0.009   0.000   0.013
    6        0.004   0.005  -0.000   0.009
    7        0.006   0.015   0.000   0.021
    8        0.006   0.015   0.000   0.021
    9        0.004   0.005  -0.000   0.009
   10        0.003  -0.000   0.449   0.452
   11        0.000  -0.001   0.505   0.505
   12        0.003  -0.000   0.556   0.559
   13        0.003  -0.000   0.556   0.559
   14        0.000  -0.001   0.505   0.505
   15       -0.001   0.000  -0.146  -0.147
   16       -0.001   0.000  -0.116  -0.116
   17       -0.000  -0.000   0.272   0.272
   18        0.002   0.000   0.418   0.420
   19        0.000  -0.000   0.533   0.533
   20        0.002  -0.000   0.507   0.509
   21        0.002  -0.000   0.507   0.509
   22        0.000  -0.000   0.533   0.533
   23       -0.001   0.000  -0.114  -0.115
   24       -0.001   0.000  -0.162  -0.162
   25        0.000  -0.000   0.302   0.302
   26        0.010   0.052   0.000   0.062
   27        0.007   0.063   0.000   0.071
   28        0.006   0.020   0.000   0.026
   29        0.001   0.009   0.000   0.010
   30        0.003   0.021   0.000   0.024
   31        0.005   0.045   0.000   0.050
   32        0.005   0.045   0.000   0.050
   33        0.003   0.021   0.000   0.024
   34        0.003   0.020   0.000   0.023
   35        0.005   0.057   0.000   0.062
   36        0.005   0.057   0.000   0.062
   37        0.003   0.020   0.000   0.023
   38        0.006   0.022   0.000   0.028
   39        0.001   0.008   0.000   0.009
   40        0.010   0.055   0.000   0.066
   41        0.005   0.034   0.000   0.039
   42        0.000  -0.007   0.000  -0.007
   43        0.006   0.011   0.000   0.017
   44        0.006   0.050   0.000   0.057
   45        0.011   0.075   0.000   0.086
   46        0.006   0.057   0.000   0.063
   47        0.004   0.037   0.000   0.041
   48        0.004   0.037   0.000   0.041
   49        0.006   0.057   0.000   0.063
   50        0.005   0.056   0.000   0.062
   51        0.004   0.028   0.000   0.032
   52        0.004   0.028   0.000   0.032
   53        0.005   0.056   0.000   0.062
   54        0.005   0.041   0.000   0.047
   55        0.009   0.039   0.000   0.048
   56        0.001  -0.006   0.000  -0.005
   57        0.006   0.014   0.000   0.020
--------------------------------------------------
tot           0.21    1.22    5.11    6.54
 

 total amount of memory used by VASP MPI-rank0    93478. kBytes
=======================================================================

   base      :      30000. kBytes
   nonlr-proj:      21709. kBytes
   fftplans  :       5544. kBytes
   grid      :      31764. kBytes
   one-center:        886. kBytes
   wavefun   :       3575. kBytes
 
  
  
 General timing and accounting informations for this job:
 ========================================================
  
                  Total CPU time used (sec):      480.118
                            User time (sec):      475.502
                          System time (sec):        4.615
                         Elapsed time (sec):      488.529
  
                   Maximum memory used (kb):      139580.
                   Average memory used (kb):           0.
  
                          Minor page faults:        38437
                          Major page faults:           42
                 Voluntary context switches:         1411
