 vasp.5.4.4.18Apr17-6-g9f103f2a35 (build May 12 2020 05:39:39) gamma-only       
  
 MD_VERSION_INFO: Compiled 2020-05-12T12:39:39-UTC in devlin.sd.materialsdesign.
 com:/home/medea2/data/build/wwolf/vasp-gpu5.4.4/13047/x86_64/src/src/build/gam 
 from svn 13047
 
 This VASP executable licensed from Materials Design, Inc.
 
 executed on                        Lin64 date 2023.03.07  01:01:21
 running on   16 total cores
 distrk:  each k-point on   16 cores,    1 groups
 distr:  one band on NCORES_PER_BAND=   1 cores,   16 groups


--------------------------------------------------------------------------------------------------------


 INCAR:
 POTCAR:    PAW_PBE Li_sv 10Sep2004               
 POTCAR:    PAW_PBE Ni 02Aug2007                  
 POTCAR:    PAW_PBE O 08Apr2002                   

 ----------------------------------------------------------------------------- 
|                                                                             |
|           W    W    AA    RRRRR   N    N  II  N    N   GGGG   !!!           |
|           W    W   A  A   R    R  NN   N  II  NN   N  G    G  !!!           |
|           W    W  A    A  R    R  N N  N  II  N N  N  G       !!!           |
|           W WW W  AAAAAA  RRRRR   N  N N  II  N  N N  G  GGG   !            |
|           WW  WW  A    A  R   R   N   NN  II  N   NN  G    G                |
|           W    W  A    A  R    R  N    N  II  N    N   GGGG   !!!           |
|                                                                             |
|      For optimal performance we recommend to set                            |
|        NCORE= 4 - approx SQRT( number of cores)                             |
|      NCORE specifies how many cores store one orbital (NPAR=cpu/NCORE).     |
|      This setting can  greatly improve the performance of VASP for DFT.     |
|      The default,   NCORE=1            might be grossly inefficient         |
|      on modern multi-core architectures or massively parallel machines.     |
|      Do your own testing !!!!                                               |
|      Unfortunately you need to use the default for GW and RPA calculations. |
|      (for HF NCORE is supported but not extensively tested yet)             |
|                                                                             |
 ----------------------------------------------------------------------------- 

 POTCAR:    PAW_PBE Li_sv 10Sep2004               
  local pseudopotential read in
  atomic valenz-charges read in
  non local Contribution for L=           0  read in
    real space projection operators read in
  non local Contribution for L=           0  read in
    real space projection operators read in
  non local Contribution for L=           1  read in
    real space projection operators read in
    PAW grid and wavefunctions read in
 
   number of l-projection  operators is LMAX  =           3
   number of lm-projection operators is LMMAX =           5
 
 POTCAR:    PAW_PBE Ni 02Aug2007                  
  local pseudopotential read in
  partial core-charges read in
  partial kinetic energy density read in
  atomic valenz-charges read in
  non local Contribution for L=           2  read in
    real space projection operators read in
  non local Contribution for L=           2  read in
    real space projection operators read in
  non local Contribution for L=           0  read in
    real space projection operators read in
  non local Contribution for L=           0  read in
    real space projection operators read in
  non local Contribution for L=           1  read in
    real space projection operators read in
  non local Contribution for L=           1  read in
    real space projection operators read in
    PAW grid and wavefunctions read in
 
   number of l-projection  operators is LMAX  =           6
   number of lm-projection operators is LMMAX =          18
 
 POTCAR:    PAW_PBE O 08Apr2002                   
  local pseudopotential read in
  partial core-charges read in
  partial kinetic energy density read in
  kinetic energy density of atom read in
  atomic valenz-charges read in
  non local Contribution for L=           0  read in
    real space projection operators read in
  non local Contribution for L=           0  read in
    real space projection operators read in
  non local Contribution for L=           1  read in
    real space projection operators read in
  non local Contribution for L=           1  read in
    real space projection operators read in
    PAW grid and wavefunctions read in
 
   number of l-projection  operators is LMAX  =           4
   number of lm-projection operators is LMMAX =           8
 
 Optimization of the real space projectors (new method)

 maximal supplied QI-value         = 22.11
 optimisation between [QCUT,QGAM] = [ 11.28, 22.77] = [ 35.61,145.23] Ry 
 Optimized for a Real-space Cutoff    1.10 Angstroem

   l    n(q)    QCUT    max X(q) W(low)/X(q) W(high)/X(q)  e(spline) 
   0      7    11.276    10.506    0.54E-04    0.58E-04    0.16E-07
   0      7    11.276     8.367    0.11E-03    0.14E-03    0.35E-07
   1      7    11.276     8.983    0.23E-03    0.43E-03    0.86E-07
 Optimization of the real space projectors (new method)

 maximal supplied QI-value         = 16.25
 optimisation between [QCUT,QGAM] = [ 11.38, 22.75] = [ 36.24,144.96] Ry 
 Optimized for a Real-space Cutoff    1.47 Angstroem

   l    n(q)    QCUT    max X(q) W(low)/X(q) W(high)/X(q)  e(spline) 
   2      9    11.376    60.317    0.17E-03    0.16E-04    0.16E-06
   2      9    11.376    55.921    0.17E-03    0.16E-04    0.17E-06
   0     10    11.376    51.690    0.45E-04    0.60E-04    0.21E-06
   0     10    11.376    30.015    0.37E-04    0.55E-04    0.19E-06
   1     10    11.376    18.849    0.83E-04    0.11E-03    0.92E-07
   1     10    11.376    14.624    0.69E-04    0.92E-04    0.82E-07
 Optimization of the real space projectors (new method)

 maximal supplied QI-value         = 24.76
 optimisation between [QCUT,QGAM] = [ 11.39, 22.77] = [ 36.31,145.25] Ry 
 Optimized for a Real-space Cutoff    1.10 Angstroem

   l    n(q)    QCUT    max X(q) W(low)/X(q) W(high)/X(q)  e(spline) 
   0      7    11.387    20.381    0.22E-03    0.48E-03    0.18E-06
   0      7    11.387    15.268    0.22E-03    0.52E-03    0.19E-06
   1      7    11.387     5.964    0.22E-03    0.73E-03    0.24E-06
   1      7    11.387     5.382    0.19E-03    0.60E-03    0.21E-06

 ----------------------------------------------------------------------------- 
|                                                                             |
|  ADVICE TO THIS USER RUNNING 'VASP/VAMP'   (HEAR YOUR MASTER'S VOICE ...):  |
|                                                                             |
|      You enforced a specific xc-type in the INCAR file,                     |
|      a different type was found on the POTCAR file                          |
|          I HOPE YOU KNOW, WHAT YOU ARE  DOING                               |
|                                                                             |
 ----------------------------------------------------------------------------- 

  PAW_PBE Li_sv 10Sep2004               :
 energy of atom  1       EATOM= -202.7858
 kinetic energy error for atom=    0.0143 (will be added to EATOM!!)
  PAW_PBE Ni 02Aug2007                  :
 energy of atom  2       EATOM=-1077.6739
 kinetic energy error for atom=    0.0030 (will be added to EATOM!!)
  PAW_PBE O 08Apr2002                   :
 energy of atom  3       EATOM= -432.3788
 kinetic energy error for atom=    0.0224 (will be added to EATOM!!)
 
 
 POSCAR: ce17486_1                               
  positions in direct lattice
  No initial velocities read in
 exchange correlation table for  LEXCH =       14
   RHO(1)=    0.500       N(1)  =     2000
   RHO(2)=  100.500       N(2)  =     4000
 


--------------------------------------------------------------------------------------------------------


 ion  position               nearest neighbor table
   1  0.997  0.249  0.734-  21 2.06  48 2.07  45 2.10  28 2.17  25 2.18  39 2.28  11 2.77
   2  0.251  0.253  0.035-  29 1.93  49 2.03  37 2.03  15 2.71  10 2.83   5 2.83
   3  0.251  0.752  0.001-  50 2.11  38 2.11  30 2.12  52 2.12  40 2.12  26 2.14  14 2.84
   4  0.503  0.249  0.733-  33 2.05  48 2.07  45 2.10  28 2.18  25 2.18  51 2.28  12 2.77
   5  0.998  0.001  0.002-  32 1.83  31 1.83  30 1.85  29 1.86  40 1.89  39 1.95  10 2.76   9 2.79
                            10 2.80   6 2.80   8 2.82   2 2.83   7 2.83
   6  0.250  0.004  0.251-  23 1.84  35 1.84  40 1.85  52 1.85  46 1.91  29 1.93   9 2.78   9 2.78
                            10 2.80   5 2.80  11 2.82  12 2.82
   7  0.250  0.991  0.746-  24 1.84  36 1.84  39 1.85  51 1.85  45 1.92  30 1.94   8 2.78   8 2.78
                            11 2.80  12 2.80   5 2.83  10 2.83
   8  0.750  0.994  0.748-  36 1.84  24 1.84  51 1.87  39 1.87  31 1.91  48 1.91   7 2.78   7 2.78
                            11 2.80  12 2.80   5 2.82  10 2.82
   9  0.750  0.999  0.249-  35 1.84  23 1.84  52 1.86  40 1.86  47 1.92  32 1.92   6 2.78   6 2.78
                             5 2.79  10 2.79  12 2.82  11 2.82
  10  0.502  0.001  0.002-  32 1.84  31 1.84  30 1.85  29 1.86  52 1.89  51 1.95   5 2.76   9 2.79
                             6 2.80   5 2.80   8 2.82   2 2.83   7 2.83
  11  1.000  0.998  0.500-  47 1.83  46 1.84  48 1.87  45 1.87  23 1.92  24 1.92   1 2.77  12 2.78
                            12 2.79   7 2.80   8 2.80   6 2.82   9 2.82
  12  0.501  0.998  0.500-  47 1.84  46 1.84  48 1.87  45 1.87  35 1.92  36 1.92   4 2.77  11 2.78
                            11 2.79   7 2.80   8 2.80   6 2.82   9 2.82
  13  1.000  0.500  0.498-  44 1.84  43 1.84  41 1.84  42 1.84  22 1.89  21 1.96  18 2.78  15 2.78
                            16 2.78  18 2.79  14 2.82  17 2.83
  14  0.250  0.503  0.751-  50 1.84  38 1.84  21 1.84  33 1.84  42 1.90  25 1.96  17 2.78  17 2.78
                            19 2.80  20 2.80  13 2.82  18 2.82   3 2.84
  15  0.250  0.505  0.254-  22 1.84  34 1.84  49 1.85  37 1.85  41 1.90  26 1.96   2 2.71  18 2.78
                            13 2.78  16 2.78  16 2.78  19 2.84  20 2.84
  16  0.750  0.500  0.251-  22 1.84  34 1.84  49 1.86  37 1.86  44 1.88  27 1.93  13 2.78  18 2.78
                            15 2.78  15 2.78  19 2.83  20 2.83
  17  0.750  0.508  0.753-  21 1.85  33 1.85  38 1.86  50 1.86  43 1.89  28 1.94  14 2.78  14 2.78
                            19 2.79  20 2.79  13 2.83  18 2.83
  18  0.501  0.500  0.498-  44 1.84  43 1.84  41 1.84  42 1.84  34 1.89  33 1.96  13 2.78  15 2.78
                            16 2.78  13 2.79  14 2.82  17 2.83
  19  0.999  0.499  0.998-  27 1.83  26 1.85  28 1.86  25 1.88  37 1.92  38 1.92  20 2.76  17 2.79
                            20 2.80  14 2.80  16 2.83  15 2.84
  20  0.502  0.499  0.998-  27 1.83  26 1.85  28 1.86  25 1.88  49 1.92  50 1.92  19 2.76  17 2.79
                            19 2.80  14 2.80  16 2.83  15 2.84
  21  0.998  0.403  0.641-  14 1.84  17 1.85  13 1.96   1 2.06
  22  0.997  0.600  0.366-  15 1.84  16 1.84  13 1.89
  23  0.997  0.098  0.365-   9 1.84   6 1.84  11 1.92
  24  0.998  0.895  0.633-   7 1.84   8 1.84  11 1.92
  25  0.250  0.393  0.882-  19 1.88  20 1.88  14 1.96   1 2.18   4 2.18
  26  0.250  0.600  0.109-  19 1.85  20 1.85  15 1.96   3 2.14
  27  0.750  0.596  0.112-  20 1.83  19 1.83  16 1.93
  28  0.750  0.398  0.881-  20 1.86  19 1.86  17 1.94   1 2.17   4 2.18
  29  0.250  0.102  0.114-  10 1.86   5 1.86   6 1.93   2 1.93
  30  0.250  0.899  0.891-  10 1.85   5 1.85   7 1.94   3 2.12
  31  0.750  0.902  0.888-   5 1.83  10 1.84   8 1.91
  32  0.750  0.100  0.115-   5 1.83  10 1.84   9 1.92
  33  0.503  0.403  0.641-  14 1.84  17 1.85  18 1.96   4 2.05
  34  0.504  0.600  0.366-  15 1.84  16 1.84  18 1.89
  35  0.503  0.097  0.365-   9 1.84   6 1.84  12 1.92
  36  0.502  0.895  0.633-   7 1.84   8 1.84  12 1.92
  37  0.006  0.403  0.137-  15 1.85  16 1.86  19 1.92   2 2.03
  38  0.005  0.604  0.868-  14 1.84  17 1.86  19 1.92   3 2.11
  39  0.005  0.097  0.859-   7 1.85   8 1.87   5 1.95   1 2.28
  40  0.005  0.902  0.134-   6 1.85   9 1.86   5 1.89   3 2.12
  41  0.250  0.403  0.384-  18 1.84  13 1.84  15 1.90
  42  0.250  0.597  0.613-  18 1.84  13 1.84  14 1.90
  43  0.750  0.598  0.612-  13 1.84  18 1.84  17 1.89
  44  0.750  0.402  0.384-  18 1.84  13 1.84  16 1.88
  45  0.250  0.099  0.618-  11 1.87  12 1.87   7 1.92   4 2.10   1 2.10
  46  0.250  0.903  0.385-  11 1.84  12 1.84   6 1.91
  47  0.750  0.901  0.386-  11 1.83  12 1.84   9 1.92
  48  0.750  0.099  0.618-  11 1.87  12 1.87   8 1.91   4 2.07   1 2.07
  49  0.495  0.403  0.137-  15 1.85  16 1.86  20 1.92   2 2.03
  50  0.496  0.604  0.868-  14 1.84  17 1.86  20 1.92   3 2.11
  51  0.496  0.097  0.859-   7 1.85   8 1.87  10 1.95   4 2.28
  52  0.496  0.902  0.135-   6 1.85   9 1.86  10 1.89   3 2.12
 
  LATTYP: Found a triclinic cell.
 ALAT       =    15.0498535987
 B/A-ratio  =     0.3696119531
 C/A-ratio  =     0.7566439728
 COS(alpha) =     0.0002163392
 COS(beta)  =     0.4001445576
 COS(gamma) =     0.7393869223
  
  Lattice vectors:
  
 A1 = (   3.5564627371, -11.1264124674,  -9.4896054579)
 A2 = (   0.0000028066,  -5.5626057335,  -0.0007331740)
 A3 = (  -6.2028646331,  -0.0012079770,  -9.5497076039)


Analysis of symmetry for initial positions (statically):
=====================================================================
 Subroutine PRICEL returns:
 Original cell was already a primitive cell.
 

 Routine SETGRP: Setting up the symmetry group for a 
 triclinic supercell.


 Subroutine GETGRP returns: Found  1 space group operations
 (whereof  1 operations were pure point group operations)
 out of a pool of  2 trial point group operations.


The static configuration has the point symmetry C_1 .


Analysis of symmetry for dynamics (positions and initial velocities):
=====================================================================
 Subroutine PRICEL returns:
 Original cell was already a primitive cell.
 

 Routine SETGRP: Setting up the symmetry group for a 
 triclinic supercell.


 Subroutine GETGRP returns: Found  1 space group operations
 (whereof  1 operations were pure point group operations)
 out of a pool of  2 trial point group operations.


The dynamic configuration has the point symmetry C_1 .


Analysis of structural, dynamic, and magnetic symmetry:
=====================================================================
 Subroutine PRICEL returns:
 Original cell was already a primitive cell.
 

 Routine SETGRP: Setting up the symmetry group for a 
 triclinic supercell.


 Subroutine GETGRP returns: Found  1 space group operations
 (whereof  1 operations were pure point group operations)
 out of a pool of  2 trial point group operations.


The magnetic configuration has the point symmetry C_1 .


 Subroutine INISYM returns: Found  1 space group operations
 (whereof  1 operations are pure point group operations),
 and found     1 'primitive' translations

 
 
 KPOINTS: Automatic mesh                          

Automatic generation of k-mesh.
Space group operators:
 irot       det(A)        alpha          n_x          n_y          n_z        tau_x        tau_y        tau_z
    1     1.000000     0.000001     1.000000     0.000000     0.000000     0.000000     0.000000     0.000000
 
 Subroutine IBZKPT returns following result:
 ===========================================
 
 Found      1 irreducible k-points:
 
 Following reciprocal coordinates:
            Coordinates               Weight
  0.000000  0.000000  0.000000      1.000000
 
 Following cartesian coordinates:
            Coordinates               Weight
  0.000000  0.000000  0.000000      1.000000
 


--------------------------------------------------------------------------------------------------------




 Dimension of arrays:
   k-points           NKPTS =      1   k-points in BZ     NKDIM =      1   number of bands    NBANDS=    240
   number of dos      NEDOS =    301   number of ions     NIONS =     52
   non local maximal  LDIM  =      6   non local SUM 2l+1 LMDIM =     18
   total plane-waves  NPLWV = 241920
   max r-space proj   IRMAX =   6340   max aug-charges    IRDMAX=  15386
   dimension x,y,z NGX =    42 NGY =   80 NGZ =   72
   dimension x,y,z NGXF=    84 NGYF=  160 NGZF=  144
   support grid    NGXF=    84 NGYF=  160 NGZF=  144
   ions per type =               4  16  32
   NGX,Y,Z   is equivalent  to a cutoff of  12.55, 13.13, 12.26 a.u.
   NGXF,Y,Z  is equivalent  to a cutoff of  25.10, 26.25, 24.53 a.u.

 SYSTEM =  unknown system                          
 POSCAR =  ce17486_1                               

 Startparameter for this run:
   NWRITE =      1    write-flag & timer
   PREC   = accura    normal or accurate (medium, high low for compatibility)
   ISTART =      0    job   : 0-new  1-cont  2-samecut
   ICHARG =      2    charge: 1-file 2-atom 10-const
   ISPIN  =      2    spin polarized calculation?
   LNONCOLLINEAR =      F non collinear calculations
   LSORBIT =      F    spin-orbit coupling
   INIWAV =      1    electr: 0-lowe 1-rand  2-diag
   LASPH  =      F    aspherical Exc in radial PAW
   METAGGA=      F    non-selfconsistent MetaGGA calc.

 Electronic Relaxation 1
   ENCUT  =  500.0 eV  36.75 Ry    6.06 a.u.  10.14 18.47 17.79*2*pi/ulx,y,z
   ENINI  =  500.0     initial cutoff
   ENAUG  =  628.9 eV  augmentation charge cutoff
   NELM   =     80;   NELMIN=  2; NELMDL= -5     # of ELM steps 
   EDIFF  = 0.1E-04   stopping-criterion for ELM
   LREAL  =      T    real-space projection
   NLSPLINE    = F    spline interpolate recip. space projectors
   LCOMPAT=      F    compatible to vasp.4.4
   GGA_COMPAT  = T    GGA compatible to vasp.4.4-vasp.4.6
   LMAXPAW     = -100 max onsite density
   LMAXMIX     =    2 max onsite mixed and CHGCAR
   VOSKOWN=      1    Vosko Wilk Nusair interpolation
   ROPT   =   -0.00025  -0.00025  -0.00025
 Ionic relaxation
   EDIFFG = -.2E-01   stopping-criterion for IOM
   NSW    =     20    number of steps for IOM
   NBLOCK =      1;   KBLOCK =     20    inner block; outer block 
   IBRION =      1    ionic relax: 0-MD 1-quasi-New 2-CG
   NFREE  =      0    steps in history (QN), initial steepest desc. (CG)
   ISIF   =      3    stress and relaxation
   IWAVPR =     11    prediction:  0-non 1-charg 2-wave 3-comb
   ISYM   =      2    0-nonsym 1-usesym 2-fastsym
   LCORR  =      T    Harris-Foulkes like correction to forces

   POTIM  = 0.5000    time-step for ionic-motion
   TEIN   =    0.0    initial temperature
   TEBEG  =    0.0;   TEEND  =   0.0 temperature during run
   SMASS  =  -3.00    Nose mass-parameter (am)
   estimated Nose-frequenzy (Omega)   =  0.10E-29 period in steps =****** mass=  -0.707E-27a.u.
   SCALEE = 1.0000    scale energy and forces
   NPACO  =    256;   APACO  = 16.0  distance and # of slots for P.C.
   PSTRESS=    0.0 pullay stress

  Mass of Ions in am
   POMASS =   7.01 58.69 16.00
  Ionic Valenz
   ZVAL   =   3.00 10.00  6.00
  Atomic Wigner-Seitz radii
   RWIGS  =   1.23  1.15  0.73
  virtual crystal weights 
   VCA    =   1.00  1.00  1.00
   NELECT =     364.0000    total number of electrons
   NUPDOWN=      -1.0000    fix difference up-down

 DOS related values:
   EMIN   =  10.00;   EMAX   =-10.00  energy-range for DOS
   EFERMI =   0.00
   ISMEAR =     0;   SIGMA  =   0.05  broadening in eV -4-tet -1-fermi 0-gaus

 Electronic relaxation 2 (details)
   IALGO  =     38    algorithm
   LDIAG  =      T    sub-space diagonalisation (order eigenvalues)
   LSUBROT=      F    optimize rotation matrix (better conditioning)
   TURBO    =      0    0=normal 1=particle mesh
   IRESTART =      0    0=no restart 2=restart with 2 vectors
   NREBOOT  =      0    no. of reboots
   NMIN     =      0    reboot dimension
   EREF     =   0.00    reference energy to select bands
   IMIX   =      4    mixing-type and parameters
     AMIX     =   0.40;   BMIX     =  1.00
     AMIX_MAG =   1.60;   BMIX_MAG =  1.00
     AMIN     =   0.10
     WC   =   100.;   INIMIX=   1;  MIXPRE=   1;  MAXMIX= -45

 Intra band minimization:
   WEIMIN = 0.0010     energy-eigenvalue tresh-hold
   EBREAK =  0.10E-07  absolut break condition
   DEPER  =   0.30     relativ break condition  

   TIME   =   0.40     timestep for ELM

  volume/ion in A,a.u.               =       9.93        67.00
  Fermi-wavevector in a.u.,A,eV,Ry     =   1.457048  2.753421 28.884999  2.122988
  Thomas-Fermi vector in A             =   2.573895
 
 Write flags
   LWAVE        =      F    write WAVECAR
   LDOWNSAMPLE  =      F    k-point downsampling of WAVECAR
   LCHARG       =      T    write CHGCAR
   LVTOT        =      F    write LOCPOT, total local potential
   LVHAR        =      F    write LOCPOT, Hartree potential only
   LELF         =      F    write electronic localiz. function (ELF)
   LORBIT       =      0    0 simple, 1 ext, 2 COOP (PROOUT), +10 PAW based schemes


 Dipole corrections
   LMONO  =      F    monopole corrections only (constant potential shift)
   LDIPOL =      F    correct potential (dipole corrections)
   IDIPOL =      0    1-x, 2-y, 3-z, 4-all directions 
   EPSILON=  1.0000000 bulk dielectric constant

 Exchange correlation treatment:
   GGA     =    PS    GGA type
   LEXCH   =    14    internal setting for exchange type
   VOSKOWN=      1    Vosko Wilk Nusair interpolation
   LHFCALC =     F    Hartree Fock is set to
   LHFONE  =     F    Hartree Fock one center treatment
   AEXX    =    0.0000 exact exchange contribution

 Linear response parameters
   LEPSILON=     F    determine dielectric tensor
   LRPA    =     F    only Hartree local field effects (RPA)
   LNABLA  =     F    use nabla operator in PAW spheres
   LVEL    =     F    velocity operator in full k-point grid
   LINTERFAST=   F  fast interpolation
   KINTER  =     0    interpolate to denser k-point grid
   CSHIFT  =0.1000    complex shift for real part using Kramers Kronig
   OMEGAMAX=  -1.0    maximum frequency
   DEG_THRESHOLD= 0.2000000E-02 threshold for treating states as degnerate
   RTIME   =   -0.100 relaxation time in fs
  (WPLASMAI=    0.000 imaginary part of plasma frequency in eV, 0.658/RTIME)
   DFIELD  = 0.0000000 0.0000000 0.0000000 field for delta impulse in time
 
 Orbital magnetization related:
   ORBITALMAG=     F  switch on orbital magnetization
   LCHIMAG   =     F  perturbation theory with respect to B field
   DQ        =  0.001000  dq finite difference perturbation B field
   LLRAUG    =     F  two centre corrections for induced B field



--------------------------------------------------------------------------------------------------------


 quasi-Newton-method for relaxation of ions
 charge density and potential will be updated during run
 spin polarized calculation
 Variant of blocked Davidson
 Davidson routine will perform the subspace rotation
 perform sub-space diagonalisation
    after iterative eigenvector-optimisation
 modified Broyden-mixing scheme, WC =      100.0
 initial mixing is a Kerker type mixing with AMIX =  0.4000 and BMIX =      1.0000
 Hartree-type preconditioning will be used
 using additional bands           58
 real space projection scheme for non local part
 use partial core corrections
 calculate Harris-corrections to forces 
   (improved forces if not selfconsistent)
 use gradient corrections 
 use of overlap-Matrix (Vanderbilt PP)
 Gauss-broadening in eV      SIGMA  =   0.05


--------------------------------------------------------------------------------------------------------


  energy-cutoff  :      500.00
  volume of cell :      516.30
      direct lattice vectors                 reciprocal lattice vectors
    -0.000002807  5.562605733  0.000733174     0.000000015  0.179771867 -0.000022750
    -3.556457124  0.001201000  9.488139110    -0.000663334 -0.000013859  0.105146108
     9.759321757  0.000006976  0.061568494     0.102224407 -0.000004999  0.038316969

  length of vectors
     5.562605782 10.132777136  9.759515963     0.179771868  0.105148201  0.109169682


 
 k-points in units of 2pi/SCALE and weight: Automatic mesh                          
   0.00000000  0.00000000  0.00000000       1.000
 
 k-points in reciprocal lattice and weights: Automatic mesh                          
   0.00000000  0.00000000  0.00000000       1.000
 
 position of ions in fractional coordinates (direct lattice) 
   0.99709005  0.24926661  0.73411384
   0.25110121  0.25275971  0.03467799
   0.25068178  0.75188678  0.00110739
   0.50321084  0.24934435  0.73330035
   0.99824592  0.00083636  0.00158134
   0.25011642  0.00360911  0.25121290
   0.25007048  0.99129987  0.74588812
   0.75014751  0.99449857  0.74796480
   0.75018789  0.99893563  0.24897870
   0.50190900  0.00073911  0.00159893
   0.99973270  0.99781593  0.49990395
   0.50065927  0.99778577  0.49984478
   0.99984191  0.50022908  0.49832107
   0.25034915  0.50283443  0.75099033
   0.25037095  0.50546255  0.25393045
   0.75041294  0.49957437  0.25113889
   0.75040482  0.50764594  0.75301844
   0.50088160  0.50024965  0.49831925
   0.99880867  0.49886072  0.99808526
   0.50197271  0.49885340  0.99807972
   0.99759803  0.40335357  0.64094645
   0.99688130  0.60022632  0.36636701
   0.99718064  0.09756479  0.36458860
   0.99816099  0.89480642  0.63278336
   0.25034121  0.39347641  0.88201175
   0.25030822  0.60031520  0.10905917
   0.75033750  0.59623206  0.11179504
   0.75043116  0.39770700  0.88091008
   0.25014522  0.10238874  0.11415406
   0.25018584  0.89920921  0.89073384
   0.75043743  0.90181793  0.88821521
   0.75027692  0.09984644  0.11470308
   0.50315263  0.40331677  0.64089278
   0.50373493  0.60029272  0.36639998
   0.50309489  0.09736424  0.36468845
   0.50222886  0.89501076  0.63262913
   0.00567653  0.40321923  0.13671823
   0.00505031  0.60362123  0.86757450
   0.00472871  0.09681861  0.85942277
   0.00475776  0.90215831  0.13443246
   0.25042419  0.40313160  0.38394305
   0.25031327  0.59720927  0.61290255
   0.75032619  0.59816547  0.61249661
   0.75038505  0.40216881  0.38440882
   0.25008938  0.09872090  0.61769297
   0.25013989  0.90278229  0.38464392
   0.75033088  0.90128729  0.38610031
   0.75016338  0.09921725  0.61808401
   0.49519501  0.40331401  0.13677581
   0.49554368  0.60355675  0.86755352
   0.49561195  0.09702027  0.85933316
   0.49577894  0.90195027  0.13462930
 
 position of ions in cartesian coordinates  (Angst):
   6.27794436  5.54672332  2.41100560
  -0.56049611  1.39708084  2.40053846
  -2.66324642  1.39534693  7.13425834
   6.26973016  2.79946808  2.41133102
   0.01245553  5.55284949  0.00876475
   2.43883117  1.39130512  0.04989392
   3.75384597  1.39223924  9.45169762
   3.76273552  4.17397445  9.48254183
  -1.12281060  4.17420092  9.49391948
   0.01297445  2.79192278  0.00747921
   1.33003112  5.56232071  9.49892766
   1.32956232  2.78617195  9.49827195
   3.08422958  5.56233059  4.77765703
   5.54084647  1.39320276  4.81738391
   0.68053238  1.39332371  4.81171667
   0.67422830  4.17485306  4.75604354
   5.54352612  4.17482109  4.86352769
   3.08414006  2.78681114  4.77748627
   7.96645563  5.55658493  4.79544281
   7.96642899  2.79288236  4.79500875
   4.82069016  5.54973342  3.86726830
   1.44081156  5.54598106  5.71831837
   3.21114967  5.54704246  0.94888658
   2.99319294  5.55345512  8.52973913
   7.20845378  1.39302817  3.78784659
  -1.07065244  1.39308768  5.70277226
  -1.02943210  4.17454853  5.66456591
   7.18265491  4.17483647  3.82828584
   0.74992434  1.39158300  0.97869030
   5.49495844  1.39277135  8.58684664
   5.46109912  4.17547683  8.61181025
   0.76432258  4.17361541  0.95496909
   4.82029864  2.79932856  3.86655332
   1.44089856  2.80280232  5.71858885
   3.21283877  2.79863800  0.94662763
   2.99096243  2.79478046  8.53130484
  -0.09975472  0.03206152  3.83422184
   6.32018566  0.02882389  5.78066116
   8.04305209  0.02642622  0.97154527
  -1.89651773  0.02754997  8.56808384
   2.31330281  1.39349787  3.84879110
   3.85756333  1.39311556  5.70432364
   3.85019954  4.17449144  5.71373780
   2.32127113  4.17458187  3.84005125
   5.67716709  1.39127149  0.97489142
   0.54315657  1.39251651  8.58958930
   0.56268545  4.17488000  8.57586092
   5.67921673  4.17298659  0.97999157
  -0.09953124  2.75505994  3.83548358
   6.32020885  2.75724504  5.78040769
   8.04145898  2.75701639  0.97381304
  -1.89385820  2.75890696  8.56648205
 


--------------------------------------------------------------------------------------------------------


 use serial FFT for orbitals x direction half grid
 k-point  1 :   0.0000 0.0000 0.0000  plane waves:    6551

 maximum and minimum number of plane-waves per node :      6551     6551

 maximum number of plane-waves:      6551
 maximum index in each direction: 
   IXMAX=   10   IYMAX=   18   IZMAX=   17
   IXMIN=    0   IYMIN=  -18   IZMIN=  -17

 The following grids will avoid any aliasing or wrap around errors in the Hartre
 e energy
  - symmetry arguments have not been applied
  - exchange correlation energies might require even more grid points
  - we recommend to set PREC=Normal or Accurate and rely on VASP defaults
 NGX is ok and might be reduce to    42
 NGY is ok and might be reduce to    80
 NGZ is ok and might be reduce to    70

 serial   3D FFT for wavefunctions
 parallel 3D FFT for charge:
    minimum data exchange during FFTs selected (reduces bandwidth)


 total amount of memory used by VASP MPI-rank0    92994. kBytes
=======================================================================

   base      :      30000. kBytes
   nonlr-proj:      21591. kBytes
   fftplans  :       5544. kBytes
   grid      :      31764. kBytes
   one-center:        808. kBytes
   wavefun   :       3287. kBytes
 
     INWAV:  cpu time    0.0000: real time    0.0000
 Broyden mixing: mesh for mixing (old mesh)
   NGX = 21   NGY = 37   NGZ = 35
  (NGX  = 84   NGY  =160   NGZ  =144)
  gives a total of  27195 points

 initial charge density was supplied:
 charge density of overlapping atoms calculated
 number of electron     364.0000000 magnetization      40.0000000
 keeping initial charge density in first step


--------------------------------------------------------------------------------------------------------


 Maximum index for non-local projection operator         6137
 Maximum index for augmentation-charges         1447 (set IRDMAX)


--------------------------------------------------------------------------------------------------------


 First call to EWALD:  gamma=   0.221
 Maximum number of real-space cells 4x 2x 2
 Maximum number of reciprocal cells 2x 3x 3

    FEWALD:  cpu time    0.0034: real time    0.0034


--------------------------------------- Iteration      1(   1)  ---------------------------------------


    POTLOK:  cpu time    0.1672: real time    0.1763
    SETDIJ:  cpu time    0.0243: real time    0.0244
     EDDAV:  cpu time    1.5925: real time    1.6413
    --------------------------------------------
      LOOP:  cpu time    1.7844: real time    1.8424

 eigenvalue-minimisations  :   960
 total energy-change (2. order) : 0.6476682E+04  (-0.1626829E+05)
 number of electron     364.0000000 magnetization      40.0000000
 augmentation part      364.0000000 magnetization      40.0000000

 Free energy of the ion-electron system (eV)
  ---------------------------------------------------
  alpha Z        PSCENC =      1119.40014533
  Ewald energy   TEWEN  =    -20480.91461854
  -Hartree energ DENC   =    -12083.87970287
  -exchange      EXHF   =         0.00000000
  -V(xc)+E(xc)   XCENC  =      1476.73782664
  PAW double counting   =     26782.87697988   -27959.44867750
  entropy T*S    EENTRO =        -0.00003327
  eigenvalues    EBANDS =      5804.16801619
  atomic energy  EATOM  =     31817.74171596
  Solvation  Ediel_sol  =         0.00000000
  ---------------------------------------------------
  free energy    TOTEN  =      6476.68165182 eV

  energy without entropy =     6476.68168509  energy(sigma->0) =     6476.68166846


--------------------------------------------------------------------------------------------------------




--------------------------------------- Iteration      1(   2)  ---------------------------------------


     EDDAV:  cpu time    1.5725: real time    1.5763
    --------------------------------------------
      LOOP:  cpu time    1.5724: real time    1.5761

 eigenvalue-minimisations  :  1008
 total energy-change (2. order) :-0.5206953E+04  (-0.4704579E+04)
 number of electron     364.0000000 magnetization      40.0000000
 augmentation part      364.0000000 magnetization      40.0000000

 Free energy of the ion-electron system (eV)
  ---------------------------------------------------
  alpha Z        PSCENC =      1119.40014533
  Ewald energy   TEWEN  =    -20480.91461854
  -Hartree energ DENC   =    -12083.87970287
  -exchange      EXHF   =         0.00000000
  -V(xc)+E(xc)   XCENC  =      1476.73782664
  PAW double counting   =     26782.87697988   -27959.44867750
  entropy T*S    EENTRO =        -0.00878258
  eigenvalues    EBANDS =       597.22373222
  atomic energy  EATOM  =     31817.74171596
  Solvation  Ediel_sol  =         0.00000000
  ---------------------------------------------------
  free energy    TOTEN  =      1269.72861854 eV

  energy without entropy =     1269.73740112  energy(sigma->0) =     1269.73300983


--------------------------------------------------------------------------------------------------------




--------------------------------------- Iteration      1(   3)  ---------------------------------------


     EDDAV:  cpu time    1.8185: real time    1.8228
    --------------------------------------------
      LOOP:  cpu time    1.8185: real time    1.8228

 eigenvalue-minimisations  :  1088
 total energy-change (2. order) :-0.1476949E+04  (-0.1216990E+04)
 number of electron     364.0000000 magnetization      40.0000000
 augmentation part      364.0000000 magnetization      40.0000000

 Free energy of the ion-electron system (eV)
  ---------------------------------------------------
  alpha Z        PSCENC =      1119.40014533
  Ewald energy   TEWEN  =    -20480.91461854
  -Hartree energ DENC   =    -12083.87970287
  -exchange      EXHF   =         0.00000000
  -V(xc)+E(xc)   XCENC  =      1476.73782664
  PAW double counting   =     26782.87697988   -27959.44867750
  entropy T*S    EENTRO =        -0.06340797
  eigenvalues    EBANDS =      -879.67073199
  atomic energy  EATOM  =     31817.74171596
  Solvation  Ediel_sol  =         0.00000000
  ---------------------------------------------------
  free energy    TOTEN  =      -207.22047107 eV

  energy without entropy =     -207.15706310  energy(sigma->0) =     -207.18876708


--------------------------------------------------------------------------------------------------------




--------------------------------------- Iteration      1(   4)  ---------------------------------------


     EDDAV:  cpu time    1.8791: real time    1.8836
    --------------------------------------------
      LOOP:  cpu time    1.8791: real time    1.8836

 eigenvalue-minimisations  :  1136
 total energy-change (2. order) :-0.2175389E+03  (-0.2114829E+03)
 number of electron     364.0000000 magnetization      40.0000000
 augmentation part      364.0000000 magnetization      40.0000000

 Free energy of the ion-electron system (eV)
  ---------------------------------------------------
  alpha Z        PSCENC =      1119.40014533
  Ewald energy   TEWEN  =    -20480.91461854
  -Hartree energ DENC   =    -12083.87970287
  -exchange      EXHF   =         0.00000000
  -V(xc)+E(xc)   XCENC  =      1476.73782664
  PAW double counting   =     26782.87697988   -27959.44867750
  entropy T*S    EENTRO =        -0.13160505
  eigenvalues    EBANDS =     -1097.14144051
  atomic energy  EATOM  =     31817.74171596
  Solvation  Ediel_sol  =         0.00000000
  ---------------------------------------------------
  free energy    TOTEN  =      -424.75937667 eV

  energy without entropy =     -424.62777161  energy(sigma->0) =     -424.69357414


--------------------------------------------------------------------------------------------------------




--------------------------------------- Iteration      1(   5)  ---------------------------------------


     EDDAV:  cpu time    2.0444: real time    2.0492
    CHARGE:  cpu time    0.1122: real time    0.1124
    MIXING:  cpu time    0.0038: real time    0.0068
    --------------------------------------------
      LOOP:  cpu time    2.1600: real time    2.1682

 eigenvalue-minimisations  :  1264
 total energy-change (2. order) :-0.8541914E+01  (-0.8462233E+01)
 number of electron     363.9999881 magnetization      36.7703173
 augmentation part      106.3515680 magnetization      29.1222705

 Broyden mixing:
  rms(total) = 0.12222E+02    rms(broyden)= 0.12220E+02
  rms(prec ) = 0.15184E+02
  weight for this iteration     100.00

 Free energy of the ion-electron system (eV)
  ---------------------------------------------------
  alpha Z        PSCENC =      1119.40014533
  Ewald energy   TEWEN  =    -20480.91461854
  -Hartree energ DENC   =    -12083.87970287
  -exchange      EXHF   =         0.00000000
  -V(xc)+E(xc)   XCENC  =      1476.73782664
  PAW double counting   =     26782.87697988   -27959.44867750
  entropy T*S    EENTRO =        -0.13340474
  eigenvalues    EBANDS =     -1105.68155484
  atomic energy  EATOM  =     31817.74171596
  Solvation  Ediel_sol  =         0.00000000
  ---------------------------------------------------
  free energy    TOTEN  =      -433.30129068 eV

  energy without entropy =     -433.16788594  energy(sigma->0) =     -433.23458831


--------------------------------------------------------------------------------------------------------




--------------------------------------- Iteration      1(   6)  ---------------------------------------


    POTLOK:  cpu time    0.1454: real time    0.1458
    SETDIJ:  cpu time    0.0213: real time    0.0214
     EDDAV:  cpu time    2.3543: real time    2.3598
    CHARGE:  cpu time    0.1098: real time    0.1100
    MIXING:  cpu time    0.0034: real time    0.0034
    --------------------------------------------
      LOOP:  cpu time    2.6342: real time    2.6405

 eigenvalue-minimisations  :  1504
 total energy-change (2. order) :-0.1368056E+03  (-0.1703307E+03)
 number of electron     363.9999875 magnetization      33.6855188
 augmentation part      132.1020153 magnetization      30.1778037

 Broyden mixing:
  rms(total) = 0.25443E+02    rms(broyden)= 0.25443E+02
  rms(prec ) = 0.29163E+02
  weight for this iteration     100.00

 eigenvalues of (default mixing * dielectric matrix)
  average eigenvalue GAMMA=   0.1453
  0.1453

 Free energy of the ion-electron system (eV)
  ---------------------------------------------------
  alpha Z        PSCENC =      1119.40014533
  Ewald energy   TEWEN  =    -20480.91461854
  -Hartree energ DENC   =    -11529.70966445
  -exchange      EXHF   =         0.00000000
  -V(xc)+E(xc)   XCENC  =      1477.68761486
  PAW double counting   =     29724.78377807   -30723.45398969
  entropy T*S    EENTRO =        -0.04131710
  eigenvalues    EBANDS =     -1975.60053786
  atomic energy  EATOM  =     31817.74171596
  Solvation  Ediel_sol  =         0.00000000
  ---------------------------------------------------
  free energy    TOTEN  =      -570.10687342 eV

  energy without entropy =     -570.06555632  energy(sigma->0) =     -570.08621487


--------------------------------------------------------------------------------------------------------




--------------------------------------- Iteration      1(   7)  ---------------------------------------


    POTLOK:  cpu time    0.1433: real time    0.1436
    SETDIJ:  cpu time    0.0216: real time    0.0216
     EDDAV:  cpu time    2.0995: real time    2.1045
    CHARGE:  cpu time    0.1050: real time    0.1052
    MIXING:  cpu time    0.0033: real time    0.0033
    --------------------------------------------
      LOOP:  cpu time    2.3726: real time    2.3782

 eigenvalue-minimisations  :  1312
 total energy-change (2. order) : 0.1346030E+03  (-0.4509993E+02)
 number of electron     363.9999890 magnetization      28.0109014
 augmentation part      133.9610382 magnetization      26.1437235

 Broyden mixing:
  rms(total) = 0.12801E+02    rms(broyden)= 0.12800E+02
  rms(prec ) = 0.15009E+02
  weight for this iteration     100.00

 eigenvalues of (default mixing * dielectric matrix)
  average eigenvalue GAMMA=   0.3767
  0.3767  0.3767

 Free energy of the ion-electron system (eV)
  ---------------------------------------------------
  alpha Z        PSCENC =      1119.40014533
  Ewald energy   TEWEN  =    -20480.91461854
  -Hartree energ DENC   =    -11620.51939216
  -exchange      EXHF   =         0.00000000
  -V(xc)+E(xc)   XCENC  =      1473.34750531
  PAW double counting   =     30620.13208003   -31686.92480483
  entropy T*S    EENTRO =        -0.05136392
  eigenvalues    EBANDS =     -1677.71509883
  atomic energy  EATOM  =     31817.74171596
  Solvation  Ediel_sol  =         0.00000000
  ---------------------------------------------------
  free energy    TOTEN  =      -435.50383164 eV

  energy without entropy =     -435.45246773  energy(sigma->0) =     -435.47814968


--------------------------------------------------------------------------------------------------------




--------------------------------------- Iteration      1(   8)  ---------------------------------------


    POTLOK:  cpu time    0.1403: real time    0.1406
    SETDIJ:  cpu time    0.0217: real time    0.0217
     EDDAV:  cpu time    2.0538: real time    2.0587
    CHARGE:  cpu time    0.1027: real time    0.1029
    MIXING:  cpu time    0.0033: real time    0.0033
    --------------------------------------------
      LOOP:  cpu time    2.3218: real time    2.3273

 eigenvalue-minimisations  :  1360
 total energy-change (2. order) : 0.1068369E+01  (-0.3391606E+02)
 number of electron     363.9999883 magnetization      22.6953920
 augmentation part      117.6095639 magnetization      20.4754268

 Broyden mixing:
  rms(total) = 0.14300E+02    rms(broyden)= 0.14299E+02
  rms(prec ) = 0.22143E+02
  weight for this iteration     100.00

 eigenvalues of (default mixing * dielectric matrix)
  average eigenvalue GAMMA=   0.4527
  0.5811  0.5811  0.1958

 Free energy of the ion-electron system (eV)
  ---------------------------------------------------
  alpha Z        PSCENC =      1119.40014533
  Ewald energy   TEWEN  =    -20480.91461854
  -Hartree energ DENC   =    -11816.84668252
  -exchange      EXHF   =         0.00000000
  -V(xc)+E(xc)   XCENC  =      1469.08201992
  PAW double counting   =     31777.42882516   -32962.17424143
  entropy T*S    EENTRO =        -0.04772029
  eigenvalues    EBANDS =     -1358.10490613
  atomic energy  EATOM  =     31817.74171596
  Solvation  Ediel_sol  =         0.00000000
  ---------------------------------------------------
  free energy    TOTEN  =      -434.43546254 eV

  energy without entropy =     -434.38774225  energy(sigma->0) =     -434.41160239


--------------------------------------------------------------------------------------------------------




--------------------------------------- Iteration      1(   9)  ---------------------------------------


    POTLOK:  cpu time    0.1354: real time    0.1357
    SETDIJ:  cpu time    0.0209: real time    0.0209
     EDDAV:  cpu time    2.0994: real time    2.1044
    CHARGE:  cpu time    0.1098: real time    0.1100
    MIXING:  cpu time    0.0037: real time    0.0037
    --------------------------------------------
      LOOP:  cpu time    2.3692: real time    2.3749

 eigenvalue-minimisations  :  1328
 total energy-change (2. order) : 0.6571849E+02  (-0.3174886E+02)
 number of electron     363.9999879 magnetization      17.2583854
 augmentation part      117.9983032 magnetization      13.8398501

 Broyden mixing:
  rms(total) = 0.87624E+01    rms(broyden)= 0.87615E+01
  rms(prec ) = 0.11198E+02
  weight for this iteration     100.00

 eigenvalues of (default mixing * dielectric matrix)
  average eigenvalue GAMMA=   0.4469
  0.7441  0.4473  0.4473  0.1490

 Free energy of the ion-electron system (eV)
  ---------------------------------------------------
  alpha Z        PSCENC =      1119.40014533
  Ewald energy   TEWEN  =    -20480.91461854
  -Hartree energ DENC   =    -11780.03403424
  -exchange      EXHF   =         0.00000000
  -V(xc)+E(xc)   XCENC  =      1465.95792268
  PAW double counting   =     32465.44075352   -33665.98795207
  entropy T*S    EENTRO =        -0.06280535
  eigenvalues    EBANDS =     -1310.25810399
  atomic energy  EATOM  =     31817.74171596
  Solvation  Ediel_sol  =         0.00000000
  ---------------------------------------------------
  free energy    TOTEN  =      -368.71697669 eV

  energy without entropy =     -368.65417134  energy(sigma->0) =     -368.68557402


--------------------------------------------------------------------------------------------------------




--------------------------------------- Iteration      1(  10)  ---------------------------------------


    POTLOK:  cpu time    0.1436: real time    0.1439
    SETDIJ:  cpu time    0.0215: real time    0.0215
     EDDAV:  cpu time    2.2460: real time    2.2513
    CHARGE:  cpu time    0.1104: real time    0.1107
    MIXING:  cpu time    0.0039: real time    0.0039
    --------------------------------------------
      LOOP:  cpu time    2.5253: real time    2.5313

 eigenvalue-minimisations  :  1424
 total energy-change (2. order) : 0.1182526E+02  (-0.1100824E+02)
 number of electron     363.9999888 magnetization      15.0725430
 augmentation part      115.8678844 magnetization      13.1770876

 Broyden mixing:
  rms(total) = 0.10041E+02    rms(broyden)= 0.10041E+02
  rms(prec ) = 0.14150E+02
  weight for this iteration     100.00

 eigenvalues of (default mixing * dielectric matrix)
  average eigenvalue GAMMA=   0.4167
  0.9568  0.3994  0.3994  0.1640  0.1640

 Free energy of the ion-electron system (eV)
  ---------------------------------------------------
  alpha Z        PSCENC =      1119.40014533
  Ewald energy   TEWEN  =    -20480.91461854
  -Hartree energ DENC   =    -11759.24399019
  -exchange      EXHF   =         0.00000000
  -V(xc)+E(xc)   XCENC  =      1463.95431660
  PAW double counting   =     33598.28569230   -34827.76641272
  entropy T*S    EENTRO =        -0.03289194
  eigenvalues    EBANDS =     -1288.31567225
  atomic energy  EATOM  =     31817.74171596
  Solvation  Ediel_sol  =         0.00000000
  ---------------------------------------------------
  free energy    TOTEN  =      -356.89171545 eV

  energy without entropy =     -356.85882351  energy(sigma->0) =     -356.87526948


--------------------------------------------------------------------------------------------------------




--------------------------------------- Iteration      1(  11)  ---------------------------------------


    POTLOK:  cpu time    0.1436: real time    0.1439
    SETDIJ:  cpu time    0.0212: real time    0.0213
     EDDAV:  cpu time    2.1374: real time    2.1425
    CHARGE:  cpu time    0.1096: real time    0.1099
    MIXING:  cpu time    0.0041: real time    0.0041
    --------------------------------------------
      LOOP:  cpu time    2.4158: real time    2.4216

 eigenvalue-minimisations  :  1344
 total energy-change (2. order) : 0.2178368E+02  (-0.2007029E+02)
 number of electron     363.9999884 magnetization      11.1766024
 augmentation part      118.3755859 magnetization       8.7309084

 Broyden mixing:
  rms(total) = 0.41365E+01    rms(broyden)= 0.41355E+01
  rms(prec ) = 0.57929E+01
  weight for this iteration     100.00

 eigenvalues of (default mixing * dielectric matrix)
  average eigenvalue GAMMA=   0.4733
  1.1204  0.6526  0.3932  0.3932  0.1669  0.1138

 Free energy of the ion-electron system (eV)
  ---------------------------------------------------
  alpha Z        PSCENC =      1119.40014533
  Ewald energy   TEWEN  =    -20480.91461854
  -Hartree energ DENC   =    -11747.79747277
  -exchange      EXHF   =         0.00000000
  -V(xc)+E(xc)   XCENC  =      1463.42629563
  PAW double counting   =     34002.99003858   -35239.25300757
  entropy T*S    EENTRO =        -0.03899285
  eigenvalues    EBANDS =     -1270.66214032
  atomic energy  EATOM  =     31817.74171596
  Solvation  Ediel_sol  =         0.00000000
  ---------------------------------------------------
  free energy    TOTEN  =      -335.10803655 eV

  energy without entropy =     -335.06904369  energy(sigma->0) =     -335.08854012


--------------------------------------------------------------------------------------------------------




--------------------------------------- Iteration      1(  12)  ---------------------------------------


    POTLOK:  cpu time    0.1427: real time    0.1430
    SETDIJ:  cpu time    0.0213: real time    0.0213
     EDDAV:  cpu time    2.1367: real time    2.1418
    CHARGE:  cpu time    0.1095: real time    0.1097
    MIXING:  cpu time    0.0042: real time    0.0042
    --------------------------------------------
      LOOP:  cpu time    2.4143: real time    2.4200

 eigenvalue-minimisations  :  1344
 total energy-change (2. order) : 0.4243238E+01  (-0.4772065E+01)
 number of electron     363.9999884 magnetization       9.3522216
 augmentation part      120.1047061 magnetization       8.1860661

 Broyden mixing:
  rms(total) = 0.50974E+01    rms(broyden)= 0.50965E+01
  rms(prec ) = 0.62322E+01
  weight for this iteration     100.00

 eigenvalues of (default mixing * dielectric matrix)
  average eigenvalue GAMMA=   0.4421
  1.0863  0.7065  0.4133  0.4133  0.2078  0.1575  0.1099

 Free energy of the ion-electron system (eV)
  ---------------------------------------------------
  alpha Z        PSCENC =      1119.40014533
  Ewald energy   TEWEN  =    -20480.91461854
  -Hartree energ DENC   =    -11726.88746943
  -exchange      EXHF   =         0.00000000
  -V(xc)+E(xc)   XCENC  =      1462.71507076
  PAW double counting   =     34566.59099029   -35801.94072385
  entropy T*S    EENTRO =        -0.03877725
  eigenvalues    EBANDS =     -1287.53113157
  atomic energy  EATOM  =     31817.74171596
  Solvation  Ediel_sol  =         0.00000000
  ---------------------------------------------------
  free energy    TOTEN  =      -330.86479831 eV

  energy without entropy =     -330.82602105  energy(sigma->0) =     -330.84540968


--------------------------------------------------------------------------------------------------------




--------------------------------------- Iteration      1(  13)  ---------------------------------------


    POTLOK:  cpu time    0.1435: real time    0.1438
    SETDIJ:  cpu time    0.0214: real time    0.0214
     EDDAV:  cpu time    2.1663: real time    2.1714
    CHARGE:  cpu time    0.1047: real time    0.1049
    MIXING:  cpu time    0.0042: real time    0.0042
    --------------------------------------------
      LOOP:  cpu time    2.4401: real time    2.4459

 eigenvalue-minimisations  :  1408
 total energy-change (2. order) : 0.7122223E+01  (-0.3961438E+01)
 number of electron     363.9999884 magnetization       7.7377754
 augmentation part      119.9908650 magnetization       7.2829019

 Broyden mixing:
  rms(total) = 0.18537E+01    rms(broyden)= 0.18530E+01
  rms(prec ) = 0.21168E+01
  weight for this iteration     100.00

 eigenvalues of (default mixing * dielectric matrix)
  average eigenvalue GAMMA=   0.4699
  0.9923  0.9923  0.4384  0.4384  0.3637  0.2590  0.1628  0.1121

 Free energy of the ion-electron system (eV)
  ---------------------------------------------------
  alpha Z        PSCENC =      1119.40014533
  Ewald energy   TEWEN  =    -20480.91461854
  -Hartree energ DENC   =    -11741.25868521
  -exchange      EXHF   =         0.00000000
  -V(xc)+E(xc)   XCENC  =      1462.80200498
  PAW double counting   =     34809.48241831   -36049.35426298
  entropy T*S    EENTRO =        -0.01235203
  eigenvalues    EBANDS =     -1261.62894079
  atomic energy  EATOM  =     31817.74171596
  Solvation  Ediel_sol  =         0.00000000
  ---------------------------------------------------
  free energy    TOTEN  =      -323.74257497 eV

  energy without entropy =     -323.73022295  energy(sigma->0) =     -323.73639896


--------------------------------------------------------------------------------------------------------




--------------------------------------- Iteration      1(  14)  ---------------------------------------


    POTLOK:  cpu time    0.1403: real time    0.1407
    SETDIJ:  cpu time    0.0214: real time    0.0215
     EDDAV:  cpu time    2.0129: real time    2.0177
    CHARGE:  cpu time    0.1101: real time    0.1104
    MIXING:  cpu time    0.0048: real time    0.0048
    --------------------------------------------
      LOOP:  cpu time    2.2895: real time    2.2950

 eigenvalue-minimisations  :  1344
 total energy-change (2. order) :-0.9605203E+00  (-0.1228918E+01)
 number of electron     363.9999884 magnetization       6.8758290
 augmentation part      119.9532432 magnetization       5.9858722

 Broyden mixing:
  rms(total) = 0.21489E+01    rms(broyden)= 0.21486E+01
  rms(prec ) = 0.25300E+01
  weight for this iteration     100.00

 eigenvalues of (default mixing * dielectric matrix)
  average eigenvalue GAMMA=   0.4761
  0.9982  0.9982  0.4411  0.4411  0.4696  0.4696  0.1916  0.1636  0.1121

 Free energy of the ion-electron system (eV)
  ---------------------------------------------------
  alpha Z        PSCENC =      1119.40014533
  Ewald energy   TEWEN  =    -20480.91461854
  -Hartree energ DENC   =    -11745.80265248
  -exchange      EXHF   =         0.00000000
  -V(xc)+E(xc)   XCENC  =      1462.68267754
  PAW double counting   =     34888.35834060   -36125.66842666
  entropy T*S    EENTRO =        -0.02660676
  eigenvalues    EBANDS =     -1260.47367024
  atomic energy  EATOM  =     31817.74171596
  Solvation  Ediel_sol  =         0.00000000
  ---------------------------------------------------
  free energy    TOTEN  =      -324.70309525 eV

  energy without entropy =     -324.67648848  energy(sigma->0) =     -324.68979187


--------------------------------------------------------------------------------------------------------




--------------------------------------- Iteration      1(  15)  ---------------------------------------


    POTLOK:  cpu time    0.1427: real time    0.1431
    SETDIJ:  cpu time    0.0213: real time    0.0214
     EDDAV:  cpu time    2.0350: real time    2.0399
    CHARGE:  cpu time    0.1096: real time    0.1099
    MIXING:  cpu time    0.0049: real time    0.0049
    --------------------------------------------
      LOOP:  cpu time    2.3136: real time    2.3191

 eigenvalue-minimisations  :  1264
 total energy-change (2. order) : 0.3500453E+00  (-0.9368917E+00)
 number of electron     363.9999884 magnetization       5.2570895
 augmentation part      119.9213629 magnetization       4.9767289

 Broyden mixing:
  rms(total) = 0.16438E+01    rms(broyden)= 0.16435E+01
  rms(prec ) = 0.19017E+01
  weight for this iteration     100.00

 eigenvalues of (default mixing * dielectric matrix)
  average eigenvalue GAMMA=   0.5218
  1.1694  1.1694  0.8288  0.5305  0.4273  0.4273  0.1121  0.2138  0.1634  0.1758

 Free energy of the ion-electron system (eV)
  ---------------------------------------------------
  alpha Z        PSCENC =      1119.40014533
  Ewald energy   TEWEN  =    -20480.91461854
  -Hartree energ DENC   =    -11749.02144488
  -exchange      EXHF   =         0.00000000
  -V(xc)+E(xc)   XCENC  =      1462.61582880
  PAW double counting   =     34948.88995578   -36184.99882711
  entropy T*S    EENTRO =        -0.01083391
  eigenvalues    EBANDS =     -1258.05497135
  atomic energy  EATOM  =     31817.74171596
  Solvation  Ediel_sol  =         0.00000000
  ---------------------------------------------------
  free energy    TOTEN  =      -324.35304991 eV

  energy without entropy =     -324.34221600  energy(sigma->0) =     -324.34763295


--------------------------------------------------------------------------------------------------------




--------------------------------------- Iteration      1(  16)  ---------------------------------------


    POTLOK:  cpu time    0.1431: real time    0.1434
    SETDIJ:  cpu time    0.0214: real time    0.0215
     EDDAV:  cpu time    1.9794: real time    1.9841
    CHARGE:  cpu time    0.1115: real time    0.1117
    MIXING:  cpu time    0.0051: real time    0.0051
    --------------------------------------------
      LOOP:  cpu time    2.2605: real time    2.2658

 eigenvalue-minimisations  :  1216
 total energy-change (2. order) : 0.1078263E+00  (-0.4902012E+00)
 number of electron     363.9999882 magnetization       3.1544213
 augmentation part      119.7667431 magnetization       2.9487420

 Broyden mixing:
  rms(total) = 0.10514E+01    rms(broyden)= 0.10512E+01
  rms(prec ) = 0.12677E+01
  weight for this iteration     100.00

 eigenvalues of (default mixing * dielectric matrix)
  average eigenvalue GAMMA=   0.5460
  1.3876  1.3876  0.7738  0.5652  0.4266  0.4266  0.3649  0.2263  0.1121  0.1631
  0.1722

 Free energy of the ion-electron system (eV)
  ---------------------------------------------------
  alpha Z        PSCENC =      1119.40014533
  Ewald energy   TEWEN  =    -20480.91461854
  -Hartree energ DENC   =    -11754.06456453
  -exchange      EXHF   =         0.00000000
  -V(xc)+E(xc)   XCENC  =      1462.53276169
  PAW double counting   =     35077.11297933   -36312.28923470
  entropy T*S    EENTRO =        -0.00677730
  eigenvalues    EBANDS =     -1253.75763082
  atomic energy  EATOM  =     31817.74171596
  Solvation  Ediel_sol  =         0.00000000
  ---------------------------------------------------
  free energy    TOTEN  =      -324.24522358 eV

  energy without entropy =     -324.23844628  energy(sigma->0) =     -324.24183493


--------------------------------------------------------------------------------------------------------




--------------------------------------- Iteration      1(  17)  ---------------------------------------


    POTLOK:  cpu time    0.1428: real time    0.1431
    SETDIJ:  cpu time    0.0215: real time    0.0215
     EDDAV:  cpu time    2.0589: real time    2.0638
    CHARGE:  cpu time    0.1111: real time    0.1114
    MIXING:  cpu time    0.0053: real time    0.0053
    --------------------------------------------
      LOOP:  cpu time    2.3396: real time    2.3451

 eigenvalue-minimisations  :  1280
 total energy-change (2. order) :-0.3710747E+00  (-0.4692144E+00)
 number of electron     363.9999884 magnetization       1.0137477
 augmentation part      119.7429749 magnetization       0.8500214

 Broyden mixing:
  rms(total) = 0.10940E+01    rms(broyden)= 0.10937E+01
  rms(prec ) = 0.14201E+01
  weight for this iteration     100.00

 eigenvalues of (default mixing * dielectric matrix)
  average eigenvalue GAMMA=   0.5773
  1.5638  1.5638  0.7671  0.7671  0.5084  0.4299  0.4299  0.2710  0.1121  0.1893
  0.1668  0.1587

 Free energy of the ion-electron system (eV)
  ---------------------------------------------------
  alpha Z        PSCENC =      1119.40014533
  Ewald energy   TEWEN  =    -20480.91461854
  -Hartree energ DENC   =    -11757.38756449
  -exchange      EXHF   =         0.00000000
  -V(xc)+E(xc)   XCENC  =      1462.45802472
  PAW double counting   =     35252.36493300   -36485.74776327
  entropy T*S    EENTRO =        -0.00463200
  eigenvalues    EBANDS =     -1252.52653902
  atomic energy  EATOM  =     31817.74171596
  Solvation  Ediel_sol  =         0.00000000
  ---------------------------------------------------
  free energy    TOTEN  =      -324.61629833 eV

  energy without entropy =     -324.61166632  energy(sigma->0) =     -324.61398232


--------------------------------------------------------------------------------------------------------




--------------------------------------- Iteration      1(  18)  ---------------------------------------


    POTLOK:  cpu time    0.1428: real time    0.1431
    SETDIJ:  cpu time    0.0214: real time    0.0214
     EDDAV:  cpu time    2.1209: real time    2.1260
    CHARGE:  cpu time    0.1110: real time    0.1112
    MIXING:  cpu time    0.0057: real time    0.0057
    --------------------------------------------
      LOOP:  cpu time    2.4017: real time    2.4074

 eigenvalue-minimisations  :  1328
 total energy-change (2. order) : 0.1734765E+00  (-0.3303999E+00)
 number of electron     363.9999883 magnetization       0.1556777
 augmentation part      119.8016295 magnetization       0.0400077

 Broyden mixing:
  rms(total) = 0.72396E+00    rms(broyden)= 0.72365E+00
  rms(prec ) = 0.92555E+00
  weight for this iteration     100.00

 eigenvalues of (default mixing * dielectric matrix)
  average eigenvalue GAMMA=   0.5862
  1.4903  1.4903  1.2954  0.6465  0.6465  0.4284  0.4284  0.3664  0.1121  0.2116
  0.1833  0.1644  0.1573

 Free energy of the ion-electron system (eV)
  ---------------------------------------------------
  alpha Z        PSCENC =      1119.40014533
  Ewald energy   TEWEN  =    -20480.91461854
  -Hartree energ DENC   =    -11760.68993448
  -exchange      EXHF   =         0.00000000
  -V(xc)+E(xc)   XCENC  =      1462.46945318
  PAW double counting   =     35455.44154396   -36687.33387955
  entropy T*S    EENTRO =        -0.00060339
  eigenvalues    EBANDS =     -1250.55664430
  atomic energy  EATOM  =     31817.74171596
  Solvation  Ediel_sol  =         0.00000000
  ---------------------------------------------------
  free energy    TOTEN  =      -324.44282183 eV

  energy without entropy =     -324.44221844  energy(sigma->0) =     -324.44252014


--------------------------------------------------------------------------------------------------------




--------------------------------------- Iteration      1(  19)  ---------------------------------------


    POTLOK:  cpu time    0.1427: real time    0.1430
    SETDIJ:  cpu time    0.0212: real time    0.0212
     EDDAV:  cpu time    1.9901: real time    1.9948
    CHARGE:  cpu time    0.1056: real time    0.1058
    MIXING:  cpu time    0.0055: real time    0.0055
    --------------------------------------------
      LOOP:  cpu time    2.2651: real time    2.2705

 eigenvalue-minimisations  :  1280
 total energy-change (2. order) : 0.1871189E-01  (-0.2549931E+00)
 number of electron     363.9999883 magnetization      -0.1149749
 augmentation part      119.8586806 magnetization      -0.2005736

 Broyden mixing:
  rms(total) = 0.62808E+00    rms(broyden)= 0.62786E+00
  rms(prec ) = 0.82427E+00
  weight for this iteration     100.00

 eigenvalues of (default mixing * dielectric matrix)
  average eigenvalue GAMMA=   0.5734
  1.6058  1.4114  1.4114  0.6549  0.6549  0.4270  0.4270  0.3830  0.1121  0.2306
  0.2194  0.1694  0.1662  0.1544

 Free energy of the ion-electron system (eV)
  ---------------------------------------------------
  alpha Z        PSCENC =      1119.40014533
  Ewald energy   TEWEN  =    -20480.91461854
  -Hartree energ DENC   =    -11762.16149502
  -exchange      EXHF   =         0.00000000
  -V(xc)+E(xc)   XCENC  =      1462.52756909
  PAW double counting   =     35575.22178807   -36807.37746213
  entropy T*S    EENTRO =        -0.00000287
  eigenvalues    EBANDS =     -1248.86174983
  atomic energy  EATOM  =     31817.74171596
  Solvation  Ediel_sol  =         0.00000000
  ---------------------------------------------------
  free energy    TOTEN  =      -324.42410994 eV

  energy without entropy =     -324.42410707  energy(sigma->0) =     -324.42410851


--------------------------------------------------------------------------------------------------------




--------------------------------------- Iteration      1(  20)  ---------------------------------------


    POTLOK:  cpu time    0.1397: real time    0.1400
    SETDIJ:  cpu time    0.0211: real time    0.0212
     EDDAV:  cpu time    1.9560: real time    1.9607
    CHARGE:  cpu time    0.1116: real time    0.1119
    MIXING:  cpu time    0.0059: real time    0.0059
    --------------------------------------------
      LOOP:  cpu time    2.2343: real time    2.2396

 eigenvalue-minimisations  :  1280
 total energy-change (2. order) : 0.1535311E+00  (-0.1139179E+00)
 number of electron     363.9999883 magnetization      -0.0786078
 augmentation part      119.9152117 magnetization      -0.1354411

 Broyden mixing:
  rms(total) = 0.31055E+00    rms(broyden)= 0.31034E+00
  rms(prec ) = 0.40285E+00
  weight for this iteration     100.00

 eigenvalues of (default mixing * dielectric matrix)
  average eigenvalue GAMMA=   0.5842
  1.6195  1.4319  1.4319  0.7650  0.7650  0.4299  0.4299  0.4403  0.4403  0.2278
  0.1121  0.1902  0.1621  0.1687  0.1489

 Free energy of the ion-electron system (eV)
  ---------------------------------------------------
  alpha Z        PSCENC =      1119.40014533
  Ewald energy   TEWEN  =    -20480.91461854
  -Hartree energ DENC   =    -11762.63794537
  -exchange      EXHF   =         0.00000000
  -V(xc)+E(xc)   XCENC  =      1462.57917280
  PAW double counting   =     35634.53736008   -36867.08066367
  entropy T*S    EENTRO =        -0.00000389
  eigenvalues    EBANDS =     -1247.89574152
  atomic energy  EATOM  =     31817.74171596
  Solvation  Ediel_sol  =         0.00000000
  ---------------------------------------------------
  free energy    TOTEN  =      -324.27057882 eV

  energy without entropy =     -324.27057493  energy(sigma->0) =     -324.27057687


--------------------------------------------------------------------------------------------------------




--------------------------------------- Iteration      1(  21)  ---------------------------------------


    POTLOK:  cpu time    0.1429: real time    0.1433
    SETDIJ:  cpu time    0.0217: real time    0.0218
     EDDAV:  cpu time    2.1007: real time    2.1057
    CHARGE:  cpu time    0.1101: real time    0.1103
    MIXING:  cpu time    0.0060: real time    0.0060
    --------------------------------------------
      LOOP:  cpu time    2.3815: real time    2.3871

 eigenvalue-minimisations  :  1312
 total energy-change (2. order) : 0.7753187E-02  (-0.4238657E-01)
 number of electron     363.9999883 magnetization       0.0155301
 augmentation part      119.9499956 magnetization      -0.0151306

 Broyden mixing:
  rms(total) = 0.30752E+00    rms(broyden)= 0.30745E+00
  rms(prec ) = 0.39439E+00
  weight for this iteration     100.00

 eigenvalues of (default mixing * dielectric matrix)
  average eigenvalue GAMMA=   0.5832
  1.6162  1.5001  1.5001  0.8576  0.8576  0.4306  0.4306  0.4700  0.4700  0.2426
  0.1121  0.1992  0.1806  0.1641  0.1572  0.1428

 Free energy of the ion-electron system (eV)
  ---------------------------------------------------
  alpha Z        PSCENC =      1119.40014533
  Ewald energy   TEWEN  =    -20480.91461854
  -Hartree energ DENC   =    -11762.69295169
  -exchange      EXHF   =         0.00000000
  -V(xc)+E(xc)   XCENC  =      1462.61808459
  PAW double counting   =     35658.84486983   -36891.74577547
  entropy T*S    EENTRO =        -0.00001557
  eigenvalues    EBANDS =     -1247.51428008
  atomic energy  EATOM  =     31817.74171596
  Solvation  Ediel_sol  =         0.00000000
  ---------------------------------------------------
  free energy    TOTEN  =      -324.26282563 eV

  energy without entropy =     -324.26281007  energy(sigma->0) =     -324.26281785


--------------------------------------------------------------------------------------------------------




--------------------------------------- Iteration      1(  22)  ---------------------------------------


    POTLOK:  cpu time    0.1424: real time    0.1428
    SETDIJ:  cpu time    0.0214: real time    0.0215
     EDDAV:  cpu time    2.0983: real time    2.1033
    CHARGE:  cpu time    0.1113: real time    0.1115
    MIXING:  cpu time    0.0065: real time    0.0065
    --------------------------------------------
      LOOP:  cpu time    2.3799: real time    2.3855

 eigenvalue-minimisations  :  1312
 total energy-change (2. order) : 0.2772418E-01  (-0.1799243E-01)
 number of electron     363.9999883 magnetization       0.0471124
 augmentation part      119.9752700 magnetization       0.0345457

 Broyden mixing:
  rms(total) = 0.18009E+00    rms(broyden)= 0.18005E+00
  rms(prec ) = 0.22830E+00
  weight for this iteration     100.00

 eigenvalues of (default mixing * dielectric matrix)
  average eigenvalue GAMMA=   0.6107
  1.7912  1.5289  1.5289  1.1901  0.6703  0.6703  0.4295  0.4295  0.4817  0.4817
  0.2273  0.1121  0.2025  0.1738  0.1654  0.1582  0.1400

 Free energy of the ion-electron system (eV)
  ---------------------------------------------------
  alpha Z        PSCENC =      1119.40014533
  Ewald energy   TEWEN  =    -20480.91461854
  -Hartree energ DENC   =    -11762.86436769
  -exchange      EXHF   =         0.00000000
  -V(xc)+E(xc)   XCENC  =      1462.65967221
  PAW double counting   =     35682.77214076   -36916.20654337
  entropy T*S    EENTRO =        -0.00000294
  eigenvalues    EBANDS =     -1246.82324318
  atomic energy  EATOM  =     31817.74171596
  Solvation  Ediel_sol  =         0.00000000
  ---------------------------------------------------
  free energy    TOTEN  =      -324.23510146 eV

  energy without entropy =     -324.23509851  energy(sigma->0) =     -324.23509998


--------------------------------------------------------------------------------------------------------




--------------------------------------- Iteration      1(  23)  ---------------------------------------


    POTLOK:  cpu time    0.1427: real time    0.1431
    SETDIJ:  cpu time    0.0216: real time    0.0216
     EDDAV:  cpu time    2.0392: real time    2.0441
    CHARGE:  cpu time    0.1107: real time    0.1109
    MIXING:  cpu time    0.0064: real time    0.0065
    --------------------------------------------
      LOOP:  cpu time    2.3206: real time    2.3262

 eigenvalue-minimisations  :  1264
 total energy-change (2. order) : 0.3644313E-02  (-0.7788014E-02)
 number of electron     363.9999883 magnetization       0.0606757
 augmentation part      119.9670573 magnetization       0.0632484

 Broyden mixing:
  rms(total) = 0.16922E+00    rms(broyden)= 0.16919E+00
  rms(prec ) = 0.21796E+00
  weight for this iteration     100.00

 eigenvalues of (default mixing * dielectric matrix)
  average eigenvalue GAMMA=   0.6150
  1.9695  1.5482  1.5482  1.3527  0.7005  0.7005  0.4291  0.4291  0.4828  0.4828
  0.2533  0.2280  0.1121  0.2002  0.1705  0.1654  0.1573  0.1389

 Free energy of the ion-electron system (eV)
  ---------------------------------------------------
  alpha Z        PSCENC =      1119.40014533
  Ewald energy   TEWEN  =    -20480.91461854
  -Hartree energ DENC   =    -11763.55552084
  -exchange      EXHF   =         0.00000000
  -V(xc)+E(xc)   XCENC  =      1462.69924422
  PAW double counting   =     35709.59527721   -36943.43727942
  entropy T*S    EENTRO =        -0.00000284
  eigenvalues    EBANDS =     -1245.76041822
  atomic energy  EATOM  =     31817.74171596
  Solvation  Ediel_sol  =         0.00000000
  ---------------------------------------------------
  free energy    TOTEN  =      -324.23145714 eV

  energy without entropy =     -324.23145430  energy(sigma->0) =     -324.23145572


--------------------------------------------------------------------------------------------------------




--------------------------------------- Iteration      1(  24)  ---------------------------------------


    POTLOK:  cpu time    0.1426: real time    0.1429
    SETDIJ:  cpu time    0.0213: real time    0.0213
     EDDAV:  cpu time    2.1195: real time    2.1245
    CHARGE:  cpu time    0.1107: real time    0.1110
    MIXING:  cpu time    0.0067: real time    0.0068
    --------------------------------------------
      LOOP:  cpu time    2.4008: real time    2.4065

 eigenvalue-minimisations  :  1328
 total energy-change (2. order) : 0.8203353E-02  (-0.7506665E-02)
 number of electron     363.9999883 magnetization       0.0487283
 augmentation part      119.9634317 magnetization       0.0585922

 Broyden mixing:
  rms(total) = 0.11701E+00    rms(broyden)= 0.11697E+00
  rms(prec ) = 0.14955E+00
  weight for this iteration     100.00

 eigenvalues of (default mixing * dielectric matrix)
  average eigenvalue GAMMA=   0.6340
  2.1796  1.5354  1.5354  1.5367  0.7236  0.7236  0.6762  0.4296  0.4296  0.4634
  0.4634  0.2305  0.1121  0.2015  0.1785  0.1653  0.1653  0.1568  0.1385

 Free energy of the ion-electron system (eV)
  ---------------------------------------------------
  alpha Z        PSCENC =      1119.40014533
  Ewald energy   TEWEN  =    -20480.91461854
  -Hartree energ DENC   =    -11763.86026441
  -exchange      EXHF   =         0.00000000
  -V(xc)+E(xc)   XCENC  =      1462.71181138
  PAW double counting   =     35723.73542614   -36957.72065884
  entropy T*S    EENTRO =        -0.00000171
  eigenvalues    EBANDS =     -1245.31680910
  atomic energy  EATOM  =     31817.74171596
  Solvation  Ediel_sol  =         0.00000000
  ---------------------------------------------------
  free energy    TOTEN  =      -324.22325379 eV

  energy without entropy =     -324.22325208  energy(sigma->0) =     -324.22325293


--------------------------------------------------------------------------------------------------------




--------------------------------------- Iteration      1(  25)  ---------------------------------------


    POTLOK:  cpu time    0.1429: real time    0.1432
    SETDIJ:  cpu time    0.0212: real time    0.0213
     EDDAV:  cpu time    2.0052: real time    2.0099
    CHARGE:  cpu time    0.1055: real time    0.1058
    MIXING:  cpu time    0.0069: real time    0.0069
    --------------------------------------------
      LOOP:  cpu time    2.2817: real time    2.2871

 eigenvalue-minimisations  :  1312
 total energy-change (2. order) : 0.3260419E-02  (-0.3466996E-02)
 number of electron     363.9999883 magnetization       0.0470992
 augmentation part      119.9492669 magnetization       0.0580157

 Broyden mixing:
  rms(total) = 0.87475E-01    rms(broyden)= 0.87451E-01
  rms(prec ) = 0.11108E+00
  weight for this iteration     100.00

 eigenvalues of (default mixing * dielectric matrix)
  average eigenvalue GAMMA=   0.6347
  2.3048  1.7400  1.5034  1.5034  0.7800  0.7800  0.6528  0.4298  0.4298  0.5271
  0.4390  0.2721  0.2256  0.1121  0.2020  0.1740  0.1659  0.1604  0.1532  0.1381

 Free energy of the ion-electron system (eV)
  ---------------------------------------------------
  alpha Z        PSCENC =      1119.40014533
  Ewald energy   TEWEN  =    -20480.91461854
  -Hartree energ DENC   =    -11764.08903408
  -exchange      EXHF   =         0.00000000
  -V(xc)+E(xc)   XCENC  =      1462.70476966
  PAW double counting   =     35735.40277981   -36969.37037056
  entropy T*S    EENTRO =        -0.00000233
  eigenvalues    EBANDS =     -1245.09537862
  atomic energy  EATOM  =     31817.74171596
  Solvation  Ediel_sol  =         0.00000000
  ---------------------------------------------------
  free energy    TOTEN  =      -324.21999337 eV

  energy without entropy =     -324.21999104  energy(sigma->0) =     -324.21999221


--------------------------------------------------------------------------------------------------------




--------------------------------------- Iteration      1(  26)  ---------------------------------------


    POTLOK:  cpu time    0.1399: real time    0.1403
    SETDIJ:  cpu time    0.0211: real time    0.0211
     EDDAV:  cpu time    2.1198: real time    2.1249
    CHARGE:  cpu time    0.1107: real time    0.1109
    MIXING:  cpu time    0.0073: real time    0.0073
    --------------------------------------------
      LOOP:  cpu time    2.3988: real time    2.4045

 eigenvalue-minimisations  :  1392
 total energy-change (2. order) : 0.2162623E-02  (-0.1596814E-02)
 number of electron     363.9999883 magnetization       0.0253480
 augmentation part      119.9429853 magnetization       0.0362770

 Broyden mixing:
  rms(total) = 0.62874E-01    rms(broyden)= 0.62858E-01
  rms(prec ) = 0.77116E-01
  weight for this iteration     100.00

 eigenvalues of (default mixing * dielectric matrix)
  average eigenvalue GAMMA=   0.6621
  2.5897  1.9160  1.5238  1.5238  0.8478  0.8478  0.8057  0.4296  0.4296  0.5600
  0.4487  0.4487  0.1121  0.2287  0.2089  0.1969  0.1726  0.1657  0.1593  0.1515
  0.1380

 Free energy of the ion-electron system (eV)
  ---------------------------------------------------
  alpha Z        PSCENC =      1119.40014533
  Ewald energy   TEWEN  =    -20480.91461854
  -Hartree energ DENC   =    -11764.18562011
  -exchange      EXHF   =         0.00000000
  -V(xc)+E(xc)   XCENC  =      1462.69758568
  PAW double counting   =     35739.36453277   -36973.30190172
  entropy T*S    EENTRO =        -0.00000176
  eigenvalues    EBANDS =     -1245.01966836
  atomic energy  EATOM  =     31817.74171596
  Solvation  Ediel_sol  =         0.00000000
  ---------------------------------------------------
  free energy    TOTEN  =      -324.21783075 eV

  energy without entropy =     -324.21782898  energy(sigma->0) =     -324.21782987


--------------------------------------------------------------------------------------------------------




--------------------------------------- Iteration      1(  27)  ---------------------------------------


    POTLOK:  cpu time    0.1427: real time    0.1430
    SETDIJ:  cpu time    0.0216: real time    0.0216
     EDDAV:  cpu time    2.1409: real time    2.1460
    CHARGE:  cpu time    0.1104: real time    0.1106
    MIXING:  cpu time    0.0075: real time    0.0075
    --------------------------------------------
      LOOP:  cpu time    2.4230: real time    2.4288

 eigenvalue-minimisations  :  1344
 total energy-change (2. order) : 0.3650152E-03  (-0.1123879E-02)
 number of electron     363.9999883 magnetization       0.0195205
 augmentation part      119.9405058 magnetization       0.0260322

 Broyden mixing:
  rms(total) = 0.51028E-01    rms(broyden)= 0.51015E-01
  rms(prec ) = 0.65982E-01
  weight for this iteration     100.00

 eigenvalues of (default mixing * dielectric matrix)
  average eigenvalue GAMMA=   0.6603
  2.7253  1.9750  1.5368  1.5368  0.8905  0.8575  0.8575  0.4295  0.4295  0.5648
  0.4640  0.4640  0.2848  0.2301  0.1121  0.2021  0.1857  0.1705  0.1658  0.1582
  0.1378  0.1479

 Free energy of the ion-electron system (eV)
  ---------------------------------------------------
  alpha Z        PSCENC =      1119.40014533
  Ewald energy   TEWEN  =    -20480.91461854
  -Hartree energ DENC   =    -11764.08642999
  -exchange      EXHF   =         0.00000000
  -V(xc)+E(xc)   XCENC  =      1462.67968203
  PAW double counting   =     35741.10916239   -36974.90840473
  entropy T*S    EENTRO =        -0.00000202
  eigenvalues    EBANDS =     -1245.23871616
  atomic energy  EATOM  =     31817.74171596
  Solvation  Ediel_sol  =         0.00000000
  ---------------------------------------------------
  free energy    TOTEN  =      -324.21746573 eV

  energy without entropy =     -324.21746371  energy(sigma->0) =     -324.21746472


--------------------------------------------------------------------------------------------------------




--------------------------------------- Iteration      1(  28)  ---------------------------------------


    POTLOK:  cpu time    0.1426: real time    0.1430
    SETDIJ:  cpu time    0.0215: real time    0.0216
     EDDAV:  cpu time    2.0981: real time    2.1031
    CHARGE:  cpu time    0.1093: real time    0.1096
    MIXING:  cpu time    0.0078: real time    0.0078
[...]
  in kB        0.1936864      0.0946159      0.6464297     -0.0006527      0.0074968     -0.4030178
  external PRESSURE =       0.3115773 kB  Pullay stress =       0.0000000 kB


 VOLUME and BASIS-vectors are now :
 -----------------------------------------------------------------------------
  energy-cutoff  :      500.00
  volume of cell :      517.23
      direct lattice vectors                 reciprocal lattice vectors
     0.000048045  5.566491392  0.000744394    -0.000001647  0.179646378 -0.000023025
    -3.557366795  0.001186081  9.508333498    -0.000619550 -0.000014028  0.104939109
     9.750762090  0.000096759  0.057567557     0.102330056 -0.000006003  0.038284895

  length of vectors
     5.566491442 10.152007971  9.750932026     0.179646380  0.104940939  0.109257373


 FORCES acting on ions
    electron-ion (+dipol)            ewald-force                    non-local-force                 convergence-correction
 -----------------------------------------------------------------------------------------------
   0.821E+01 0.188E+01 0.326E+01   -.878E+01 -.194E+01 -.318E+01   0.543E+00 0.677E-01 -.791E-01   0.128E-01 -.380E-02 0.232E-02
   -.557E+01 0.859E-01 0.414E+01   0.704E+01 -.756E-01 -.412E+01   -.143E+01 -.904E-02 -.290E-01   -.852E-02 -.235E-02 -.144E-02
   -.701E+01 0.676E-01 -.125E+01   0.694E+01 -.612E-01 0.124E+01   0.706E-01 -.481E-02 0.934E-02   -.195E-02 -.228E-02 -.160E-02
   0.810E+01 -.191E+01 0.329E+01   -.869E+01 0.196E+01 -.320E+01   0.567E+00 -.641E-01 -.820E-01   0.115E-01 0.383E-02 0.301E-03
   -.243E+01 0.248E+02 -.762E+01   0.232E+01 -.251E+02 0.741E+01   0.143E+00 0.349E+00 0.212E+00   -.291E-01 0.438E-02 -.881E-02
   -.335E+02 -.144E-01 -.455E+02   0.341E+02 0.200E-01 0.464E+02   -.501E+00 0.904E-03 -.844E+00   -.367E-01 -.310E-02 -.267E-01
   -.353E+01 0.854E-02 0.130E+03   0.417E+01 -.759E-02 -.133E+03   -.689E+00 -.172E-02 0.198E+01   0.415E-01 -.962E-03 0.418E-01
   -.189E+02 0.169E-02 0.852E+02   0.197E+02 -.231E-02 -.872E+02   -.746E+00 0.138E-02 0.187E+01   0.342E-01 0.744E-03 0.433E-01
   -.140E+02 -.453E-02 0.145E+02   0.143E+02 -.629E-03 -.141E+02   -.240E+00 0.104E-02 -.318E+00   -.322E-01 0.273E-02 -.282E-01
   -.251E+01 -.248E+02 -.726E+01   0.241E+01 0.252E+02 0.705E+01   0.143E+00 -.351E+00 0.219E+00   -.298E-01 -.426E-02 -.931E-02
   0.384E+02 -.307E+01 0.545E+02   -.392E+02 0.301E+01 -.559E+02   0.741E+00 0.645E-01 0.137E+01   0.407E-01 -.511E-02 0.243E-01
   0.384E+02 0.307E+01 0.548E+02   -.392E+02 -.302E+01 -.562E+02   0.743E+00 -.654E-01 0.138E+01   0.413E-01 0.561E-02 0.240E-01
   0.315E+01 -.354E+01 0.921E+01   -.303E+01 0.355E+01 -.898E+01   -.129E+00 0.374E-01 -.230E+00   0.768E-02 -.323E-01 0.378E-02
   0.641E+02 -.537E-01 -.380E+02   -.657E+02 0.670E-01 0.393E+02   0.157E+01 0.211E-02 -.127E+01   0.492E-01 -.115E-01 0.754E-03
   -.218E+02 -.272E-01 -.889E+02   0.220E+02 0.401E-01 0.899E+02   -.224E+00 0.724E-03 -.918E+00   -.487E-01 -.105E-01 -.844E-02
   -.375E+01 0.153E-01 -.127E+02   0.368E+01 -.284E-01 0.127E+02   0.119E+00 0.475E-03 -.229E-01   -.462E-01 0.104E-01 -.122E-01
   0.437E+02 0.677E-01 -.101E+03   -.449E+02 -.818E-01 0.102E+03   0.116E+01 0.411E-03 -.174E+01   0.528E-01 0.112E-01 0.376E-03
   0.320E+01 0.358E+01 0.903E+01   -.308E+01 -.358E+01 -.880E+01   -.129E+00 -.367E-01 -.231E+00   0.651E-02 0.327E-01 0.380E-02
   -.449E+02 0.236E+02 -.303E+02   0.459E+02 -.239E+02 0.312E+02   -.916E+00 0.347E+00 -.792E+00   -.268E-01 -.322E-01 -.267E-01
   -.449E+02 -.236E+02 -.303E+02   0.458E+02 0.239E+02 0.311E+02   -.913E+00 -.348E+00 -.788E+00   -.273E-01 0.324E-01 -.269E-01
   0.786E+02 0.182E+01 0.348E+03   -.836E+02 -.226E+01 -.368E+03   0.501E+01 0.491E+00 0.199E+02   0.301E-01 -.547E-01 -.957E-05
   -.455E+01 0.250E+01 -.396E+03   0.498E+01 -.328E+01 0.424E+03   -.422E+00 0.774E+00 -.276E+02   -.850E-02 0.547E-02 0.958E-02
   -.154E+01 0.333E+01 -.383E+03   0.271E+01 -.387E+01 0.409E+03   -.116E+01 0.565E+00 -.256E+02   -.204E-01 -.227E-01 0.461E-02
   0.214E+02 0.124E+01 0.414E+03   -.226E+02 -.174E+01 -.442E+03   0.118E+01 0.473E+00 0.273E+02   0.436E-01 0.187E-01 0.183E-01
   -.472E+01 -.772E-01 0.321E+03   0.474E+01 0.999E-01 -.337E+03   -.724E-01 -.879E-02 0.162E+02   0.480E-01 -.143E-01 0.194E-02
   -.637E+02 0.838E-01 -.380E+03   0.681E+02 -.732E-01 0.401E+03   -.436E+01 0.431E-02 -.212E+02   -.282E-01 -.154E-01 -.285E-01
   -.399E+02 0.636E-01 -.395E+03   0.420E+02 -.872E-01 0.421E+03   -.206E+01 0.935E-02 -.256E+02   -.494E-01 0.154E-01 -.228E-01
   -.210E+02 0.879E-01 0.327E+03   0.220E+02 -.117E+00 -.346E+03   -.102E+01 0.158E-01 0.185E+02   0.102E-02 0.143E-01 0.318E-01
   -.553E+02 0.176E+00 -.363E+03   0.592E+02 -.181E+00 0.384E+03   -.385E+01 0.133E-01 -.202E+02   -.307E-01 -.872E-02 0.877E-03
   0.393E+02 0.377E-01 0.370E+03   -.425E+02 -.331E-01 -.391E+03   0.326E+01 0.344E-02 0.212E+02   -.270E-01 -.895E-02 0.178E-01
   0.128E+02 -.133E+00 0.388E+03   -.134E+02 0.134E+00 -.414E+03   0.637E+00 -.941E-02 0.259E+02   -.296E-02 0.922E-02 0.382E-02
   -.312E+02 -.279E-01 -.391E+03   0.327E+02 0.165E-01 0.417E+03   -.144E+01 0.278E-02 -.265E+02   -.646E-02 0.889E-02 -.835E-02
   0.786E+02 -.195E+01 0.348E+03   -.836E+02 0.240E+01 -.367E+03   0.502E+01 -.504E+00 0.198E+02   0.306E-01 0.547E-01 -.347E-02
   -.447E+01 -.240E+01 -.396E+03   0.488E+01 0.317E+01 0.424E+03   -.409E+00 -.768E+00 -.276E+02   -.925E-02 -.542E-02 0.132E-01
   -.152E+01 -.322E+01 -.383E+03   0.268E+01 0.376E+01 0.409E+03   -.115E+01 -.558E+00 -.256E+02   -.142E-01 0.222E-01 0.172E-02
   0.214E+02 -.138E+01 0.414E+03   -.227E+02 0.189E+01 -.442E+03   0.118E+01 -.485E+00 0.273E+02   0.377E-01 -.184E-01 0.209E-01
   -.305E+02 0.323E+02 0.339E+03   0.311E+02 -.347E+02 -.359E+03   -.565E+00 0.238E+01 0.202E+02   -.523E-01 0.532E-02 -.274E-02
   0.100E+02 0.304E+02 -.381E+03   -.104E+02 -.324E+02 0.404E+03   0.323E+00 0.208E+01 -.229E+02   0.356E-01 -.533E-01 -.108E-01
   -.322E+02 0.222E+02 -.327E+03   0.339E+02 -.233E+02 0.346E+03   -.174E+01 0.109E+01 -.185E+02   -.990E-02 0.186E-01 -.145E-01
   -.286E+02 0.297E+02 0.359E+03   0.301E+02 -.317E+02 -.382E+03   -.152E+01 0.195E+01 0.228E+02   -.187E-01 -.214E-01 -.226E-02
   -.525E+01 -.309E-01 0.383E+03   0.517E+01 0.402E-01 -.410E+03   0.868E-01 -.455E-02 0.267E+02   -.128E-01 -.471E-02 -.145E-01
   0.167E+02 0.438E-01 -.381E+03   -.165E+02 -.408E-01 0.407E+03   -.158E+00 0.186E-02 -.258E+02   -.748E-02 -.477E-02 0.323E-01
   0.114E+02 0.430E-01 -.385E+03   -.116E+02 -.517E-01 0.411E+03   0.204E+00 0.392E-02 -.259E+02   0.467E-01 0.480E-02 0.177E-02
   0.126E+01 -.790E-01 0.390E+03   -.112E+01 0.774E-01 -.417E+03   -.148E+00 -.269E-02 0.270E+02   0.701E-02 0.486E-02 -.169E-01
   0.435E+02 0.860E-01 -.312E+03   -.449E+02 -.101E+00 0.329E+03   0.136E+01 0.121E-01 -.173E+02   0.573E-01 0.390E-02 0.202E-02
   0.894E+01 -.595E-01 0.392E+03   -.104E+02 0.578E-01 -.418E+03   0.145E+01 -.198E-02 0.261E+02   -.277E-02 0.450E-02 -.194E-01
   0.173E+02 -.611E-01 0.397E+03   -.188E+02 0.712E-01 -.423E+03   0.155E+01 -.603E-02 0.264E+02   -.268E-01 -.425E-02 -.916E-02
   0.405E+02 -.252E-01 -.313E+03   -.423E+02 0.373E-01 0.330E+03   0.174E+01 -.825E-02 -.170E+02   0.347E-01 -.390E-02 0.167E-01
   -.305E+02 -.325E+02 0.339E+03   0.311E+02 0.349E+02 -.359E+03   -.567E+00 -.239E+01 0.202E+02   -.392E-01 -.619E-02 -.101E-01
   0.101E+02 -.303E+02 -.381E+03   -.105E+02 0.323E+02 0.404E+03   0.331E+00 -.207E+01 -.229E+02   0.232E-01 0.523E-01 -.346E-02
   -.319E+02 -.221E+02 -.327E+03   0.336E+02 0.232E+02 0.346E+03   -.170E+01 -.109E+01 -.185E+02   -.186E-01 -.191E-01 -.117E-01
   -.287E+02 -.298E+02 0.359E+03   0.302E+02 0.318E+02 -.382E+03   -.154E+01 -.196E+01 0.228E+02   -.974E-02 0.209E-01 -.488E-02
 -----------------------------------------------------------------------------------------------
   0.639E+00 0.255E-01 0.106E+01   0.185E-12 -.888E-13 -.568E-13   -.662E+00 -.135E-01 -.106E+01   0.114E-01 -.664E-02 -.118E-01
 
 
 POSITION                                       TOTAL-FORCE (eV/Angst)
 -----------------------------------------------------------------------------------
      6.26147      5.55149      2.41677        -0.017775      0.002592      0.006852
     -0.54053      1.39747      2.39887         0.035895     -0.001202     -0.003417
     -2.66293      1.39547      7.14841         0.001217     -0.000786     -0.005599
      6.25439      2.80023      2.41663        -0.016326     -0.002706      0.007114
      0.01358      5.55743      0.00570         0.007344     -0.006007     -0.004335
      2.43919      1.39262      0.04555         0.014299      0.003309     -0.002231
      3.74735      1.39391      9.47461        -0.007589     -0.001843     -0.004237
      3.75649      4.17707      9.50753        -0.003922      0.001393     -0.003172
     -1.12473      4.17718      9.50809         0.010244     -0.001487     -0.002163
      0.01364      2.79445      0.00500         0.008725      0.006010     -0.003962
      1.32569      5.56607      9.51932        -0.007478      0.002740     -0.007707
      1.32572      2.78808      9.51873        -0.008755     -0.003939     -0.007676
      3.07868      5.56660      4.78657        -0.002849      0.010480      0.003173
      5.53063      1.39422      4.82235         0.000166      0.003884      0.000077
      0.67760      1.39432      4.82304        -0.002686      0.003003      0.004438
      0.67161      4.17772      4.76481        -0.003107     -0.002325      0.003070
      5.53425      4.17767      4.86898        -0.009571     -0.002485      0.000844
      3.07856      2.78852      4.78632        -0.002451     -0.011021      0.003587
      7.95626      5.56299      4.79922         0.007874      0.017409      0.010054
      7.95618      2.79245      4.79884         0.007955     -0.015881      0.009847
      4.80685      5.55295      3.87412        -0.008671     -0.003901     -0.000507
      1.44016      5.54828      5.72804        -0.001547     -0.000408      0.000416
      3.20943      5.54998      0.94458        -0.003143      0.000168     -0.010876
      2.98695      5.55650      8.55653         0.008189     -0.000837      0.024335
      7.20079      1.39465      3.79110        -0.010644     -0.000441     -0.001271
     -1.07306      1.39428      5.71174        -0.008602     -0.000687     -0.015598
     -1.03013      4.17759      5.67346        -0.007468      0.001126     -0.012156
      7.17120      4.17780      3.83406        -0.012092      0.001031     -0.007862
      0.75437      1.39261      0.97247         0.010033     -0.000283     -0.012776
      5.48192      1.39410      8.60464        -0.009437     -0.000988      0.003861
      5.44792      4.17737      8.63005        -0.007558      0.000654      0.007681
      0.76889      4.17568      0.94900         0.007257      0.000156     -0.013433
      4.80626      2.80245      3.87399        -0.007893      0.003866      0.000694
      1.44026      2.80673      5.72790        -0.001754      0.000208     -0.000431
      3.20950      2.80166      0.94416        -0.003694     -0.000202     -0.012118
      2.98703      2.79787      8.55615         0.007928      0.000069      0.023475
     -0.10062      0.03317      3.84421        -0.004959      0.000765      0.001030
      6.31091      0.03091      5.78345         0.000674     -0.003099     -0.009212
      8.04132      0.02724      0.97497         0.015361     -0.001171      0.008857
     -1.89693      0.02825      8.58024        -0.001957     -0.000630     -0.011253
      2.30507      1.39445      3.85732        -0.005744     -0.000103      0.004205
      3.85080      1.39406      5.71298        -0.006739      0.000006     -0.003122
      3.84164      4.17746      5.72445         0.003274     -0.000042     -0.002194
      2.31726      4.17763      3.84655        -0.004141      0.000419     -0.001143
      5.67396      1.39251      0.97508         0.007172      0.000437      0.011829
      0.53825      1.39385      8.60898         0.010817      0.000762      0.008544
      0.55964      4.17725      8.59464         0.009964     -0.000269      0.008279
      5.67484      4.17575      0.98282         0.004647     -0.000223      0.016695
     -0.10046      2.75603      3.84475        -0.003051     -0.000860      0.001540
      6.31080      2.75759      5.78387        -0.001160      0.002661     -0.009946
      8.04174      2.75786      0.97525         0.014864      0.000680      0.009044
     -1.89667      2.75982      8.58047        -0.001136     -0.000003     -0.011144
 -----------------------------------------------------------------------------------
    total drift:                               -0.011374      0.005394     -0.012483


--------------------------------------------------------------------------------------------------------



  FREE ENERGIE OF THE ION-ELECTRON SYSTEM (eV)
  ---------------------------------------------------
  free  energy   TOTEN  =      -324.2230031092 eV

  energy  without entropy=     -324.2230008107  energy(sigma->0) =     -324.22300196
 
 d Force = 0.1851973E-03[ 0.943E-04, 0.276E-03]  d Energy = 0.1909448E-03-0.575E-05
 d Force = 0.1839227E+00[ 0.183E+00, 0.185E+00]  d Ewald  =-0.5379314E-01 0.238E+00


--------------------------------------------------------------------------------------------------------


    POTLOK:  cpu time    0.1648: real time    0.1652


--------------------------------------------------------------------------------------------------------


 Quasi-Newton relaxation of ions (Broydens 2nd method)
  g(Force)  = 0.468E-03   g(Stress)= 0.763E-04

 retain information from N=  2 steps
 eigenvalues of (default step * inverse Hessian matrix)
  average eigenvalue of G=   4.0124
 eigenvalue spectrum of G is  0.1831  7.8416


--------------------------------------------------------------------------------------------------------


     LOOP+:  cpu time   12.4513: real time   12.5359
    4ORBIT:  cpu time    0.0000: real time    0.0000

volume of typ            1:     6.0 %

volume of typ            2:    19.7 %

volume of typ            3:    10.1 %
 
total charge     
 
# of ion       s       p       d       tot
------------------------------------------
    1        2.072   0.221   0.083   2.376
    2        2.075   0.231   0.089   2.396
    3        2.069   0.213   0.082   2.364
    4        2.072   0.221   0.083   2.377
    5        0.296   0.418   7.844   8.559
    6        0.296   0.418   7.837   8.551
    7        0.293   0.413   7.843   8.549
    8        0.293   0.409   7.840   8.542
    9        0.293   0.408   7.830   8.531
   10        0.296   0.418   7.845   8.559
   11        0.292   0.405   7.840   8.537
   12        0.292   0.405   7.840   8.537
   13        0.295   0.415   7.832   8.543
   14        0.296   0.416   7.854   8.567
   15        0.295   0.414   7.842   8.550
   16        0.294   0.410   7.830   8.534
   17        0.292   0.409   7.841   8.542
   18        0.295   0.416   7.832   8.543
   19        0.291   0.406   7.846   8.544
   20        0.291   0.406   7.847   8.545
   21        1.273   2.761   0.007   4.041
   22        1.286   2.720   0.009   4.014
   23        1.285   2.725   0.008   4.019
   24        1.285   2.720   0.008   4.014
   25        1.260   2.788   0.006   4.054
   26        1.277   2.746   0.007   4.030
   27        1.286   2.723   0.008   4.017
   28        1.263   2.783   0.007   4.052
   29        1.269   2.774   0.007   4.050
   30        1.275   2.753   0.007   4.036
   31        1.284   2.729   0.008   4.022
   32        1.283   2.731   0.008   4.022
   33        1.273   2.762   0.007   4.042
   34        1.286   2.720   0.009   4.014
   35        1.285   2.725   0.008   4.019
   36        1.285   2.720   0.008   4.014
   37        1.271   2.766   0.007   4.045
   38        1.273   2.758   0.008   4.038
   39        1.269   2.767   0.007   4.043
   40        1.273   2.757   0.008   4.038
   41        1.284   2.728   0.008   4.020
   42        1.286   2.724   0.008   4.018
   43        1.286   2.724   0.008   4.019
   44        1.284   2.728   0.009   4.021
   45        1.261   2.790   0.007   4.057
   46        1.287   2.718   0.008   4.013
   47        1.287   2.718   0.008   4.014
   48        1.260   2.795   0.007   4.061
   49        1.271   2.766   0.007   4.045
   50        1.273   2.758   0.008   4.038
   51        1.269   2.767   0.007   4.044
   52        1.273   2.758   0.008   4.038
--------------------------------------------------
tot          53.86   95.37  126.03  275.26
 
magnetization (x)
 
# of ion       s       p       d       tot
------------------------------------------
    1        0.000   0.000  -0.000   0.000
    2        0.000  -0.000  -0.000   0.000
    3       -0.000  -0.000  -0.000  -0.000
    4        0.000   0.000  -0.000   0.000
    5        0.000  -0.000   0.000   0.000
    6       -0.000   0.000  -0.000  -0.000
    7       -0.000   0.000  -0.000  -0.000
    8       -0.000   0.000  -0.000  -0.000
    9       -0.000   0.000  -0.000  -0.000
   10        0.000  -0.000   0.000   0.000
   11        0.000  -0.000   0.000   0.000
   12        0.000  -0.000   0.000   0.000
   13       -0.000   0.000  -0.000  -0.000
   14        0.000  -0.000   0.000   0.000
   15        0.000  -0.000   0.000   0.000
   16        0.000  -0.000   0.000   0.000
   17        0.000  -0.000   0.000   0.000
   18       -0.000   0.000  -0.000  -0.000
   19       -0.000   0.000  -0.000  -0.000
   20       -0.000   0.000  -0.000  -0.000
   21        0.000   0.000  -0.000   0.000
   22        0.000  -0.000  -0.000  -0.000
   23       -0.000   0.000   0.000   0.000
   24       -0.000  -0.000   0.000  -0.000
   25        0.000   0.000   0.000   0.000
   26       -0.000  -0.000   0.000  -0.000
   27        0.000   0.000   0.000   0.000
   28       -0.000   0.000   0.000   0.000
   29        0.000   0.000  -0.000   0.000
   30       -0.000  -0.000  -0.000  -0.000
   31        0.000   0.000  -0.000   0.000
   32       -0.000  -0.000  -0.000  -0.000
   33        0.000   0.000  -0.000   0.000
   34        0.000  -0.000  -0.000  -0.000
   35       -0.000   0.000   0.000   0.000
   36       -0.000  -0.000   0.000  -0.000
   37       -0.000  -0.000  -0.000  -0.000
   38        0.000  -0.000  -0.000  -0.000
   39       -0.000   0.000   0.000   0.000
   40       -0.000   0.000   0.000   0.000
   41        0.000   0.000   0.000   0.000
   42        0.000   0.000   0.000   0.000
   43       -0.000  -0.000   0.000  -0.000
   44        0.000   0.000   0.000   0.000
   45       -0.000  -0.000  -0.000  -0.000
   46        0.000   0.000  -0.000   0.000
   47       -0.000  -0.000  -0.000  -0.000
   48        0.000  -0.000  -0.000   0.000
   49       -0.000  -0.000  -0.000  -0.000
   50        0.000  -0.000  -0.000  -0.000
   51       -0.000   0.000   0.000   0.000
   52       -0.000   0.000   0.000   0.000
--------------------------------------------------
tot          -0.00   -0.00   -0.00   -0.00
 

 total amount of memory used by VASP MPI-rank0    92994. kBytes
=======================================================================

   base      :      30000. kBytes
   nonlr-proj:      21591. kBytes
   fftplans  :       5544. kBytes
   grid      :      31764. kBytes
   one-center:        808. kBytes
   wavefun   :       3287. kBytes
 
  
  
 General timing and accounting informations for this job:
 ========================================================
  
                  Total CPU time used (sec):      428.296
                            User time (sec):      424.098
                          System time (sec):        4.197
                         Elapsed time (sec):      435.021
  
                   Maximum memory used (kb):      136148.
                   Average memory used (kb):           0.
  
                          Minor page faults:        34985
                          Major page faults:           45
                 Voluntary context switches:         1324
