 vasp.5.4.4.18Apr17-6-g9f103f2a35 (build May 12 2020 05:39:39) gamma-only       
  
 MD_VERSION_INFO: Compiled 2020-05-12T12:39:39-UTC in devlin.sd.materialsdesign.
 com:/home/medea2/data/build/wwolf/vasp-gpu5.4.4/13047/x86_64/src/src/build/gam 
 from svn 13047
 
 This VASP executable licensed from Materials Design, Inc.
 
 executed on                        Lin64 date 2023.03.07  01:44:52
 running on   16 total cores
 distrk:  each k-point on   16 cores,    1 groups
 distr:  one band on NCORES_PER_BAND=   1 cores,   16 groups


--------------------------------------------------------------------------------------------------------


 INCAR:
 POTCAR:    PAW_PBE Li_sv 10Sep2004               
 POTCAR:    PAW_PBE Ni 02Aug2007                  
 POTCAR:    PAW_PBE O 08Apr2002                   

 ----------------------------------------------------------------------------- 
|                                                                             |
|           W    W    AA    RRRRR   N    N  II  N    N   GGGG   !!!           |
|           W    W   A  A   R    R  NN   N  II  NN   N  G    G  !!!           |
|           W    W  A    A  R    R  N N  N  II  N N  N  G       !!!           |
|           W WW W  AAAAAA  RRRRR   N  N N  II  N  N N  G  GGG   !            |
|           WW  WW  A    A  R   R   N   NN  II  N   NN  G    G                |
|           W    W  A    A  R    R  N    N  II  N    N   GGGG   !!!           |
|                                                                             |
|      For optimal performance we recommend to set                            |
|        NCORE= 4 - approx SQRT( number of cores)                             |
|      NCORE specifies how many cores store one orbital (NPAR=cpu/NCORE).     |
|      This setting can  greatly improve the performance of VASP for DFT.     |
|      The default,   NCORE=1            might be grossly inefficient         |
|      on modern multi-core architectures or massively parallel machines.     |
|      Do your own testing !!!!                                               |
|      Unfortunately you need to use the default for GW and RPA calculations. |
|      (for HF NCORE is supported but not extensively tested yet)             |
|                                                                             |
 ----------------------------------------------------------------------------- 

 POTCAR:    PAW_PBE Li_sv 10Sep2004               
  local pseudopotential read in
  atomic valenz-charges read in
  non local Contribution for L=           0  read in
    real space projection operators read in
  non local Contribution for L=           0  read in
    real space projection operators read in
  non local Contribution for L=           1  read in
    real space projection operators read in
    PAW grid and wavefunctions read in
 
   number of l-projection  operators is LMAX  =           3
   number of lm-projection operators is LMMAX =           5
 
 POTCAR:    PAW_PBE Ni 02Aug2007                  
  local pseudopotential read in
  partial core-charges read in
  partial kinetic energy density read in
  atomic valenz-charges read in
  non local Contribution for L=           2  read in
    real space projection operators read in
  non local Contribution for L=           2  read in
    real space projection operators read in
  non local Contribution for L=           0  read in
    real space projection operators read in
  non local Contribution for L=           0  read in
    real space projection operators read in
  non local Contribution for L=           1  read in
    real space projection operators read in
  non local Contribution for L=           1  read in
    real space projection operators read in
    PAW grid and wavefunctions read in
 
   number of l-projection  operators is LMAX  =           6
   number of lm-projection operators is LMMAX =          18
 
 POTCAR:    PAW_PBE O 08Apr2002                   
  local pseudopotential read in
  partial core-charges read in
  partial kinetic energy density read in
  kinetic energy density of atom read in
  atomic valenz-charges read in
  non local Contribution for L=           0  read in
    real space projection operators read in
  non local Contribution for L=           0  read in
    real space projection operators read in
  non local Contribution for L=           1  read in
    real space projection operators read in
  non local Contribution for L=           1  read in
    real space projection operators read in
    PAW grid and wavefunctions read in
 
   number of l-projection  operators is LMAX  =           4
   number of lm-projection operators is LMMAX =           8
 
 Optimization of the real space projectors (new method)

 maximal supplied QI-value         = 22.11
 optimisation between [QCUT,QGAM] = [ 11.28, 22.77] = [ 35.61,145.23] Ry 
 Optimized for a Real-space Cutoff    1.10 Angstroem

   l    n(q)    QCUT    max X(q) W(low)/X(q) W(high)/X(q)  e(spline) 
   0      7    11.276    10.506    0.54E-04    0.58E-04    0.16E-07
   0      7    11.276     8.367    0.11E-03    0.14E-03    0.35E-07
   1      7    11.276     8.983    0.23E-03    0.43E-03    0.86E-07
 Optimization of the real space projectors (new method)

 maximal supplied QI-value         = 16.25
 optimisation between [QCUT,QGAM] = [ 11.38, 22.75] = [ 36.24,144.96] Ry 
 Optimized for a Real-space Cutoff    1.47 Angstroem

   l    n(q)    QCUT    max X(q) W(low)/X(q) W(high)/X(q)  e(spline) 
   2      9    11.376    60.317    0.17E-03    0.16E-04    0.16E-06
   2      9    11.376    55.921    0.17E-03    0.16E-04    0.17E-06
   0     10    11.376    51.690    0.45E-04    0.60E-04    0.21E-06
   0     10    11.376    30.015    0.37E-04    0.55E-04    0.19E-06
   1     10    11.376    18.849    0.83E-04    0.11E-03    0.92E-07
   1     10    11.376    14.624    0.69E-04    0.92E-04    0.82E-07
 Optimization of the real space projectors (new method)

 maximal supplied QI-value         = 24.76
 optimisation between [QCUT,QGAM] = [ 11.39, 22.77] = [ 36.31,145.25] Ry 
 Optimized for a Real-space Cutoff    1.10 Angstroem

   l    n(q)    QCUT    max X(q) W(low)/X(q) W(high)/X(q)  e(spline) 
   0      7    11.387    20.381    0.22E-03    0.48E-03    0.18E-06
   0      7    11.387    15.268    0.22E-03    0.52E-03    0.19E-06
   1      7    11.387     5.964    0.22E-03    0.73E-03    0.24E-06
   1      7    11.387     5.382    0.19E-03    0.60E-03    0.21E-06

 ----------------------------------------------------------------------------- 
|                                                                             |
|  ADVICE TO THIS USER RUNNING 'VASP/VAMP'   (HEAR YOUR MASTER'S VOICE ...):  |
|                                                                             |
|      You enforced a specific xc-type in the INCAR file,                     |
|      a different type was found on the POTCAR file                          |
|          I HOPE YOU KNOW, WHAT YOU ARE  DOING                               |
|                                                                             |
 ----------------------------------------------------------------------------- 

  PAW_PBE Li_sv 10Sep2004               :
 energy of atom  1       EATOM= -202.7858
 kinetic energy error for atom=    0.0143 (will be added to EATOM!!)
  PAW_PBE Ni 02Aug2007                  :
 energy of atom  2       EATOM=-1077.6739
 kinetic energy error for atom=    0.0030 (will be added to EATOM!!)
  PAW_PBE O 08Apr2002                   :
 energy of atom  3       EATOM= -432.3788
 kinetic energy error for atom=    0.0224 (will be added to EATOM!!)
 
 
 POSCAR: ce74_1                                  
  positions in direct lattice
  No initial velocities read in
 exchange correlation table for  LEXCH =       14
   RHO(1)=    0.500       N(1)  =     2000
   RHO(2)=  100.500       N(2)  =     4000
 


--------------------------------------------------------------------------------------------------------


 ion  position               nearest neighbor table
   1  0.997  0.252  0.240-  43 2.07  38 2.09  35 2.10  50 2.14  47 2.16  29 2.20  11 2.82
   2  0.997  0.748  0.760-  44 2.07  37 2.09  36 2.10  49 2.14  48 2.16  30 2.20  11 2.82
   3  0.250  0.249  0.530-  51 1.99  27 2.05  39 2.06  29 2.24  41 2.25  20 2.68  17 2.83  18 2.83

   4  0.250  0.751  0.470-  52 1.99  28 2.05  40 2.06  30 2.24  42 2.25  21 2.68  17 2.83  18 2.83

   5  0.750  0.752  0.467-  53 1.97  28 2.04  40 2.04  30 2.23  42 2.23  22 2.72  17 2.81  18 2.81

   6  0.750  0.248  0.533-  54 1.97  27 2.04  39 2.04  29 2.23  41 2.23  23 2.72  17 2.81  18 2.81

   7  0.504  0.252  0.241-  38 2.09  55 2.10  35 2.11  50 2.13  47 2.17  41 2.19  16 2.82
   8  0.504  0.748  0.759-  37 2.09  56 2.10  36 2.11  49 2.13  48 2.17  42 2.19  16 2.82
   9  0.251  0.248  0.961-  31 1.92  57 2.05  45 2.06  13 2.72  26 2.84  25 2.84
  10  0.251  0.752  0.039-  32 1.92  58 2.05  46 2.06  12 2.72  26 2.84  25 2.84
  11  1.000  0.000  0.000-  37 1.87  38 1.87  35 1.88  36 1.88  45 1.92  46 1.92  16 2.78  16 2.79
                             2 2.82   1 2.82  15 2.85  14 2.85  13 2.86  12 2.86
  12  0.250  0.007  0.254-  58 1.84  46 1.85  41 1.87  29 1.87  52 2.00  35 2.06  10 2.72  15 2.78
                            15 2.79  18 2.84  17 2.84  16 2.85  11 2.86
  13  0.250  0.993  0.746-  57 1.84  45 1.85  42 1.87  30 1.87  51 2.00  36 2.06   9 2.72  14 2.78
                            14 2.79  18 2.84  17 2.84  16 2.85  11 2.86
  14  0.750  0.999  0.749-  57 1.86  45 1.86  42 1.87  30 1.88  54 1.96  37 1.98  13 2.78  13 2.79
                            18 2.84  17 2.84  11 2.85  16 2.85
  15  0.750  0.001  0.251-  58 1.86  46 1.86  41 1.87  29 1.88  53 1.96  38 1.98  12 2.78  12 2.79
                            18 2.84  17 2.84  11 2.85  16 2.85
  16  0.500  0.000  0.000-  37 1.88  38 1.88  35 1.88  36 1.88  57 1.93  58 1.93  11 2.78  11 2.79
                             7 2.82   8 2.82  15 2.85  14 2.85  13 2.85  12 2.85
  17  1.000  0.000  0.500-  51 1.84  52 1.84  53 1.84  54 1.84  29 2.06  30 2.06  18 2.78  18 2.79
                             6 2.81   5 2.81   4 2.83   3 2.83  13 2.84  12 2.84  15 2.84  14 2.84
  18  0.501  0.000  0.500-  53 1.84  54 1.84  51 1.85  52 1.85  41 2.06  42 2.06  17 2.78  17 2.79
                             5 2.81   6 2.81   3 2.83   4 2.83  12 2.84  13 2.84  14 2.84  15 2.84
  19  1.000  0.500  0.500-  47 1.88  48 1.88  49 1.88  50 1.88  27 1.97  28 1.97  24 2.78  24 2.79
                            21 2.85  20 2.85  23 2.86  22 2.86
  20  0.250  0.496  0.749-  44 1.85  56 1.85  39 1.86  27 1.86  31 1.98  48 2.06   3 2.68  23 2.78
                            23 2.79  25 2.85  26 2.85  24 2.85  19 2.85
  21  0.250  0.504  0.251-  43 1.85  55 1.85  40 1.86  28 1.86  32 1.98  47 2.06   4 2.68  22 2.78
                            22 2.79  25 2.85  26 2.85  24 2.85  19 2.85
  22  0.750  0.500  0.248-  43 1.86  55 1.86  28 1.87  40 1.87  33 1.93  50 2.02   5 2.72  21 2.78
                            21 2.79  25 2.82  26 2.82  19 2.86  24 2.87
  23  0.750  0.500  0.752-  44 1.86  56 1.86  27 1.87  39 1.87  34 1.93  49 2.02   6 2.72  20 2.78
                            20 2.79  25 2.82  26 2.82  19 2.86  24 2.87
  24  0.500  0.500  0.500-  47 1.88  48 1.88  49 1.88  50 1.88  39 1.96  40 1.96  19 2.78  19 2.79
                            21 2.85  20 2.85  23 2.87  22 2.87
  25  0.998  0.500  0.000-  33 1.83  34 1.83  31 1.85  32 1.85  43 2.03  44 2.03  26 2.76  26 2.81
                            23 2.82  22 2.82  10 2.84   9 2.84  21 2.85  20 2.85
  26  0.503  0.500  0.000-  33 1.84  34 1.84  31 1.85  32 1.85  55 2.00  56 2.00  25 2.76  25 2.81
                            22 2.82  23 2.82   9 2.84  10 2.84  20 2.85  21 2.85
  27  0.998  0.398  0.634-  20 1.86  23 1.87  19 1.97   6 2.04   3 2.05
  28  0.998  0.602  0.366-  21 1.86  22 1.87  19 1.97   5 2.04   4 2.05
  29  0.997  0.112  0.364-  12 1.87  15 1.88  17 2.06   1 2.20   6 2.23   3 2.24
  30  0.997  0.888  0.636-  13 1.87  14 1.88  17 2.06   2 2.20   5 2.23   4 2.24
  31  0.250  0.399  0.890-  25 1.85  26 1.85   9 1.92  20 1.98
  32  0.250  0.601  0.110-  25 1.85  26 1.85  10 1.92  21 1.98
  33  0.751  0.598  0.113-  25 1.83  26 1.84  22 1.93
  34  0.751  0.402  0.887-  25 1.83  26 1.84  23 1.93
  35  0.250  0.111  0.110-  11 1.88  16 1.88  12 2.06   1 2.10   7 2.11
  36  0.250  0.889  0.890-  11 1.88  16 1.88  13 2.06   2 2.10   8 2.11
  37  0.751  0.896  0.885-  11 1.87  16 1.88  14 1.98   2 2.09   8 2.09
  38  0.751  0.104  0.115-  11 1.87  16 1.88  15 1.98   1 2.09   7 2.09
  39  0.502  0.398  0.634-  20 1.86  23 1.87  24 1.96   6 2.04   3 2.06
  40  0.502  0.602  0.366-  21 1.86  22 1.87  24 1.96   5 2.04   4 2.06
  41  0.504  0.111  0.363-  12 1.87  15 1.87  18 2.06   7 2.19   6 2.23   3 2.25
  42  0.504  0.889  0.637-  13 1.87  14 1.87  18 2.06   8 2.19   5 2.23   4 2.25
  43  0.005  0.397  0.140-  21 1.85  22 1.86  25 2.03   1 2.07
  44  0.005  0.603  0.860-  20 1.85  23 1.86  25 2.03   2 2.07
  45  0.006  0.093  0.863-  13 1.85  14 1.86  11 1.92   9 2.06
  46  0.006  0.907  0.137-  12 1.85  15 1.86  11 1.92  10 2.06
  47  0.250  0.393  0.387-  24 1.88  19 1.88  21 2.06   1 2.16   7 2.17
  48  0.250  0.607  0.613-  24 1.88  19 1.88  20 2.06   2 2.16   8 2.17
  49  0.750  0.606  0.616-  24 1.88  19 1.88  23 2.02   8 2.13   2 2.14
  50  0.750  0.394  0.384-  24 1.88  19 1.88  22 2.02   7 2.13   1 2.14
  51  0.250  0.099  0.612-  17 1.84  18 1.85   3 1.99  13 2.00
  52  0.250  0.901  0.388-  17 1.84  18 1.85   4 1.99  12 2.00
  53  0.750  0.902  0.386-  17 1.84  18 1.84  15 1.96   5 1.97
  54  0.750  0.098  0.614-  17 1.84  18 1.84  14 1.96   6 1.97
  55  0.496  0.398  0.138-  21 1.85  22 1.86  26 2.00   7 2.10
  56  0.496  0.602  0.862-  20 1.85  23 1.86  26 2.00   8 2.10
  57  0.495  0.094  0.862-  13 1.84  14 1.86  16 1.93   9 2.05
  58  0.495  0.906  0.138-  12 1.84  15 1.86  16 1.93  10 2.05
 
  LATTYP: Found a simple monoclinic cell.
 ALAT       =    11.4310079710
 B/A-ratio  =     0.4871588099
 C/A-ratio  =     1.6895636105
 COS(beta)  =    -0.9026861633
  
  Lattice vectors:
  
 A1 = (  -6.2525250435,   0.0000000000,  -9.5694239019)
 A2 = (   0.0000000000,  -5.5687162394,   0.0000000000)
 A3 = (   2.5788640273,   0.0000000000,  19.1404666380)


Analysis of symmetry for initial positions (statically):
=====================================================================
 Subroutine PRICEL returns:
 Original cell was already a primitive cell.
 

 Routine SETGRP: Setting up the symmetry group for a 
 simple monoclinic supercell.


 Subroutine GETGRP returns: Found  2 space group operations
 (whereof  2 operations were pure point group operations)
 out of a pool of  4 trial point group operations.


The static configuration has the point symmetry C_2 .


Analysis of symmetry for dynamics (positions and initial velocities):
=====================================================================
 Subroutine PRICEL returns:
 Original cell was already a primitive cell.
 

 Routine SETGRP: Setting up the symmetry group for a 
 simple monoclinic supercell.


 Subroutine GETGRP returns: Found  2 space group operations
 (whereof  2 operations were pure point group operations)
 out of a pool of  4 trial point group operations.


The dynamic configuration has the point symmetry C_2 .


Analysis of structural, dynamic, and magnetic symmetry:
=====================================================================
 Subroutine PRICEL returns:
 Original cell was already a primitive cell.
 

 Routine SETGRP: Setting up the symmetry group for a 
 simple monoclinic supercell.


 Subroutine GETGRP returns: Found  2 space group operations
 (whereof  2 operations were pure point group operations)
 out of a pool of  4 trial point group operations.


The magnetic configuration has the point symmetry C_2 .


 Subroutine INISYM returns: Found  2 space group operations
 (whereof  2 operations are pure point group operations),
 and found     1 'primitive' translations

 
 
 KPOINTS: Automatic mesh                          

Automatic generation of k-mesh.
Space group operators:
 irot       det(A)        alpha          n_x          n_y          n_z        tau_x        tau_y        tau_z
    1     1.000000     0.000001     1.000000     0.000000     0.000000     0.000000     0.000000     0.000000
    2     1.000000   180.000000     0.000000     1.000000     0.000000     0.000000     0.000000     0.000000
 
 Subroutine IBZKPT returns following result:
 ===========================================
 
 Found      1 irreducible k-points:
 
 Following reciprocal coordinates:
            Coordinates               Weight
  0.000000  0.000000  0.000000      1.000000
 
 Following cartesian coordinates:
            Coordinates               Weight
  0.000000  0.000000  0.000000      1.000000
 


--------------------------------------------------------------------------------------------------------




 Dimension of arrays:
   k-points           NKPTS =      1   k-points in BZ     NKDIM =      1   number of bands    NBANDS=    256
   number of dos      NEDOS =    301   number of ions     NIONS =     58
   non local maximal  LDIM  =      6   non local SUM 2l+1 LMDIM =     18
   total plane-waves  NPLWV = 241920
   max r-space proj   IRMAX =   6189   max aug-charges    IRDMAX=  15021
   dimension x,y,z NGX =    42 NGY =   80 NGZ =   72
   dimension x,y,z NGXF=    84 NGYF=  160 NGZF=  144
   support grid    NGXF=    84 NGYF=  160 NGZF=  144
   ions per type =              10  16  32
   NGX,Y,Z   is equivalent  to a cutoff of  12.54, 12.97, 12.06 a.u.
   NGXF,Y,Z  is equivalent  to a cutoff of  25.08, 25.95, 24.12 a.u.

 SYSTEM =  unknown system                          
 POSCAR =  ce74_1                                  

 Startparameter for this run:
   NWRITE =      1    write-flag & timer
   PREC   = accura    normal or accurate (medium, high low for compatibility)
   ISTART =      0    job   : 0-new  1-cont  2-samecut
   ICHARG =      2    charge: 1-file 2-atom 10-const
   ISPIN  =      2    spin polarized calculation?
   LNONCOLLINEAR =      F non collinear calculations
   LSORBIT =      F    spin-orbit coupling
   INIWAV =      1    electr: 0-lowe 1-rand  2-diag
   LASPH  =      F    aspherical Exc in radial PAW
   METAGGA=      F    non-selfconsistent MetaGGA calc.

 Electronic Relaxation 1
   ENCUT  =  500.0 eV  36.75 Ry    6.06 a.u.  10.15 18.69 18.10*2*pi/ulx,y,z
   ENINI  =  500.0     initial cutoff
   ENAUG  =  628.9 eV  augmentation charge cutoff
   NELM   =     80;   NELMIN=  2; NELMDL= -5     # of ELM steps 
   EDIFF  = 0.1E-04   stopping-criterion for ELM
   LREAL  =      T    real-space projection
   NLSPLINE    = F    spline interpolate recip. space projectors
   LCOMPAT=      F    compatible to vasp.4.4
   GGA_COMPAT  = T    GGA compatible to vasp.4.4-vasp.4.6
   LMAXPAW     = -100 max onsite density
   LMAXMIX     =    2 max onsite mixed and CHGCAR
   VOSKOWN=      1    Vosko Wilk Nusair interpolation
   ROPT   =   -0.00025  -0.00025  -0.00025
 Ionic relaxation
   EDIFFG = -.2E-01   stopping-criterion for IOM
   NSW    =     20    number of steps for IOM
   NBLOCK =      1;   KBLOCK =     20    inner block; outer block 
   IBRION =      1    ionic relax: 0-MD 1-quasi-New 2-CG
   NFREE  =      0    steps in history (QN), initial steepest desc. (CG)
   ISIF   =      3    stress and relaxation
   IWAVPR =     11    prediction:  0-non 1-charg 2-wave 3-comb
   ISYM   =      2    0-nonsym 1-usesym 2-fastsym
   LCORR  =      T    Harris-Foulkes like correction to forces

   POTIM  = 0.5000    time-step for ionic-motion
   TEIN   =    0.0    initial temperature
   TEBEG  =    0.0;   TEEND  =   0.0 temperature during run
   SMASS  =  -3.00    Nose mass-parameter (am)
   estimated Nose-frequenzy (Omega)   =  0.10E-29 period in steps =****** mass=  -0.709E-27a.u.
   SCALEE = 1.0000    scale energy and forces
   NPACO  =    256;   APACO  = 16.0  distance and # of slots for P.C.
   PSTRESS=    0.0 pullay stress

  Mass of Ions in am
   POMASS =   7.01 58.69 16.00
  Ionic Valenz
   ZVAL   =   3.00 10.00  6.00
  Atomic Wigner-Seitz radii
   RWIGS  =   1.23  1.15  0.73
  virtual crystal weights 
   VCA    =   1.00  1.00  1.00
   NELECT =     382.0000    total number of electrons
   NUPDOWN=      -1.0000    fix difference up-down

 DOS related values:
   EMIN   =  10.00;   EMAX   =-10.00  energy-range for DOS
   EFERMI =   0.00
   ISMEAR =     0;   SIGMA  =   0.05  broadening in eV -4-tet -1-fermi 0-gaus

 Electronic relaxation 2 (details)
   IALGO  =     38    algorithm
   LDIAG  =      T    sub-space diagonalisation (order eigenvalues)
   LSUBROT=      F    optimize rotation matrix (better conditioning)
   TURBO    =      0    0=normal 1=particle mesh
   IRESTART =      0    0=no restart 2=restart with 2 vectors
   NREBOOT  =      0    no. of reboots
   NMIN     =      0    reboot dimension
   EREF     =   0.00    reference energy to select bands
   IMIX   =      4    mixing-type and parameters
     AMIX     =   0.40;   BMIX     =  1.00
     AMIX_MAG =   1.60;   BMIX_MAG =  1.00
     AMIN     =   0.10
     WC   =   100.;   INIMIX=   1;  MIXPRE=   1;  MAXMIX= -45

 Intra band minimization:
   WEIMIN = 0.0010     energy-eigenvalue tresh-hold
   EBREAK =  0.98E-08  absolut break condition
   DEPER  =   0.30     relativ break condition  

   TIME   =   0.40     timestep for ELM

  volume/ion in A,a.u.               =       9.12        61.55
  Fermi-wavevector in a.u.,A,eV,Ry     =   1.468721  2.775481 29.349707  2.157143
  Thomas-Fermi vector in A             =   2.584185
 
 Write flags
   LWAVE        =      F    write WAVECAR
   LDOWNSAMPLE  =      F    k-point downsampling of WAVECAR
   LCHARG       =      T    write CHGCAR
   LVTOT        =      F    write LOCPOT, total local potential
   LVHAR        =      F    write LOCPOT, Hartree potential only
   LELF         =      F    write electronic localiz. function (ELF)
   LORBIT       =      0    0 simple, 1 ext, 2 COOP (PROOUT), +10 PAW based schemes


 Dipole corrections
   LMONO  =      F    monopole corrections only (constant potential shift)
   LDIPOL =      F    correct potential (dipole corrections)
   IDIPOL =      0    1-x, 2-y, 3-z, 4-all directions 
   EPSILON=  1.0000000 bulk dielectric constant

 Exchange correlation treatment:
   GGA     =    PS    GGA type
   LEXCH   =    14    internal setting for exchange type
   VOSKOWN=      1    Vosko Wilk Nusair interpolation
   LHFCALC =     F    Hartree Fock is set to
   LHFONE  =     F    Hartree Fock one center treatment
   AEXX    =    0.0000 exact exchange contribution

 Linear response parameters
   LEPSILON=     F    determine dielectric tensor
   LRPA    =     F    only Hartree local field effects (RPA)
   LNABLA  =     F    use nabla operator in PAW spheres
   LVEL    =     F    velocity operator in full k-point grid
   LINTERFAST=   F  fast interpolation
   KINTER  =     0    interpolate to denser k-point grid
   CSHIFT  =0.1000    complex shift for real part using Kramers Kronig
   OMEGAMAX=  -1.0    maximum frequency
   DEG_THRESHOLD= 0.2000000E-02 threshold for treating states as degnerate
   RTIME   =   -0.100 relaxation time in fs
  (WPLASMAI=    0.000 imaginary part of plasma frequency in eV, 0.658/RTIME)
   DFIELD  = 0.0000000 0.0000000 0.0000000 field for delta impulse in time
 
 Orbital magnetization related:
   ORBITALMAG=     F  switch on orbital magnetization
   LCHIMAG   =     F  perturbation theory with respect to B field
   DQ        =  0.001000  dq finite difference perturbation B field
   LLRAUG    =     F  two centre corrections for induced B field



--------------------------------------------------------------------------------------------------------


 quasi-Newton-method for relaxation of ions
 charge density and potential will be updated during run
 spin polarized calculation
 Variant of blocked Davidson
 Davidson routine will perform the subspace rotation
 perform sub-space diagonalisation
    after iterative eigenvector-optimisation
 modified Broyden-mixing scheme, WC =      100.0
 initial mixing is a Kerker type mixing with AMIX =  0.4000 and BMIX =      1.0000
 Hartree-type preconditioning will be used
 using additional bands           65
 real space projection scheme for non local part
 use partial core corrections
 calculate Harris-corrections to forces 
   (improved forces if not selfconsistent)
 use gradient corrections 
 use of overlap-Matrix (Vanderbilt PP)
 Gauss-broadening in eV      SIGMA  =   0.05


--------------------------------------------------------------------------------------------------------


  energy-cutoff  :      500.00
  volume of cell :      529.02
      direct lattice vectors                 reciprocal lattice vectors
     0.000000000  5.568716239  0.000000000     0.000000000  0.179574602  0.000000000
    -3.673661016  0.000000000  9.571042736     0.000017041  0.000000000  0.104488364
     9.926186060  0.000000000 -0.001618834     0.100749935  0.000000000  0.038670928

  length of vectors
     5.568716239 10.251860530  9.926186192     0.179574602  0.104488366  0.107916589


 
 k-points in units of 2pi/SCALE and weight: Automatic mesh                          
   0.00000000  0.00000000  0.00000000       1.000
 
 k-points in reciprocal lattice and weights: Automatic mesh                          
   0.00000000  0.00000000  0.00000000       1.000
 
 position of ions in fractional coordinates (direct lattice) 
   0.99735661  0.25197987  0.24038459
   0.99735661  0.74802013  0.75961541
   0.24962170  0.24886640  0.52967407
   0.24962170  0.75113360  0.47032593
   0.75025764  0.75226448  0.46694860
   0.75025764  0.24773552  0.53305140
   0.50404715  0.25170307  0.24104005
   0.50404715  0.74829693  0.75895995
   0.25063164  0.24803736  0.96066787
   0.25063164  0.75196264  0.03933213
   0.99967230  0.00000000  0.00000000
   0.25036138  0.00724728  0.25366738
   0.25036138  0.99275272  0.74633262
   0.75018216  0.99877406  0.74938754
   0.75018216  0.00122594  0.25061246
   0.50018762  0.00000000  0.00000000
   0.99972605  0.00000000  0.50000000
   0.50071183  0.00000000  0.50000000
   0.99990063  0.50000000  0.50000000
   0.25014213  0.49578544  0.74909253
   0.25014213  0.50421456  0.25090747
   0.75035641  0.50012028  0.24776916
   0.75035641  0.49987972  0.75223084
   0.50030153  0.50000000  0.50000000
   0.99790302  0.50000000  0.00000000
   0.50271898  0.50000000  0.00000000
   0.99818595  0.39753983  0.63368681
   0.99818595  0.60246017  0.36631319
   0.99720723  0.11159198  0.36361269
   0.99720723  0.88840802  0.63638731
   0.24997571  0.39936646  0.88969502
   0.24997571  0.60063354  0.11030498
   0.75061060  0.59760320  0.11349658
   0.75061060  0.40239680  0.88650342
   0.24954998  0.11078811  0.11011835
   0.24954998  0.88921189  0.88988165
   0.75082836  0.89615115  0.88479912
   0.75082836  0.10384885  0.11520088
   0.50208855  0.39778936  0.63367910
   0.50208855  0.60221064  0.36632090
   0.50388219  0.11132837  0.36316357
   0.50388219  0.88867163  0.63683643
   0.00494505  0.39734321  0.14044160
   0.00494505  0.60265679  0.85955840
   0.00552424  0.09291348  0.86324307
   0.00552424  0.90708652  0.13675693
   0.25027224  0.39280312  0.38733271
   0.25027224  0.60719688  0.61266729
   0.74995490  0.60573136  0.61554130
   0.74995490  0.39426864  0.38445870
   0.25005761  0.09861936  0.61228785
   0.25005761  0.90138064  0.38771215
   0.75028512  0.90178235  0.38637972
   0.75028512  0.09821765  0.61362028
   0.49594060  0.39823791  0.13847150
   0.49594060  0.60176209  0.86152850
   0.49477719  0.09389334  0.86218892
   0.49477719  0.90610666  0.13781108
 
 position of ions in cartesian coordinates  (Angst):
   1.46041354  5.55399595  2.41132096
   4.79211150  5.55399595  7.15810294
   4.34339258  1.39007241  2.38105350
   1.90913247  1.39007241  7.18837041
   1.87145399  4.17797190  7.19919957
   4.38107105  4.17797190  2.37022433
   1.46793663  2.80689555  2.40867064
   4.78458842  2.80689555  7.16075327
   8.62456284  1.39569648  2.37242101
  -2.37203780  1.39569648  7.19700289
   0.00000000  5.56689137  0.00000000
   2.49132556  1.39419148  0.06895338
   3.76119948  1.39419148  9.50047052
   3.76940282  4.17755158  9.55809608
   2.48312222  4.17755158  0.01132782
   0.00000000  2.78540292  0.00000000
   4.96309303  5.56719069 -0.00080942
   4.96309303  2.78832210 -0.00080942
   3.12626252  5.56816288  4.78471195
   5.61428419  1.39297054  4.74397098
   0.63824086  1.39297054  4.82545292
   0.62213041  4.17852193  4.78627148
   5.63039464  4.17852193  4.78315243
   3.12626252  2.78603725  4.78471195
  -1.83683051  5.55703875  4.78552137
  -1.83683051  2.79949935  4.78552137
   4.82966660  5.55861431  3.80384487
   1.42285844  5.55861431  5.76557903
   3.19933611  5.55316410  1.06746298
   3.05318894  5.55316410  8.50196092
   7.36414131  1.39204380  3.82091319
  -1.11161627  1.39204380  5.74851071
  -1.06880341  4.17993744  5.71950203
   7.32132845  4.17993744  3.84992187
   0.68605727  1.38967303  1.06017947
   5.56646777  1.38967303  8.50924443
   5.49052515  4.18115008  8.57566861
   0.76199990  4.18115008  0.99375529
   4.82867338  2.79598866  3.80623314
   1.42385166  2.79598866  5.76319076
   3.19584647  2.80597693  1.06494069
   3.05667857  2.80597693  8.50448322
  -0.06565481  0.02753758  3.80276149
   6.31817985  0.02753758  5.76666241
   8.22737870  0.03076292  0.88788144
  -1.97485365  0.03076292  8.68154246
   2.40171104  1.39369509  3.75890842
   3.85081401  1.39369509  5.81051548
   3.88472579  4.17628603  5.79648427
   2.36779926  4.17628603  3.77293963
   5.71538902  1.39249987  0.94289892
   0.53713602  1.39249987  8.62652499
   0.52243433  4.17812493  8.63037193
   5.73009072  4.17812493  0.93905198
  -0.08849721  2.76175247  3.81132789
   6.34102226  2.76175247  5.75809601
   8.21331534  2.75527377  0.89726143
  -1.96079029  2.75527377  8.67216247
 


--------------------------------------------------------------------------------------------------------


 use serial FFT for orbitals x direction half grid
 k-point  1 :   0.0000 0.0000 0.0000  plane waves:    6725

 maximum and minimum number of plane-waves per node :      6725     6725

 maximum number of plane-waves:      6725
 maximum index in each direction: 
   IXMAX=   10   IYMAX=   18   IZMAX=   18
   IXMIN=    0   IYMIN=  -18   IZMIN=  -18

 The following grids will avoid any aliasing or wrap around errors in the Hartre
 e energy
  - symmetry arguments have not been applied
  - exchange correlation energies might require even more grid points
  - we recommend to set PREC=Normal or Accurate and rely on VASP defaults
 NGX is ok and might be reduce to    42
 NGY is ok and might be reduce to    80
 WARNING: aliasing errors must be expected set NGZ to    80 to avoid them

 serial   3D FFT for wavefunctions
 parallel 3D FFT for charge:
    minimum data exchange during FFTs selected (reduces bandwidth)


 total amount of memory used by VASP MPI-rank0    93554. kBytes
=======================================================================

   base      :      30000. kBytes
   nonlr-proj:      21740. kBytes
   fftplans  :       5544. kBytes
   grid      :      31764. kBytes
   one-center:        902. kBytes
   wavefun   :       3604. kBytes
 
     INWAV:  cpu time    0.0000: real time    0.0000
 Broyden mixing: mesh for mixing (old mesh)
   NGX = 21   NGY = 37   NGZ = 37
  (NGX  = 84   NGY  =160   NGZ  =144)
  gives a total of  28749 points

 initial charge density was supplied:
 charge density of overlapping atoms calculated
 number of electron     382.0000000 magnetization      40.0000000
 keeping initial charge density in first step


--------------------------------------------------------------------------------------------------------


 Maximum index for non-local projection operator         5985
 Maximum index for augmentation-charges         1408 (set IRDMAX)


--------------------------------------------------------------------------------------------------------


 First call to EWALD:  gamma=   0.219
 Maximum number of real-space cells 4x 2x 2
 Maximum number of reciprocal cells 2x 3x 3

    FEWALD:  cpu time    0.0034: real time    0.0034


--------------------------------------- Iteration      1(   1)  ---------------------------------------


    POTLOK:  cpu time    0.1703: real time    0.1759
    SETDIJ:  cpu time    0.0213: real time    0.0213
     EDDAV:  cpu time    1.7355: real time    1.7562
    --------------------------------------------
      LOOP:  cpu time    1.9275: real time    1.9539

 eigenvalue-minimisations  :  1040
 total energy-change (2. order) : 0.6651332E+04  (-0.1693813E+05)
 number of electron     382.0000000 magnetization      40.0000000
 augmentation part      382.0000000 magnetization      40.0000000

 Free energy of the ion-electron system (eV)
  ---------------------------------------------------
  alpha Z        PSCENC =      1179.76727057
  Ewald energy   TEWEN  =    -22508.93400645
  -Hartree energ DENC   =    -11207.63048114
  -exchange      EXHF   =         0.00000000
  -V(xc)+E(xc)   XCENC  =      1556.21963107
  PAW double counting   =     27261.33954750   -28529.28305776
  entropy T*S    EENTRO =        -0.00000001
  eigenvalues    EBANDS =      5876.00694623
  atomic energy  EATOM  =     33023.84575915
  Solvation  Ediel_sol  =         0.00000000
  ---------------------------------------------------
  free energy    TOTEN  =      6651.33160917 eV

  energy without entropy =     6651.33160918  energy(sigma->0) =     6651.33160917


--------------------------------------------------------------------------------------------------------




--------------------------------------- Iteration      1(   2)  ---------------------------------------


     EDDAV:  cpu time    1.7465: real time    1.7507
    --------------------------------------------
      LOOP:  cpu time    1.7464: real time    1.7506

 eigenvalue-minimisations  :  1072
 total energy-change (2. order) :-0.5363835E+04  (-0.4781208E+04)
 number of electron     382.0000000 magnetization      40.0000000
 augmentation part      382.0000000 magnetization      40.0000000

 Free energy of the ion-electron system (eV)
  ---------------------------------------------------
  alpha Z        PSCENC =      1179.76727057
  Ewald energy   TEWEN  =    -22508.93400645
  -Hartree energ DENC   =    -11207.63048114
  -exchange      EXHF   =         0.00000000
  -V(xc)+E(xc)   XCENC  =      1556.21963107
  PAW double counting   =     27261.33954750   -28529.28305776
  entropy T*S    EENTRO =        -0.01337945
  eigenvalues    EBANDS =       512.18493024
  atomic energy  EATOM  =     33023.84575915
  Solvation  Ediel_sol  =         0.00000000
  ---------------------------------------------------
  free energy    TOTEN  =      1287.49621374 eV

  energy without entropy =     1287.50959319  energy(sigma->0) =     1287.50290346


--------------------------------------------------------------------------------------------------------




--------------------------------------- Iteration      1(   3)  ---------------------------------------


     EDDAV:  cpu time    1.7926: real time    1.7969
    --------------------------------------------
      LOOP:  cpu time    1.7926: real time    1.7969

 eigenvalue-minimisations  :  1168
 total energy-change (2. order) :-0.1502050E+04  (-0.1231656E+04)
 number of electron     382.0000000 magnetization      40.0000000
 augmentation part      382.0000000 magnetization      40.0000000

 Free energy of the ion-electron system (eV)
  ---------------------------------------------------
  alpha Z        PSCENC =      1179.76727057
  Ewald energy   TEWEN  =    -22508.93400645
  -Hartree energ DENC   =    -11207.63048114
  -exchange      EXHF   =         0.00000000
  -V(xc)+E(xc)   XCENC  =      1556.21963107
  PAW double counting   =     27261.33954750   -28529.28305776
  entropy T*S    EENTRO =        -0.08216585
  eigenvalues    EBANDS =      -989.79598797
  atomic energy  EATOM  =     33023.84575915
  Solvation  Ediel_sol  =         0.00000000
  ---------------------------------------------------
  free energy    TOTEN  =      -214.55349087 eV

  energy without entropy =     -214.47132502  energy(sigma->0) =     -214.51240795


--------------------------------------------------------------------------------------------------------




--------------------------------------- Iteration      1(   4)  ---------------------------------------


     EDDAV:  cpu time    1.8955: real time    1.9000
    --------------------------------------------
      LOOP:  cpu time    1.8954: real time    1.9000

 eigenvalue-minimisations  :  1232
 total energy-change (2. order) :-0.2362689E+03  (-0.2283538E+03)
 number of electron     382.0000000 magnetization      40.0000000
 augmentation part      382.0000000 magnetization      40.0000000

 Free energy of the ion-electron system (eV)
  ---------------------------------------------------
  alpha Z        PSCENC =      1179.76727057
  Ewald energy   TEWEN  =    -22508.93400645
  -Hartree energ DENC   =    -11207.63048114
  -exchange      EXHF   =         0.00000000
  -V(xc)+E(xc)   XCENC  =      1556.21963107
  PAW double counting   =     27261.33954750   -28529.28305776
  entropy T*S    EENTRO =        -0.12124188
  eigenvalues    EBANDS =     -1226.02585552
  atomic energy  EATOM  =     33023.84575915
  Solvation  Ediel_sol  =         0.00000000
  ---------------------------------------------------
  free energy    TOTEN  =      -450.82243445 eV

  energy without entropy =     -450.70119257  energy(sigma->0) =     -450.76181351


--------------------------------------------------------------------------------------------------------




--------------------------------------- Iteration      1(   5)  ---------------------------------------


     EDDAV:  cpu time    2.4808: real time    2.4867
    CHARGE:  cpu time    0.1353: real time    0.1356
    MIXING:  cpu time    0.0035: real time    0.0035
    --------------------------------------------
      LOOP:  cpu time    2.6193: real time    2.6256

 eigenvalue-minimisations  :  1664
 total energy-change (2. order) :-0.1213714E+02  (-0.1200632E+02)
 number of electron     381.9999960 magnetization      40.5913217
 augmentation part      114.7892157 magnetization      30.7449161

 Broyden mixing:
  rms(total) = 0.11425E+02    rms(broyden)= 0.11424E+02
  rms(prec ) = 0.14011E+02
  weight for this iteration     100.00

 Free energy of the ion-electron system (eV)
  ---------------------------------------------------
  alpha Z        PSCENC =      1179.76727057
  Ewald energy   TEWEN  =    -22508.93400645
  -Hartree energ DENC   =    -11207.63048114
  -exchange      EXHF   =         0.00000000
  -V(xc)+E(xc)   XCENC  =      1556.21963107
  PAW double counting   =     27261.33954750   -28529.28305776
  entropy T*S    EENTRO =        -0.11939434
  eigenvalues    EBANDS =     -1238.16484551
  atomic energy  EATOM  =     33023.84575915
  Solvation  Ediel_sol  =         0.00000000
  ---------------------------------------------------
  free energy    TOTEN  =      -462.95957690 eV

  energy without entropy =     -462.84018256  energy(sigma->0) =     -462.89987973


--------------------------------------------------------------------------------------------------------




--------------------------------------- Iteration      1(   6)  ---------------------------------------


    POTLOK:  cpu time    0.1450: real time    0.1454
    SETDIJ:  cpu time    0.0217: real time    0.0217
     EDDAV:  cpu time    2.3361: real time    2.3417
    CHARGE:  cpu time    0.1410: real time    0.1414
    MIXING:  cpu time    0.0034: real time    0.0034
    --------------------------------------------
      LOOP:  cpu time    2.6473: real time    2.6536

 eigenvalue-minimisations  :  1536
 total energy-change (2. order) :-0.4634737E+02  (-0.1180083E+03)
 number of electron     381.9999958 magnetization      35.9212806
 augmentation part      141.2844447 magnetization      35.3876194

 Broyden mixing:
  rms(total) = 0.21247E+02    rms(broyden)= 0.21247E+02
  rms(prec ) = 0.23777E+02
  weight for this iteration     100.00

 eigenvalues of (default mixing * dielectric matrix)
  average eigenvalue GAMMA=   0.2098
  0.2098

 Free energy of the ion-electron system (eV)
  ---------------------------------------------------
  alpha Z        PSCENC =      1179.76727057
  Ewald energy   TEWEN  =    -22508.93400645
  -Hartree energ DENC   =    -10720.70664750
  -exchange      EXHF   =         0.00000000
  -V(xc)+E(xc)   XCENC  =      1566.25749623
  PAW double counting   =     30068.14845322   -31169.48790454
  entropy T*S    EENTRO =        -0.06278951
  eigenvalues    EBANDS =     -1948.13457935
  atomic energy  EATOM  =     33023.84575915
  Solvation  Ediel_sol  =         0.00000000
  ---------------------------------------------------
  free energy    TOTEN  =      -509.30694819 eV

  energy without entropy =     -509.24415868  energy(sigma->0) =     -509.27555344


--------------------------------------------------------------------------------------------------------




--------------------------------------- Iteration      1(   7)  ---------------------------------------


    POTLOK:  cpu time    0.1440: real time    0.1443
    SETDIJ:  cpu time    0.0212: real time    0.0212
     EDDAV:  cpu time    2.1481: real time    2.1532
    CHARGE:  cpu time    0.1423: real time    0.1426
    MIXING:  cpu time    0.0034: real time    0.0034
    --------------------------------------------
      LOOP:  cpu time    2.4588: real time    2.4647

 eigenvalue-minimisations  :  1392
 total energy-change (2. order) : 0.1048651E+03  (-0.4236019E+02)
 number of electron     381.9999966 magnetization      29.8909435
 augmentation part      136.6654318 magnetization      30.0102337

 Broyden mixing:
  rms(total) = 0.10757E+02    rms(broyden)= 0.10757E+02
  rms(prec ) = 0.12632E+02
  weight for this iteration     100.00

 eigenvalues of (default mixing * dielectric matrix)
  average eigenvalue GAMMA=   0.3934
  0.3934  0.3934

 Free energy of the ion-electron system (eV)
  ---------------------------------------------------
  alpha Z        PSCENC =      1179.76727057
  Ewald energy   TEWEN  =    -22508.93400645
  -Hartree energ DENC   =    -10852.82251808
  -exchange      EXHF   =         0.00000000
  -V(xc)+E(xc)   XCENC  =      1557.21299506
  PAW double counting   =     31119.88650121   -32312.85229561
  entropy T*S    EENTRO =        -0.02099092
  eigenvalues    EBANDS =     -1610.52459518
  atomic energy  EATOM  =     33023.84575915
  Solvation  Ediel_sol  =         0.00000000
  ---------------------------------------------------
  free energy    TOTEN  =      -404.44188026 eV

  energy without entropy =     -404.42088934  energy(sigma->0) =     -404.43138480


--------------------------------------------------------------------------------------------------------




--------------------------------------- Iteration      1(   8)  ---------------------------------------


    POTLOK:  cpu time    0.1405: real time    0.1409
    SETDIJ:  cpu time    0.0219: real time    0.0220
     EDDAV:  cpu time    2.2530: real time    2.2583
    CHARGE:  cpu time    0.1411: real time    0.1415
    MIXING:  cpu time    0.0033: real time    0.0033
    --------------------------------------------
      LOOP:  cpu time    2.5598: real time    2.5659

 eigenvalue-minimisations  :  1488
 total energy-change (2. order) :-0.1672421E+02  (-0.2970390E+02)
 number of electron     381.9999945 magnetization      25.3511254
 augmentation part      126.4426452 magnetization      21.3552896

 Broyden mixing:
  rms(total) = 0.10940E+02    rms(broyden)= 0.10939E+02
  rms(prec ) = 0.17054E+02
  weight for this iteration     100.00

 eigenvalues of (default mixing * dielectric matrix)
  average eigenvalue GAMMA=   0.4430
  0.5607  0.5607  0.2076

 Free energy of the ion-electron system (eV)
  ---------------------------------------------------
  alpha Z        PSCENC =      1179.76727057
  Ewald energy   TEWEN  =    -22508.93400645
  -Hartree energ DENC   =    -10960.65812396
  -exchange      EXHF   =         0.00000000
  -V(xc)+E(xc)   XCENC  =      1551.38621108
  PAW double counting   =     32066.95798746   -33335.45045850
  entropy T*S    EENTRO =        -0.04578387
  eigenvalues    EBANDS =     -1438.03494789
  atomic energy  EATOM  =     33023.84575915
  Solvation  Ediel_sol  =         0.00000000
  ---------------------------------------------------
  free energy    TOTEN  =      -421.16609242 eV

  energy without entropy =     -421.12030855  energy(sigma->0) =     -421.14320049


--------------------------------------------------------------------------------------------------------




--------------------------------------- Iteration      1(   9)  ---------------------------------------


    POTLOK:  cpu time    0.1429: real time    0.1432
    SETDIJ:  cpu time    0.0220: real time    0.0221
     EDDAV:  cpu time    2.0713: real time    2.0762
    CHARGE:  cpu time    0.1375: real time    0.1379
    MIXING:  cpu time    0.0037: real time    0.0037
    --------------------------------------------
      LOOP:  cpu time    2.3774: real time    2.3831

 eigenvalue-minimisations  :  1344
 total energy-change (2. order) : 0.3699848E+02  (-0.1487004E+02)
 number of electron     381.9999956 magnetization      21.2834049
 augmentation part      124.7768363 magnetization      17.4416409

 Broyden mixing:
  rms(total) = 0.87151E+01    rms(broyden)= 0.87146E+01
  rms(prec ) = 0.11754E+02
  weight for this iteration     100.00

 eigenvalues of (default mixing * dielectric matrix)
  average eigenvalue GAMMA=   0.4338
  0.5876  0.5876  0.4234  0.1365

 Free energy of the ion-electron system (eV)
  ---------------------------------------------------
  alpha Z        PSCENC =      1179.76727057
  Ewald energy   TEWEN  =    -22508.93400645
  -Hartree energ DENC   =    -10933.88316188
  -exchange      EXHF   =         0.00000000
  -V(xc)+E(xc)   XCENC  =      1548.32686481
  PAW double counting   =     32765.78186291   -34049.48260633
  entropy T*S    EENTRO =        -0.05593757
  eigenvalues    EBANDS =     -1409.53365708
  atomic energy  EATOM  =     33023.84575915
  Solvation  Ediel_sol  =         0.00000000
  ---------------------------------------------------
  free energy    TOTEN  =      -384.16761187 eV

  energy without entropy =     -384.11167431  energy(sigma->0) =     -384.13964309


--------------------------------------------------------------------------------------------------------




--------------------------------------- Iteration      1(  10)  ---------------------------------------


    POTLOK:  cpu time    0.1428: real time    0.1431
    SETDIJ:  cpu time    0.0222: real time    0.0222
     EDDAV:  cpu time    2.0992: real time    2.1042
    CHARGE:  cpu time    0.1419: real time    0.1422
    MIXING:  cpu time    0.0038: real time    0.0038
    --------------------------------------------
      LOOP:  cpu time    2.4099: real time    2.4156

 eigenvalue-minimisations  :  1392
 total energy-change (2. order) :-0.1133672E+02  (-0.3386655E+02)
 number of electron     381.9999967 magnetization      16.3043442
 augmentation part      123.9299405 magnetization      14.5591679

 Broyden mixing:
  rms(total) = 0.79625E+01    rms(broyden)= 0.79622E+01
  rms(prec ) = 0.10788E+02
  weight for this iteration     100.00

 eigenvalues of (default mixing * dielectric matrix)
  average eigenvalue GAMMA=   0.4590
  1.0790  0.4419  0.4419  0.1660  0.1660

 Free energy of the ion-electron system (eV)
  ---------------------------------------------------
  alpha Z        PSCENC =      1179.76727057
  Ewald energy   TEWEN  =    -22508.93400645
  -Hartree energ DENC   =    -10918.87918070
  -exchange      EXHF   =         0.00000000
  -V(xc)+E(xc)   XCENC  =      1546.34975388
  PAW double counting   =     33595.95060902   -34900.45540981
  entropy T*S    EENTRO =        -0.05055867
  eigenvalues    EBANDS =     -1413.09857112
  atomic energy  EATOM  =     33023.84575915
  Solvation  Ediel_sol  =         0.00000000
  ---------------------------------------------------
  free energy    TOTEN  =      -395.50433414 eV

  energy without entropy =     -395.45377547  energy(sigma->0) =     -395.47905481


--------------------------------------------------------------------------------------------------------




--------------------------------------- Iteration      1(  11)  ---------------------------------------


    POTLOK:  cpu time    0.1303: real time    0.1306
    SETDIJ:  cpu time    0.0199: real time    0.0200
     EDDAV:  cpu time    1.8550: real time    1.8594
    CHARGE:  cpu time    0.1177: real time    0.1180
    MIXING:  cpu time    0.0035: real time    0.0035
    --------------------------------------------
      LOOP:  cpu time    2.1264: real time    2.1314

 eigenvalue-minimisations  :  1520
 total energy-change (2. order) : 0.3087935E+02  (-0.4603542E+01)
 number of electron     381.9999971 magnetization      13.3107169
 augmentation part      128.2276307 magnetization      11.6415941

 Broyden mixing:
  rms(total) = 0.36590E+01    rms(broyden)= 0.36583E+01
  rms(prec ) = 0.49924E+01
  weight for this iteration     100.00

 eigenvalues of (default mixing * dielectric matrix)
  average eigenvalue GAMMA=   0.4890
  0.9408  0.9408  0.3598  0.3598  0.1887  0.1443

 Free energy of the ion-electron system (eV)
  ---------------------------------------------------
  alpha Z        PSCENC =      1179.76727057
  Ewald energy   TEWEN  =    -22508.93400645
  -Hartree energ DENC   =    -10867.97422397
  -exchange      EXHF   =         0.00000000
  -V(xc)+E(xc)   XCENC  =      1544.40965982
  PAW double counting   =     34453.87129037   -35764.90109184
  entropy T*S    EENTRO =        -0.00577955
  eigenvalues    EBANDS =     -1424.70386464
  atomic energy  EATOM  =     33023.84575915
  Solvation  Ediel_sol  =         0.00000000
  ---------------------------------------------------
  free energy    TOTEN  =      -364.62498654 eV

  energy without entropy =     -364.61920699  energy(sigma->0) =     -364.62209677


--------------------------------------------------------------------------------------------------------




--------------------------------------- Iteration      1(  12)  ---------------------------------------


    POTLOK:  cpu time    0.1243: real time    0.1246
    SETDIJ:  cpu time    0.0185: real time    0.0186
     EDDAV:  cpu time    1.6483: real time    1.6522
    CHARGE:  cpu time    0.1114: real time    0.1117
    MIXING:  cpu time    0.0034: real time    0.0034
    --------------------------------------------
      LOOP:  cpu time    1.9060: real time    1.9105

 eigenvalue-minimisations  :  1360
 total energy-change (2. order) :-0.4194174E+01  (-0.4104107E+01)
 number of electron     381.9999960 magnetization      12.1388703
 augmentation part      126.1011099 magnetization       9.8505908

 Broyden mixing:
  rms(total) = 0.78723E+01    rms(broyden)= 0.78717E+01
  rms(prec ) = 0.11767E+02
  weight for this iteration     100.00

 eigenvalues of (default mixing * dielectric matrix)
  average eigenvalue GAMMA=   0.4533
  0.9697  0.9697  0.3820  0.3820  0.1955  0.1374  0.1374

 Free energy of the ion-electron system (eV)
  ---------------------------------------------------
  alpha Z        PSCENC =      1179.76727057
  Ewald energy   TEWEN  =    -22508.93400645
  -Hartree energ DENC   =    -10889.79277090
  -exchange      EXHF   =         0.00000000
  -V(xc)+E(xc)   XCENC  =      1544.47601299
  PAW double counting   =     34830.57451354   -36151.14659359
  entropy T*S    EENTRO =        -0.05393961
  eigenvalues    EBANDS =     -1397.55540583
  atomic energy  EATOM  =     33023.84575915
  Solvation  Ediel_sol  =         0.00000000
  ---------------------------------------------------
  free energy    TOTEN  =      -368.81916014 eV

  energy without entropy =     -368.76522053  energy(sigma->0) =     -368.79219033


--------------------------------------------------------------------------------------------------------




--------------------------------------- Iteration      1(  13)  ---------------------------------------


    POTLOK:  cpu time    0.1210: real time    0.1213
    SETDIJ:  cpu time    0.0178: real time    0.0178
     EDDAV:  cpu time    1.6569: real time    1.6608
    CHARGE:  cpu time    0.1058: real time    0.1060
    MIXING:  cpu time    0.0035: real time    0.0035
    --------------------------------------------
      LOOP:  cpu time    1.9049: real time    1.9094

 eigenvalue-minimisations  :  1376
 total energy-change (2. order) : 0.1140040E+02  (-0.1177625E+02)
 number of electron     381.9999970 magnetization      11.2037845
 augmentation part      126.9874339 magnetization      10.3329047

 Broyden mixing:
  rms(total) = 0.33695E+01    rms(broyden)= 0.33689E+01
  rms(prec ) = 0.40781E+01
  weight for this iteration     100.00

 eigenvalues of (default mixing * dielectric matrix)
  average eigenvalue GAMMA=   0.4382
  0.9897  0.9897  0.4114  0.4114  0.2212  0.2212  0.1561  0.1047

 Free energy of the ion-electron system (eV)
  ---------------------------------------------------
  alpha Z        PSCENC =      1179.76727057
  Ewald energy   TEWEN  =    -22508.93400645
  -Hartree energ DENC   =    -10898.71817085
  -exchange      EXHF   =         0.00000000
  -V(xc)+E(xc)   XCENC  =      1544.62727919
  PAW double counting   =     35006.96956320   -36332.15208660
  entropy T*S    EENTRO =        -0.04484287
  eigenvalues    EBANDS =     -1372.77952793
  atomic energy  EATOM  =     33023.84575915
  Solvation  Ediel_sol  =         0.00000000
  ---------------------------------------------------
  free energy    TOTEN  =      -357.41876260 eV

  energy without entropy =     -357.37391973  energy(sigma->0) =     -357.39634117


--------------------------------------------------------------------------------------------------------




--------------------------------------- Iteration      1(  14)  ---------------------------------------


    POTLOK:  cpu time    0.1159: real time    0.1161
    SETDIJ:  cpu time    0.0178: real time    0.0178
     EDDAV:  cpu time    1.7075: real time    1.7115
    CHARGE:  cpu time    0.1130: real time    0.1132
    MIXING:  cpu time    0.0036: real time    0.0036
    --------------------------------------------
      LOOP:  cpu time    1.9577: real time    1.9623

 eigenvalue-minimisations  :  1392
 total energy-change (2. order) : 0.1946251E+01  (-0.1024210E+01)
 number of electron     381.9999970 magnetization       9.9959838
 augmentation part      126.9516488 magnetization       8.3751983

 Broyden mixing:
  rms(total) = 0.27501E+01    rms(broyden)= 0.27493E+01
  rms(prec ) = 0.35338E+01
  weight for this iteration     100.00

 eigenvalues of (default mixing * dielectric matrix)
  average eigenvalue GAMMA=   0.4200
  1.0190  0.7288  0.5071  0.5071  0.2884  0.2884  0.1854  0.1466  0.1097

 Free energy of the ion-electron system (eV)
  ---------------------------------------------------
  alpha Z        PSCENC =      1179.76727057
  Ewald energy   TEWEN  =    -22508.93400645
  -Hartree energ DENC   =    -10903.77056699
  -exchange      EXHF   =         0.00000000
  -V(xc)+E(xc)   XCENC  =      1544.47306567
  PAW double counting   =     35064.92445805   -36392.33948712
  entropy T*S    EENTRO =        -0.02414287
  eigenvalues    EBANDS =     -1363.41486182
  atomic energy  EATOM  =     33023.84575915
  Solvation  Ediel_sol  =         0.00000000
  ---------------------------------------------------
  free energy    TOTEN  =      -355.47251180 eV

  energy without entropy =     -355.44836893  energy(sigma->0) =     -355.46044037


--------------------------------------------------------------------------------------------------------




--------------------------------------- Iteration      1(  15)  ---------------------------------------


    POTLOK:  cpu time    0.1137: real time    0.1139
    SETDIJ:  cpu time    0.0178: real time    0.0179
     EDDAV:  cpu time    1.6739: real time    1.6779
    CHARGE:  cpu time    0.1137: real time    0.1139
    MIXING:  cpu time    0.0043: real time    0.0043
    --------------------------------------------
      LOOP:  cpu time    1.9234: real time    1.9280

 eigenvalue-minimisations  :  1424
 total energy-change (2. order) : 0.9619347E-01  (-0.1286964E+01)
 number of electron     381.9999969 magnetization       9.2531658
 augmentation part      126.9644890 magnetization       7.7421245

 Broyden mixing:
  rms(total) = 0.25546E+01    rms(broyden)= 0.25539E+01
  rms(prec ) = 0.31371E+01
  weight for this iteration     100.00

 eigenvalues of (default mixing * dielectric matrix)
  average eigenvalue GAMMA=   0.4484
  0.9440  0.8060  0.8060  0.6395  0.3587  0.3587  0.1891  0.1446  0.1188  0.1188

 Free energy of the ion-electron system (eV)
  ---------------------------------------------------
  alpha Z        PSCENC =      1179.76727057
  Ewald energy   TEWEN  =    -22508.93400645
  -Hartree energ DENC   =    -10901.24322657
  -exchange      EXHF   =         0.00000000
  -V(xc)+E(xc)   XCENC  =      1544.11643633
  PAW double counting   =     35201.21381269   -36528.11047476
  entropy T*S    EENTRO =        -0.04626507
  eigenvalues    EBANDS =     -1365.98562422
  atomic energy  EATOM  =     33023.84575915
  Solvation  Ediel_sol  =         0.00000000
  ---------------------------------------------------
  free energy    TOTEN  =      -355.37631834 eV

  energy without entropy =     -355.33005327  energy(sigma->0) =     -355.35318580


--------------------------------------------------------------------------------------------------------




--------------------------------------- Iteration      1(  16)  ---------------------------------------


    POTLOK:  cpu time    0.1235: real time    0.1238
    SETDIJ:  cpu time    0.0182: real time    0.0182
     EDDAV:  cpu time    1.6420: real time    1.6459
    CHARGE:  cpu time    0.1092: real time    0.1095
    MIXING:  cpu time    0.0041: real time    0.0041
    --------------------------------------------
      LOOP:  cpu time    1.8971: real time    1.9016

 eigenvalue-minimisations  :  1360
 total energy-change (2. order) : 0.4053338E+00  (-0.4876548E+00)
 number of electron     381.9999971 magnetization       8.8227373
 augmentation part      126.8948344 magnetization       7.1248508

 Broyden mixing:
  rms(total) = 0.22508E+01    rms(broyden)= 0.22504E+01
  rms(prec ) = 0.27082E+01
  weight for this iteration     100.00

 eigenvalues of (default mixing * dielectric matrix)
  average eigenvalue GAMMA=   0.4485
  0.9439  0.9439  0.8803  0.6735  0.3720  0.3720  0.1812  0.1812  0.1418  0.1306
  0.1127

 Free energy of the ion-electron system (eV)
  ---------------------------------------------------
  alpha Z        PSCENC =      1179.76727057
  Ewald energy   TEWEN  =    -22508.93400645
  -Hartree energ DENC   =    -10904.12192529
  -exchange      EXHF   =         0.00000000
  -V(xc)+E(xc)   XCENC  =      1544.01459463
  PAW double counting   =     35266.24016351   -36591.78579043
  entropy T*S    EENTRO =        -0.05886743
  eigenvalues    EBANDS =     -1363.93818278
  atomic energy  EATOM  =     33023.84575915
  Solvation  Ediel_sol  =         0.00000000
  ---------------------------------------------------
  free energy    TOTEN  =      -354.97098452 eV

  energy without entropy =     -354.91211709  energy(sigma->0) =     -354.94155081


--------------------------------------------------------------------------------------------------------




--------------------------------------- Iteration      1(  17)  ---------------------------------------


    POTLOK:  cpu time    0.1129: real time    0.1132
    SETDIJ:  cpu time    0.0181: real time    0.0182
     EDDAV:  cpu time    1.6738: real time    1.6778
    CHARGE:  cpu time    0.1095: real time    0.1098
    MIXING:  cpu time    0.0043: real time    0.0043
    --------------------------------------------
      LOOP:  cpu time    1.9187: real time    1.9232

 eigenvalue-minimisations  :  1408
 total energy-change (2. order) : 0.5200240E+00  (-0.4514912E+00)
 number of electron     381.9999971 magnetization       8.5174747
 augmentation part      126.6162795 magnetization       6.2956026

 Broyden mixing:
  rms(total) = 0.16761E+01    rms(broyden)= 0.16755E+01
  rms(prec ) = 0.19567E+01
  weight for this iteration     100.00

 eigenvalues of (default mixing * dielectric matrix)
  average eigenvalue GAMMA=   0.4538
  1.0290  1.0290  1.0590  0.4987  0.3848  0.3848  0.3120  0.2149  0.1481  0.1481
  0.1186  0.1186

 Free energy of the ion-electron system (eV)
  ---------------------------------------------------
  alpha Z        PSCENC =      1179.76727057
  Ewald energy   TEWEN  =    -22508.93400645
  -Hartree energ DENC   =    -10911.61508864
  -exchange      EXHF   =         0.00000000
  -V(xc)+E(xc)   XCENC  =      1544.09496400
  PAW double counting   =     35306.83761255   -36632.40986583
  entropy T*S    EENTRO =        -0.02101698
  eigenvalues    EBANDS =     -1356.01658894
  atomic energy  EATOM  =     33023.84575915
  Solvation  Ediel_sol  =         0.00000000
  ---------------------------------------------------
  free energy    TOTEN  =      -354.45096057 eV

  energy without entropy =     -354.42994359  energy(sigma->0) =     -354.44045208


--------------------------------------------------------------------------------------------------------




--------------------------------------- Iteration      1(  18)  ---------------------------------------


    POTLOK:  cpu time    0.1152: real time    0.1155
    SETDIJ:  cpu time    0.0179: real time    0.0179
     EDDAV:  cpu time    1.7328: real time    1.7369
    CHARGE:  cpu time    0.1182: real time    0.1185
    MIXING:  cpu time    0.0043: real time    0.0044
    --------------------------------------------
      LOOP:  cpu time    1.9884: real time    1.9931

 eigenvalue-minimisations  :  1472
 total energy-change (2. order) :-0.2545754E+00  (-0.5439843E+00)
 number of electron     381.9999971 magnetization       8.1042759
 augmentation part      126.4155630 magnetization       6.0169382

 Broyden mixing:
  rms(total) = 0.17698E+01    rms(broyden)= 0.17693E+01
  rms(prec ) = 0.21875E+01
  weight for this iteration     100.00

 eigenvalues of (default mixing * dielectric matrix)
  average eigenvalue GAMMA=   0.4632
  1.1385  1.1385  1.1679  0.4118  0.4118  0.4175  0.4175  0.2300  0.1801  0.1464
  0.1255  0.1255  0.1109

 Free energy of the ion-electron system (eV)
  ---------------------------------------------------
  alpha Z        PSCENC =      1179.76727057
  Ewald energy   TEWEN  =    -22508.93400645
  -Hartree energ DENC   =    -10916.68611674
  -exchange      EXHF   =         0.00000000
  -V(xc)+E(xc)   XCENC  =      1544.17596051
  PAW double counting   =     35368.62683634   -36694.18241112
  entropy T*S    EENTRO =        -0.05692088
  eigenvalues    EBANDS =     -1351.26190740
  atomic energy  EATOM  =     33023.84575915
  Solvation  Ediel_sol  =         0.00000000
  ---------------------------------------------------
  free energy    TOTEN  =      -354.70553602 eV

  energy without entropy =     -354.64861514  energy(sigma->0) =     -354.67707558


--------------------------------------------------------------------------------------------------------




--------------------------------------- Iteration      1(  19)  ---------------------------------------


    POTLOK:  cpu time    0.1236: real time    0.1239
    SETDIJ:  cpu time    0.0177: real time    0.0178
     EDDAV:  cpu time    1.6316: real time    1.6356
    CHARGE:  cpu time    0.1072: real time    0.1074
    MIXING:  cpu time    0.0045: real time    0.0045
    --------------------------------------------
      LOOP:  cpu time    1.8847: real time    1.8892

 eigenvalue-minimisations  :  1376
 total energy-change (2. order) : 0.2359634E+00  (-0.5588925E+00)
 number of electron     381.9999972 magnetization       7.6918451
 augmentation part      126.4379050 magnetization       5.3037325

 Broyden mixing:
  rms(total) = 0.12739E+01    rms(broyden)= 0.12735E+01
  rms(prec ) = 0.16125E+01
  weight for this iteration     100.00

 eigenvalues of (default mixing * dielectric matrix)
  average eigenvalue GAMMA=   0.5199
  1.3952  1.3952  1.3070  0.5666  0.5666  0.4317  0.3869  0.3869  0.1928  0.1588
  0.1440  0.1206  0.1206  0.1054

 Free energy of the ion-electron system (eV)
  ---------------------------------------------------
  alpha Z        PSCENC =      1179.76727057
  Ewald energy   TEWEN  =    -22508.93400645
  -Hartree energ DENC   =    -10918.49303954
  -exchange      EXHF   =         0.00000000
  -V(xc)+E(xc)   XCENC  =      1544.22587595
  PAW double counting   =     35462.02973384   -36786.46670316
  entropy T*S    EENTRO =        -0.03388937
  eigenvalues    EBANDS =     -1350.41057357
  atomic energy  EATOM  =     33023.84575915
  Solvation  Ediel_sol  =         0.00000000
  ---------------------------------------------------
  free energy    TOTEN  =      -354.46957257 eV

  energy without entropy =     -354.43568320  energy(sigma->0) =     -354.45262789


--------------------------------------------------------------------------------------------------------




--------------------------------------- Iteration      1(  20)  ---------------------------------------


    POTLOK:  cpu time    0.1134: real time    0.1136
    SETDIJ:  cpu time    0.0182: real time    0.0182
     EDDAV:  cpu time    1.6616: real time    1.6656
    CHARGE:  cpu time    0.1155: real time    0.1158
    MIXING:  cpu time    0.0047: real time    0.0047
    --------------------------------------------
      LOOP:  cpu time    1.9134: real time    1.9179

 eigenvalue-minimisations  :  1376
 total energy-change (2. order) :-0.3684749E+00  (-0.2800853E+00)
 number of electron     381.9999972 magnetization       7.1985844
 augmentation part      126.4645252 magnetization       5.0464126

 Broyden mixing:
  rms(total) = 0.15141E+01    rms(broyden)= 0.15138E+01
  rms(prec ) = 0.20108E+01
  weight for this iteration     100.00

 eigenvalues of (default mixing * dielectric matrix)
  average eigenvalue GAMMA=   0.5225
  1.5049  1.5049  1.3505  0.6287  0.6287  0.4472  0.3882  0.3882  0.1951  0.1576
  0.1576  0.1454  0.1184  0.1184  0.1039

 Free energy of the ion-electron system (eV)
  ---------------------------------------------------
  alpha Z        PSCENC =      1179.76727057
  Ewald energy   TEWEN  =    -22508.93400645
  -Hartree energ DENC   =    -10920.84071844
  -exchange      EXHF   =         0.00000000
  -V(xc)+E(xc)   XCENC  =      1544.39130695
  PAW double counting   =     35599.39078356   -36922.88308697
  entropy T*S    EENTRO =        -0.03967618
  eigenvalues    EBANDS =     -1349.53567969
  atomic energy  EATOM  =     33023.84575915
  Solvation  Ediel_sol  =         0.00000000
  ---------------------------------------------------
  free energy    TOTEN  =      -354.83804751 eV

  energy without entropy =     -354.79837133  energy(sigma->0) =     -354.81820942


--------------------------------------------------------------------------------------------------------




--------------------------------------- Iteration      1(  21)  ---------------------------------------


    POTLOK:  cpu time    0.1131: real time    0.1134
    SETDIJ:  cpu time    0.0176: real time    0.0176
     EDDAV:  cpu time    1.6759: real time    1.6800
    CHARGE:  cpu time    0.1090: real time    0.1092
    MIXING:  cpu time    0.0050: real time    0.0050
    --------------------------------------------
      LOOP:  cpu time    1.9206: real time    1.9252

 eigenvalue-minimisations  :  1408
 total energy-change (2. order) : 0.5071783E+00  (-0.2216998E+00)
 number of electron     381.9999971 magnetization       6.8860627
 augmentation part      126.5324382 magnetization       4.7064601

 Broyden mixing:
  rms(total) = 0.84441E+00    rms(broyden)= 0.84394E+00
  rms(prec ) = 0.11668E+01
  weight for this iteration     100.00

 eigenvalues of (default mixing * dielectric matrix)
  average eigenvalue GAMMA=   0.5243
  1.5821  1.5821  1.1892  0.6952  0.6952  0.3945  0.3945  0.4685  0.4152  0.1961
  0.1609  0.1446  0.1251  0.1251  0.1181  0.1031

 Free energy of the ion-electron system (eV)
  ---------------------------------------------------
  alpha Z        PSCENC =      1179.76727057
  Ewald energy   TEWEN  =    -22508.93400645
  -Hartree energ DENC   =    -10924.28116087
  -exchange      EXHF   =         0.00000000
  -V(xc)+E(xc)   XCENC  =      1544.62279520
  PAW double counting   =     35743.60626567   -37066.94984100
  entropy T*S    EENTRO =        -0.05399833
  eigenvalues    EBANDS =     -1345.95395311
  atomic energy  EATOM  =     33023.84575915
  Solvation  Ediel_sol  =         0.00000000
  ---------------------------------------------------
  free energy    TOTEN  =      -354.33086916 eV

  energy without entropy =     -354.27687084  energy(sigma->0) =     -354.30387000


--------------------------------------------------------------------------------------------------------




--------------------------------------- Iteration      1(  22)  ---------------------------------------


    POTLOK:  cpu time    0.1174: real time    0.1177
    SETDIJ:  cpu time    0.0214: real time    0.0214
     EDDAV:  cpu time    1.6742: real time    1.6782
    CHARGE:  cpu time    0.1071: real time    0.1073
    MIXING:  cpu time    0.0050: real time    0.0051
    --------------------------------------------
      LOOP:  cpu time    1.9251: real time    1.9297

 eigenvalue-minimisations  :  1424
 total energy-change (2. order) : 0.3333317E-01  (-0.8984728E-01)
 number of electron     381.9999972 magnetization       6.6467650
 augmentation part      126.4923668 magnetization       4.2192345

 Broyden mixing:
  rms(total) = 0.81383E+00    rms(broyden)= 0.81364E+00
  rms(prec ) = 0.10671E+01
  weight for this iteration     100.00

 eigenvalues of (default mixing * dielectric matrix)
  average eigenvalue GAMMA=   0.5221
  1.5508  1.5508  1.3553  0.7702  0.7702  0.4604  0.4604  0.3982  0.3982  0.2003
  0.1863  0.1637  0.1449  0.1226  0.1204  0.1204  0.1024

 Free energy of the ion-electron system (eV)
  ---------------------------------------------------
  alpha Z        PSCENC =      1179.76727057
  Ewald energy   TEWEN  =    -22508.93400645
  -Hartree energ DENC   =    -10927.05934074
  -exchange      EXHF   =         0.00000000
  -V(xc)+E(xc)   XCENC  =      1544.75008523
  PAW double counting   =     35815.16081747   -37138.53277480
  entropy T*S    EENTRO =        -0.03980934
  eigenvalues    EBANDS =     -1343.25553708
  atomic energy  EATOM  =     33023.84575915
  Solvation  Ediel_sol  =         0.00000000
  ---------------------------------------------------
  free energy    TOTEN  =      -354.29753600 eV

  energy without entropy =     -354.25772666  energy(sigma->0) =     -354.27763133


--------------------------------------------------------------------------------------------------------




--------------------------------------- Iteration      1(  23)  ---------------------------------------


    POTLOK:  cpu time    0.1136: real time    0.1139
    SETDIJ:  cpu time    0.0177: real time    0.0178
     EDDAV:  cpu time    1.6217: real time    1.6256
    CHARGE:  cpu time    0.1184: real time    0.1186
    MIXING:  cpu time    0.0053: real time    0.0053
    --------------------------------------------
      LOOP:  cpu time    1.8767: real time    1.8812

 eigenvalue-minimisations  :  1344
 total energy-change (2. order) : 0.9851406E-01  (-0.5532482E-01)
 number of electron     381.9999972 magnetization       6.5932404
 augmentation part      126.5342572 magnetization       4.4322180

 Broyden mixing:
  rms(total) = 0.66333E+00    rms(broyden)= 0.66318E+00
  rms(prec ) = 0.91534E+00
  weight for this iteration     100.00

 eigenvalues of (default mixing * dielectric matrix)
  average eigenvalue GAMMA=   0.5165
  1.5207  1.5207  1.4118  0.8146  0.8146  0.4842  0.4842  0.3792  0.3792  0.3851
  0.1958  0.1654  0.1454  0.1454  0.1198  0.1198  0.1104  0.1012

 Free energy of the ion-electron system (eV)
  ---------------------------------------------------
  alpha Z        PSCENC =      1179.76727057
  Ewald energy   TEWEN  =    -22508.93400645
  -Hartree energ DENC   =    -10927.36869029
  -exchange      EXHF   =         0.00000000
  -V(xc)+E(xc)   XCENC  =      1544.80119202
  PAW double counting   =     35889.58289286   -37213.24435073
  entropy T*S    EENTRO =        -0.05507728
  eigenvalues    EBANDS =     -1342.59401178
  atomic energy  EATOM  =     33023.84575915
  Solvation  Ediel_sol  =         0.00000000
  ---------------------------------------------------
  free energy    TOTEN  =      -354.19902193 eV

  energy without entropy =     -354.14394465  energy(sigma->0) =     -354.17148329


--------------------------------------------------------------------------------------------------------




--------------------------------------- Iteration      1(  24)  ---------------------------------------


    POTLOK:  cpu time    0.1149: real time    0.1152
    SETDIJ:  cpu time    0.0176: real time    0.0176
     EDDAV:  cpu time    1.6493: real time    1.6533
    CHARGE:  cpu time    0.1064: real time    0.1067
    MIXING:  cpu time    0.0054: real time    0.0055
    --------------------------------------------
      LOOP:  cpu time    1.8937: real time    1.8982

 eigenvalue-minimisations  :  1392
 total energy-change (2. order) : 0.7721891E-02  (-0.1970908E-01)
 number of electron     381.9999972 magnetization       6.5344807
 augmentation part      126.5657169 magnetization       4.3177008

 Broyden mixing:
  rms(total) = 0.55636E+00    rms(broyden)= 0.55629E+00
  rms(prec ) = 0.72788E+00
  weight for this iteration     100.00

 eigenvalues of (default mixing * dielectric matrix)
  average eigenvalue GAMMA=   0.5054
  1.4993  1.4993  1.4095  0.8539  0.8539  0.5144  0.5144  0.3806  0.3806  0.3960
  0.1884  0.1884  0.1600  0.1600  0.1458  0.1214  0.1214  0.1139  0.1017

 Free energy of the ion-electron system (eV)
  ---------------------------------------------------
  alpha Z        PSCENC =      1179.76727057
  Ewald energy   TEWEN  =    -22508.93400645
  -Hartree energ DENC   =    -10926.77418036
  -exchange      EXHF   =         0.00000000
  -V(xc)+E(xc)   XCENC  =      1544.79566906
  PAW double counting   =     35911.65071897   -37235.60788645
  entropy T*S    EENTRO =        -0.05072571
  eigenvalues    EBANDS =     -1342.88391881
  atomic energy  EATOM  =     33023.84575915
  Solvation  Ediel_sol  =         0.00000000
  ---------------------------------------------------
  free energy    TOTEN  =      -354.19130004 eV

  energy without entropy =     -354.14057433  energy(sigma->0) =     -354.16593719


--------------------------------------------------------------------------------------------------------




--------------------------------------- Iteration      1(  25)  ---------------------------------------


    POTLOK:  cpu time    0.1202: real time    0.1205
    SETDIJ:  cpu time    0.0197: real time    0.0198
     EDDAV:  cpu time    1.6544: real time    1.6583
    CHARGE:  cpu time    0.1084: real time    0.1086
    MIXING:  cpu time    0.0057: real time    0.0057
    --------------------------------------------
      LOOP:  cpu time    1.9084: real time    1.9129

 eigenvalue-minimisations  :  1376
 total energy-change (2. order) : 0.2202469E-01  (-0.2760362E-01)
 number of electron     381.9999971 magnetization       6.5377720
 augmentation part      126.5762990 magnetization       4.3720366

 Broyden mixing:
  rms(total) = 0.50318E+00    rms(broyden)= 0.50309E+00
  rms(prec ) = 0.65526E+00
  weight for this iteration     100.00

 eigenvalues of (default mixing * dielectric matrix)
  average eigenvalue GAMMA=   0.4912
  1.4901  1.4901  1.4335  0.8779  0.8779  0.5297  0.5297  0.4127  0.3835  0.3835
  0.1367  0.1942  0.1783  0.1530  0.1487  0.1487  0.1207  0.1207  0.1015  0.1126

 Free energy of the ion-electron system (eV)
  ---------------------------------------------------
  alpha Z        PSCENC =      1179.76727057
  Ewald energy   TEWEN  =    -22508.93400645
  -Hartree energ DENC   =    -10926.67799687
  -exchange      EXHF   =         0.00000000
  -V(xc)+E(xc)   XCENC  =      1544.82026346
  PAW double counting   =     35939.87645004   -37264.15723509
  entropy T*S    EENTRO =        -0.05182870
  eigenvalues    EBANDS =     -1342.65795146
  atomic energy  EATOM  =     33023.84575915
  Solvation  Ediel_sol  =         0.00000000
  ---------------------------------------------------
  free energy    TOTEN  =      -354.16927535 eV

  energy without entropy =     -354.11744665  energy(sigma->0) =     -354.14336100


--------------------------------------------------------------------------------------------------------




--------------------------------------- Iteration      1(  26)  ---------------------------------------


    POTLOK:  cpu time    0.1140: real time    0.1142
    SETDIJ:  cpu time    0.0181: real time    0.0181
     EDDAV:  cpu time    1.6325: real time    1.6364
    CHARGE:  cpu time    0.1136: real time    0.1138
    MIXING:  cpu time    0.0059: real time    0.0059
    --------------------------------------------
      LOOP:  cpu time    1.8840: real time    1.8885

 eigenvalue-minimisations  :  1376
 total energy-change (2. order) : 0.2297531E-02  (-0.1433673E-02)
 number of electron     381.9999971 magnetization       6.4960718
 augmentation part      126.5748099 magnetization       4.3077898

 Broyden mixing:
  rms(total) = 0.49687E+00    rms(broyden)= 0.49686E+00
  rms(prec ) = 0.62468E+00
  weight for this iteration     100.00

 eigenvalues of (default mixing * dielectric matrix)
  average eigenvalue GAMMA=   0.4890
  1.4610  1.4610  1.3975  0.9649  0.9649  0.5607  0.5607  0.4293  0.3858  0.3858
  0.2827  0.2103  0.1986  0.1637  0.1486  0.1486  0.1211  0.1211  0.1141  0.1020
  0.0874

 Free energy of the ion-electron system (eV)
  ---------------------------------------------------
  alpha Z        PSCENC =      1179.76727057
  Ewald energy   TEWEN  =    -22508.93400645
  -Hartree energ DENC   =    -10926.64829284
  -exchange      EXHF   =         0.00000000
  -V(xc)+E(xc)   XCENC  =      1544.82221998
  PAW double counting   =     35940.27890547   -37264.55930335
  entropy T*S    EENTRO =        -0.05118079
  eigenvalues    EBANDS =     -1342.68834955
  atomic energy  EATOM  =     33023.84575915
  Solvation  Ediel_sol  =         0.00000000
  ---------------------------------------------------
  free energy    TOTEN  =      -354.16697782 eV

  energy without entropy =     -354.11579702  energy(sigma->0) =     -354.14138742


--------------------------------------------------------------------------------------------------------




--------------------------------------- Iteration      1(  27)  ---------------------------------------


    POTLOK:  cpu time    0.1129: real time    0.1132
    SETDIJ:  cpu time    0.0186: real time    0.0186
     EDDAV:  cpu time    1.7647: real time    1.7689
    CHARGE:  cpu time    0.1063: real time    0.1065
    MIXING:  cpu time    0.0059: real time    0.0059
    --------------------------------------------
      LOOP:  cpu time    2.0084: real time    2.0132

 eigenvalue-minimisations  :  1472
 total energy-change (2. order) : 0.2124261E-01  (-0.1736784E-02)
 number of electron     381.9999971 magnetization       6.3535948
 augmentation part      126.5811160 magnetization       4.1575503

 Broyden mixing:
  rms(total) = 0.48573E+00    rms(broyden)= 0.48572E+00
  rms(prec ) = 0.59561E+00
[...]
   -.131E+02 -.324E+01 0.182E+01   0.134E+02 0.330E+01 -.170E+01   -.241E+00 -.631E-01 -.102E+00   -.755E-02 -.203E-02 -.156E-01
   0.119E+02 -.865E-01 -.110E+02   -.132E+02 0.925E-01 0.111E+02   0.129E+01 -.145E-01 -.735E-01   -.377E-02 0.247E-02 0.120E-01
   -.119E+02 -.865E-01 0.110E+02   0.132E+02 0.925E-01 -.111E+02   -.129E+01 -.145E-01 0.735E-01   0.377E-02 0.247E-02 -.120E-01
   -.470E-07 0.271E+02 0.734E-08   0.853E-13 -.274E+02 -.121E-12   -.827E-24 0.256E+00 -.240E-23   -.118E-10 0.131E-01 0.456E-11
   -.289E+02 -.460E+00 0.478E+02   0.295E+02 0.452E+00 -.487E+02   -.666E+00 -.151E-02 0.942E+00   0.488E-01 0.120E-01 0.186E-01
   0.289E+02 -.460E+00 -.478E+02   -.295E+02 0.452E+00 0.487E+02   0.666E+00 -.151E-02 -.942E+00   -.488E-01 0.120E-01 -.186E-01
   0.128E+02 0.516E+00 -.116E+03   -.129E+02 -.526E+00 0.117E+03   0.198E+00 0.203E-01 -.154E+01   -.514E-01 -.124E-01 -.153E-01
   -.128E+02 0.516E+00 0.116E+03   0.129E+02 -.526E+00 -.117E+03   -.198E+00 0.203E-01 0.154E+01   0.514E-01 -.124E-01 0.153E-01
   0.134E-05 -.271E+02 -.210E-06   0.284E-12 0.274E+02 0.000E+00   0.000E+00 -.267E+00 -.315E-23   -.132E-11 -.137E-01 0.658E-11
   0.127E-05 0.984E+00 -.288E-06   0.135E-12 -.860E+00 -.746E-13   0.496E-23 -.130E+00 -.877E-23   0.834E-11 0.694E-02 0.420E-11
   0.257E-05 -.902E+00 -.581E-06   0.192E-12 0.779E+00 0.178E-13   0.000E+00 0.129E+00 -.245E-22   -.317E-11 -.632E-02 0.890E-12
   0.106E-05 0.387E+01 -.195E-06   -.127E-10 -.379E+01 0.123E-12   -.265E-22 -.876E-01 0.114E-23   -.346E-11 0.816E-02 -.244E-11
   -.593E+02 -.300E+00 0.615E+02   0.606E+02 0.338E+00 -.620E+02   -.128E+01 -.514E-01 0.507E+00   -.194E-01 0.133E-01 -.689E-02
   0.593E+02 -.300E+00 -.615E+02   -.606E+02 0.338E+00 0.620E+02   0.128E+01 -.514E-01 -.507E+00   0.194E-01 0.133E-01 0.689E-02
   0.738E+02 0.168E+00 -.253E+02   -.750E+02 -.179E+00 0.259E+02   0.117E+01 0.216E-01 -.586E+00   0.178E-01 -.114E-01 0.756E-02
   -.738E+02 0.168E+00 0.253E+02   0.750E+02 -.179E+00 -.259E+02   -.117E+01 0.216E-01 0.586E+00   -.178E-01 -.114E-01 -.756E-02
   0.152E-05 -.404E+01 -.279E-06   -.127E-10 0.395E+01 0.118E-12   -.132E-22 0.101E+00 -.300E-23   -.151E-11 -.781E-02 -.161E-11
   -.804E-05 0.244E+02 0.169E-05   -.129E-10 -.246E+02 -.441E-12   0.000E+00 0.140E+00 -.168E-22   0.166E-10 0.335E-02 -.278E-11
   0.128E-04 -.247E+02 -.269E-05   -.129E-10 0.249E+02 -.249E-12   0.000E+00 -.129E+00 0.600E-23   0.366E-12 -.387E-02 -.300E-11
   -.437E+02 0.263E+01 0.325E+03   0.431E+02 -.295E+01 -.341E+03   0.608E+00 0.316E+00 0.155E+02   0.133E-01 0.655E-02 0.123E-01
   0.437E+02 0.263E+01 -.325E+03   -.431E+02 -.295E+01 0.341E+03   -.608E+00 0.316E+00 -.155E+02   -.133E-01 0.655E-02 -.123E-01
   -.394E+02 0.326E+01 -.280E+03   0.424E+02 -.388E+01 0.295E+03   -.300E+01 0.610E+00 -.144E+02   0.143E-01 0.536E-02 0.141E-01
   0.394E+02 0.326E+01 0.280E+03   -.424E+02 -.388E+01 -.295E+03   0.300E+01 0.610E+00 0.144E+02   -.143E-01 0.536E-02 -.141E-01
   0.337E+02 0.417E-01 0.349E+03   -.389E+02 0.666E-03 -.367E+03   0.523E+01 -.495E-01 0.178E+02   -.232E-01 0.744E-02 0.742E-02
   -.337E+02 0.417E-01 -.349E+03   0.389E+02 0.666E-03 0.367E+03   -.523E+01 -.495E-01 -.178E+02   0.232E-01 0.744E-02 -.742E-02
   -.699E+00 0.372E-01 -.378E+03   0.211E+01 -.153E-01 0.403E+03   -.143E+01 -.139E-01 -.248E+02   0.210E-01 -.780E-02 -.432E-02
   0.699E+00 0.372E-01 0.378E+03   -.211E+01 -.153E-01 -.403E+03   0.143E+01 -.139E-01 0.248E+02   -.210E-01 -.780E-02 0.432E-02
   0.120E+02 -.651E+00 -.304E+03   -.110E+02 0.607E+00 0.317E+03   -.104E+01 0.250E-01 -.124E+02   0.246E-01 0.197E-01 0.412E-01
   -.120E+02 -.651E+00 0.304E+03   0.110E+02 0.607E+00 -.317E+03   0.104E+01 0.250E-01 0.124E+02   -.246E-01 0.197E-01 -.412E-01
   -.347E+02 0.512E+00 0.307E+03   0.355E+02 -.496E+00 -.320E+03   -.766E+00 0.143E-02 0.139E+02   -.247E-01 -.197E-01 -.418E-01
   0.347E+02 0.512E+00 -.307E+03   -.355E+02 -.496E+00 0.320E+03   0.766E+00 0.143E-02 -.139E+02   0.247E-01 -.197E-01 0.418E-01
   -.417E+02 -.309E+01 0.325E+03   0.408E+02 0.348E+01 -.340E+03   0.900E+00 -.385E+00 0.149E+02   -.686E-02 -.659E-02 0.259E-01
   0.417E+02 -.309E+01 -.325E+03   -.408E+02 0.348E+01 0.340E+03   -.900E+00 -.385E+00 -.149E+02   0.686E-02 -.659E-02 -.259E-01
   -.372E+02 -.265E+01 -.281E+03   0.403E+02 0.314E+01 0.295E+03   -.304E+01 -.484E+00 -.146E+02   0.162E-01 -.602E-02 0.117E-01
   0.372E+02 -.265E+01 0.281E+03   -.403E+02 0.314E+01 -.295E+03   0.304E+01 -.484E+00 0.146E+02   -.162E-01 -.602E-02 -.117E-01
   0.734E+02 0.220E+02 0.319E+03   -.780E+02 -.230E+02 -.336E+03   0.465E+01 0.105E+01 0.174E+02   0.233E-01 0.693E-02 0.260E-01
   -.734E+02 0.220E+02 -.319E+03   0.780E+02 -.230E+02 0.336E+03   -.465E+01 0.105E+01 -.174E+02   -.233E-01 0.693E-02 -.260E-01
   0.203E+02 0.326E+02 -.372E+03   -.199E+02 -.349E+02 0.392E+03   -.444E+00 0.234E+01 -.205E+02   -.411E-01 0.735E-02 0.257E-01
   -.203E+02 0.326E+02 0.372E+03   0.199E+02 -.349E+02 -.392E+03   0.444E+00 0.234E+01 0.205E+02   0.411E-01 0.735E-02 -.257E-01
   0.250E+02 -.310E+01 0.303E+03   -.272E+02 0.347E+01 -.317E+03   0.217E+01 -.391E+00 0.136E+02   -.211E-02 0.243E-01 0.200E-01
   -.250E+02 -.310E+01 -.303E+03   0.272E+02 0.347E+01 0.317E+03   -.217E+01 -.391E+00 -.136E+02   0.211E-02 0.243E-01 -.200E-01
   -.219E+02 0.300E+01 -.303E+03   0.229E+02 -.333E+01 0.316E+03   -.103E+01 0.356E+00 -.134E+02   -.150E-02 -.239E-01 -.182E-01
   0.219E+02 0.300E+01 0.303E+03   -.229E+02 -.333E+01 -.316E+03   0.103E+01 0.356E+00 0.134E+02   0.150E-02 -.239E-01 0.182E-01
   -.752E+02 0.262E+00 -.347E+03   0.821E+02 -.224E+00 0.366E+03   -.695E+01 -.446E-01 -.185E+02   -.721E-02 0.744E-02 0.659E-02
   0.752E+02 0.262E+00 0.347E+03   -.821E+02 -.224E+00 -.366E+03   0.695E+01 -.446E-01 0.185E+02   0.721E-02 0.744E-02 -.659E-02
   0.758E+02 -.249E+00 0.351E+03   -.816E+02 0.212E+00 -.371E+03   0.586E+01 0.443E-01 0.192E+02   0.106E-01 -.762E-02 -.956E-02
   -.758E+02 -.249E+00 -.351E+03   0.816E+02 0.212E+00 0.371E+03   -.586E+01 0.443E-01 -.192E+02   -.106E-01 -.762E-02 0.956E-02
   0.720E+02 -.212E+02 0.319E+03   -.766E+02 0.220E+02 -.337E+03   0.456E+01 -.773E+00 0.179E+02   0.212E-01 -.722E-02 0.284E-01
   -.720E+02 -.212E+02 -.319E+03   0.766E+02 0.220E+02 0.337E+03   -.456E+01 -.773E+00 -.179E+02   -.212E-01 -.722E-02 -.284E-01
   0.200E+02 -.332E+02 -.372E+03   -.195E+02 0.358E+02 0.392E+03   -.504E+00 -.256E+01 -.200E+02   -.249E-01 -.602E-02 0.146E-01
   -.200E+02 -.332E+02 0.372E+03   0.195E+02 0.358E+02 -.392E+03   0.504E+00 -.256E+01 0.200E+02   0.249E-01 -.602E-02 -.146E-01
 -----------------------------------------------------------------------------------------------
   0.212E-04 -.353E-01 -.495E-05   0.746E-13 0.128E-12 0.284E-12   0.000E+00 0.258E-01 -.355E-14   0.199E-10 0.756E-02 0.723E-11
 
 
 POSITION                                       TOTAL-FORCE (eV/Angst)
 -----------------------------------------------------------------------------------
      1.46164      5.55762      2.41096         0.005427      0.000631      0.002399
      4.75612      5.55762      7.17643        -0.005427      0.000631     -0.002399
      4.33841      1.39613      2.36257         0.012380      0.001173     -0.003098
      1.87934      1.39613      7.22481        -0.012380      0.001173      0.003098
      1.83809      4.17765      7.23340        -0.018447      0.001850      0.003207
      4.37966      4.17765      2.35398         0.018447      0.001850     -0.003207
      1.45423      2.80689      2.40567        -0.006600     -0.000243      0.003188
      4.76352      2.80689      7.18171         0.006600     -0.000243     -0.003188
      8.59333      1.39325      2.34538        -0.018876     -0.006044     -0.001855
     -2.37558      1.39325      7.24200         0.018876     -0.006044      0.001855
     -0.00000      5.57210     -0.00000         0.000000     -0.006847     -0.000000
      2.48300      1.39395      0.06968        -0.000514      0.002071      0.005449
      3.73475      1.39395      9.51770         0.000514      0.002071     -0.005449
      3.73590      4.18146      9.57158         0.002353     -0.001684     -0.005865
      2.48185      4.18146      0.01580        -0.002353     -0.001684      0.005865
     -0.00000      2.78720     -0.00000         0.000000      0.004918     -0.000000
      4.95591      5.57328     -0.01411         0.000000      0.001368     -0.000000
      4.95591      2.78838     -0.01411         0.000000     -0.000444     -0.000000
      3.10888      5.57304      4.79369         0.000000     -0.006616     -0.000000
      5.59223      1.39373      4.75420         0.003733      0.000353      0.002411
      0.62552      1.39373      4.83318        -0.003733      0.000353     -0.002411
      0.61067      4.17968      4.80317        -0.000282     -0.000291     -0.001355
      5.60708      4.17968      4.78421         0.000282     -0.000291      0.001355
      3.10888      2.78736      4.79369         0.000000      0.004648     -0.000000
     -1.84703      5.56352      4.80780         0.000000      0.008496     -0.000000
     -1.84703      2.80055      4.80780        -0.000000     -0.005831     -0.000000
      4.80120      5.56139      3.81523        -0.000223      0.000912     -0.002085
      1.41655      5.56139      5.77215         0.000223      0.000912      0.002085
      3.19160      5.55908      1.07457         0.006355     -0.000477      0.009326
      3.02615      5.55908      8.51282        -0.006355     -0.000477     -0.009326
      7.33698      1.39517      3.81906        -0.005411      0.000269      0.001718
     -1.11923      1.39517      5.76832         0.005411      0.000269     -0.001718
     -1.07250      4.18360      5.73652         0.006046      0.000197      0.001553
      7.29025      4.18360      3.85087        -0.006046      0.000197     -0.001553
      0.68247      1.39313      1.06643         0.003387      0.001215      0.003405
      5.53528      1.39313      8.52096        -0.003387      0.001215     -0.003405
      5.45129      4.17991      8.58869         0.000098     -0.002235     -0.002979
      0.76646      4.17991      0.99869        -0.000098     -0.002235      0.002979
      4.80993      2.79579      3.80619        -0.000734      0.001115      0.000024
      1.40782      2.79579      5.78119         0.000734      0.001115     -0.000024
      3.20035      2.80520      1.06476         0.005986      0.000065      0.008835
      3.01740      2.80520      8.52262        -0.005986      0.000065     -0.008835
     -0.09637      0.02758      3.81971        -0.004324      0.001316      0.001855
      6.31413      0.02758      5.76768         0.004324      0.001316     -0.001855
      8.21305      0.02981      0.86476         0.000459      0.000043     -0.006218
     -1.99530      0.02981      8.72262        -0.000459      0.000043      0.006218
      2.38350      1.38938      3.76973        -0.008382      0.001678      0.001771
      3.83425      1.38938      5.81765         0.008382      0.001678     -0.001771
      3.87165      4.18483      5.79913         0.008714     -0.002525     -0.004302
      2.34610      4.18483      3.78825        -0.008714     -0.002525      0.004302
      5.71064      1.39380      0.92636         0.008754      0.001079     -0.002282
      0.50711      1.39380      8.66102        -0.008754      0.001079      0.002282
      0.48927      4.18212      8.66774        -0.008542     -0.000072      0.002631
      5.72848      4.18212      0.91964         0.008542     -0.000072     -0.002631
     -0.09993      2.76358      3.82826        -0.005474      0.000599      0.000986
      6.31768      2.76358      5.75912         0.005474      0.000599     -0.000986
      8.21115      2.75611      0.86688         0.002021     -0.000841     -0.007585
     -1.99340      2.75611      8.72050        -0.002021     -0.000841      0.007585
 -----------------------------------------------------------------------------------
    total drift:                                0.000021     -0.001956     -0.000005


--------------------------------------------------------------------------------------------------------



  FREE ENERGIE OF THE ION-ELECTRON SYSTEM (eV)
  ---------------------------------------------------
  free  energy   TOTEN  =      -354.2501231441 eV

  energy  without entropy=     -354.2331282804  energy(sigma->0) =     -354.24162571
 
 d Force = 0.1765902E-03[ 0.168E-03, 0.185E-03]  d Energy = 0.2106699E-03-0.341E-04
 d Force =-0.6975174E+00[-0.698E+00,-0.698E+00]  d Ewald  =-0.8263979E+00 0.129E+00


--------------------------------------------------------------------------------------------------------


    POTLOK:  cpu time    0.1420: real time    0.1423


--------------------------------------------------------------------------------------------------------


 Quasi-Newton relaxation of ions (Broydens 2nd method)
  g(Force)  = 0.201E-03   g(Stress)= 0.891E-04

 retain information from N=  2 steps
 eigenvalues of (default step * inverse Hessian matrix)
  average eigenvalue of G=   2.8450
 eigenvalue spectrum of G is  0.2037  5.4862


--------------------------------------------------------------------------------------------------------


  
 reached required accuracy - stopping structural energy minimisation
     LOOP+:  cpu time   13.3309: real time   20.5090
    4ORBIT:  cpu time    0.0000: real time    0.0000

volume of typ            1:    14.7 %

volume of typ            2:    19.2 %

volume of typ            3:     9.8 %
 
total charge     
 
# of ion       s       p       d       tot
------------------------------------------
    1        2.075   0.243   0.087   2.405
    2        2.075   0.243   0.087   2.405
    3        2.074   0.235   0.087   2.396
    4        2.074   0.235   0.087   2.396
    5        2.077   0.242   0.089   2.408
    6        2.077   0.242   0.089   2.408
    7        2.076   0.234   0.086   2.396
    8        2.076   0.234   0.086   2.396
    9        2.073   0.230   0.085   2.388
   10        2.073   0.230   0.085   2.388
   11        0.279   0.383   7.853   8.515
   12        0.277   0.374   7.862   8.512
   13        0.277   0.374   7.862   8.512
   14        0.275   0.375   7.843   8.493
   15        0.275   0.375   7.843   8.493
   16        0.278   0.382   7.853   8.513
   17        0.280   0.379   7.873   8.532
   18        0.279   0.380   7.875   8.533
   19        0.276   0.377   7.863   8.516
   20        0.278   0.376   7.859   8.512
   21        0.278   0.376   7.859   8.512
   22        0.279   0.378   7.851   8.508
   23        0.279   0.378   7.851   8.508
   24        0.271   0.367   7.864   8.502
   25        0.283   0.390   7.849   8.523
   26        0.283   0.390   7.849   8.522
   27        1.258   2.792   0.007   4.057
   28        1.258   2.792   0.007   4.057
   29        1.259   2.784   0.006   4.049
   30        1.259   2.784   0.006   4.049
   31        1.267   2.776   0.007   4.050
   32        1.267   2.776   0.007   4.050
   33        1.279   2.737   0.008   4.024
   34        1.279   2.737   0.008   4.024
   35        1.262   2.785   0.006   4.052
   36        1.262   2.785   0.006   4.052
   37        1.264   2.780   0.006   4.051
   38        1.264   2.780   0.006   4.051
   39        1.258   2.794   0.006   4.058
   40        1.258   2.794   0.006   4.058
   41        1.259   2.784   0.006   4.049
   42        1.259   2.784   0.006   4.049
   43        1.267   2.767   0.007   4.040
   44        1.267   2.767   0.007   4.040
   45        1.268   2.767   0.008   4.042
   46        1.268   2.767   0.008   4.042
   47        1.262   2.781   0.006   4.049
   48        1.262   2.781   0.006   4.049
   49        1.262   2.783   0.006   4.051
   50        1.262   2.783   0.006   4.051
   51        1.266   2.774   0.007   4.047
   52        1.266   2.774   0.007   4.047
   53        1.265   2.777   0.007   4.050
   54        1.265   2.777   0.007   4.050
   55        1.266   2.768   0.007   4.040
   56        1.266   2.768   0.007   4.040
   57        1.268   2.767   0.007   4.043
   58        1.268   2.767   0.007   4.043
--------------------------------------------------
tot          65.65   97.25  126.79  289.69
 
magnetization (x)
 
# of ion       s       p       d       tot
------------------------------------------
    1        0.005   0.017  -0.000   0.022
    2        0.005   0.017  -0.000   0.022
    3        0.005   0.008   0.000   0.013
    4        0.005   0.008   0.000   0.013
    5        0.004   0.006  -0.000   0.010
    6        0.004   0.006  -0.000   0.010
    7       -0.000   0.008  -0.000   0.007
    8       -0.000   0.008  -0.000   0.007
    9        0.005   0.008   0.001   0.014
   10        0.005   0.008   0.001   0.014
   11       -0.000  -0.000   0.369   0.369
   12        0.002   0.000   0.508   0.510
   13        0.002   0.000   0.508   0.510
   14       -0.000  -0.000   0.349   0.349
   15       -0.000  -0.000   0.349   0.349
   16       -0.000  -0.000   0.418   0.418
   17        0.006  -0.000   0.569   0.575
   18        0.005  -0.000   0.532   0.537
   19       -0.001  -0.000  -0.163  -0.164
   20        0.002   0.000   0.538   0.540
   21        0.002   0.000   0.538   0.540
   22        0.000   0.000   0.335   0.335
   23        0.000   0.000   0.335   0.335
   24        0.000  -0.000   0.557   0.557
   25        0.003   0.000   0.387   0.390
   26       -0.004  -0.000  -0.399  -0.403
   27       -0.000  -0.022  -0.000  -0.022
   28       -0.000  -0.022  -0.000  -0.022
   29        0.008   0.071   0.000   0.079
   30        0.008   0.071   0.000   0.079
   31        0.006   0.061   0.000   0.067
   32        0.006   0.061   0.000   0.067
   33        0.003   0.039   0.000   0.041
   34        0.003   0.039   0.000   0.041
   35        0.012   0.071   0.000   0.083
   36        0.012   0.071   0.000   0.083
   37        0.011   0.059   0.000   0.070
   38        0.011   0.059   0.000   0.070
   39        0.007   0.045   0.000   0.052
   40        0.007   0.045   0.000   0.052
   41        0.007   0.061   0.000   0.069
   42        0.007   0.061   0.000   0.069
   43        0.008   0.052   0.000   0.060
   44        0.008   0.052   0.000   0.060
   45        0.004   0.015   0.000   0.019
   46        0.004   0.015   0.000   0.019
   47        0.009   0.064   0.000   0.073
   48        0.009   0.064   0.000   0.073
   49        0.007   0.032   0.000   0.039
   50        0.007   0.032   0.000   0.039
   51        0.007   0.069   0.000   0.076
   52        0.007   0.069   0.000   0.076
   53        0.004   0.037   0.000   0.041
   54        0.004   0.037   0.000   0.041
   55       -0.002  -0.027  -0.000  -0.029
   56       -0.002  -0.027  -0.000  -0.029
   57        0.005   0.024   0.000   0.030
   58        0.005   0.024   0.000   0.030
--------------------------------------------------
tot           0.24    1.40    5.74    7.38
 

 total amount of memory used by VASP MPI-rank0    93554. kBytes
=======================================================================

   base      :      30000. kBytes
   nonlr-proj:      21740. kBytes
   fftplans  :       5544. kBytes
   grid      :      31764. kBytes
   one-center:        902. kBytes
   wavefun   :       3604. kBytes
 
  
  
 General timing and accounting informations for this job:
 ========================================================
  
                  Total CPU time used (sec):      545.663
                            User time (sec):      541.266
                          System time (sec):        4.397
                         Elapsed time (sec):      562.148
  
                   Maximum memory used (kb):      146644.
                   Average memory used (kb):           0.
  
                          Minor page faults:        39105
                          Major page faults:           54
                 Voluntary context switches:         1686
