 vasp.5.4.4.18Apr17-6-g9f103f2a35 (build May 12 2020 05:39:39) gamma-only       
  
 MD_VERSION_INFO: Compiled 2020-05-12T12:39:39-UTC in devlin.sd.materialsdesign.
 com:/home/medea2/data/build/wwolf/vasp-gpu5.4.4/13047/x86_64/src/src/build/gam 
 from svn 13047
 
 This VASP executable licensed from Materials Design, Inc.
 
 executed on                        Lin64 date 2023.03.07  02:18:53
 running on   16 total cores
 distrk:  each k-point on   16 cores,    1 groups
 distr:  one band on NCORES_PER_BAND=   1 cores,   16 groups


--------------------------------------------------------------------------------------------------------


 INCAR:
 POTCAR:    PAW_PBE Li_sv 10Sep2004               
 POTCAR:    PAW_PBE Ni 02Aug2007                  
 POTCAR:    PAW_PBE O 08Apr2002                   

 ----------------------------------------------------------------------------- 
|                                                                             |
|           W    W    AA    RRRRR   N    N  II  N    N   GGGG   !!!           |
|           W    W   A  A   R    R  NN   N  II  NN   N  G    G  !!!           |
|           W    W  A    A  R    R  N N  N  II  N N  N  G       !!!           |
|           W WW W  AAAAAA  RRRRR   N  N N  II  N  N N  G  GGG   !            |
|           WW  WW  A    A  R   R   N   NN  II  N   NN  G    G                |
|           W    W  A    A  R    R  N    N  II  N    N   GGGG   !!!           |
|                                                                             |
|      For optimal performance we recommend to set                            |
|        NCORE= 4 - approx SQRT( number of cores)                             |
|      NCORE specifies how many cores store one orbital (NPAR=cpu/NCORE).     |
|      This setting can  greatly improve the performance of VASP for DFT.     |
|      The default,   NCORE=1            might be grossly inefficient         |
|      on modern multi-core architectures or massively parallel machines.     |
|      Do your own testing !!!!                                               |
|      Unfortunately you need to use the default for GW and RPA calculations. |
|      (for HF NCORE is supported but not extensively tested yet)             |
|                                                                             |
 ----------------------------------------------------------------------------- 

 POTCAR:    PAW_PBE Li_sv 10Sep2004               
  local pseudopotential read in
  atomic valenz-charges read in
  non local Contribution for L=           0  read in
    real space projection operators read in
  non local Contribution for L=           0  read in
    real space projection operators read in
  non local Contribution for L=           1  read in
    real space projection operators read in
    PAW grid and wavefunctions read in
 
   number of l-projection  operators is LMAX  =           3
   number of lm-projection operators is LMMAX =           5
 
 POTCAR:    PAW_PBE Ni 02Aug2007                  
  local pseudopotential read in
  partial core-charges read in
  partial kinetic energy density read in
  atomic valenz-charges read in
  non local Contribution for L=           2  read in
    real space projection operators read in
  non local Contribution for L=           2  read in
    real space projection operators read in
  non local Contribution for L=           0  read in
    real space projection operators read in
  non local Contribution for L=           0  read in
    real space projection operators read in
  non local Contribution for L=           1  read in
    real space projection operators read in
  non local Contribution for L=           1  read in
    real space projection operators read in
    PAW grid and wavefunctions read in
 
   number of l-projection  operators is LMAX  =           6
   number of lm-projection operators is LMMAX =          18
 
 POTCAR:    PAW_PBE O 08Apr2002                   
  local pseudopotential read in
  partial core-charges read in
  partial kinetic energy density read in
  kinetic energy density of atom read in
  atomic valenz-charges read in
  non local Contribution for L=           0  read in
    real space projection operators read in
  non local Contribution for L=           0  read in
    real space projection operators read in
  non local Contribution for L=           1  read in
    real space projection operators read in
  non local Contribution for L=           1  read in
    real space projection operators read in
    PAW grid and wavefunctions read in
 
   number of l-projection  operators is LMAX  =           4
   number of lm-projection operators is LMMAX =           8
 
 Optimization of the real space projectors (new method)

 maximal supplied QI-value         = 22.11
 optimisation between [QCUT,QGAM] = [ 11.28, 22.77] = [ 35.61,145.23] Ry 
 Optimized for a Real-space Cutoff    1.10 Angstroem

   l    n(q)    QCUT    max X(q) W(low)/X(q) W(high)/X(q)  e(spline) 
   0      7    11.276    10.506    0.54E-04    0.58E-04    0.16E-07
   0      7    11.276     8.367    0.11E-03    0.14E-03    0.35E-07
   1      7    11.276     8.983    0.23E-03    0.43E-03    0.86E-07
 Optimization of the real space projectors (new method)

 maximal supplied QI-value         = 16.25
 optimisation between [QCUT,QGAM] = [ 11.38, 22.75] = [ 36.24,144.96] Ry 
 Optimized for a Real-space Cutoff    1.47 Angstroem

   l    n(q)    QCUT    max X(q) W(low)/X(q) W(high)/X(q)  e(spline) 
   2      9    11.376    60.317    0.17E-03    0.16E-04    0.16E-06
   2      9    11.376    55.921    0.17E-03    0.16E-04    0.17E-06
   0     10    11.376    51.690    0.45E-04    0.60E-04    0.21E-06
   0     10    11.376    30.015    0.37E-04    0.55E-04    0.19E-06
   1     10    11.376    18.849    0.83E-04    0.11E-03    0.92E-07
   1     10    11.376    14.624    0.69E-04    0.92E-04    0.82E-07
 Optimization of the real space projectors (new method)

 maximal supplied QI-value         = 24.76
 optimisation between [QCUT,QGAM] = [ 11.39, 22.77] = [ 36.31,145.25] Ry 
 Optimized for a Real-space Cutoff    1.10 Angstroem

   l    n(q)    QCUT    max X(q) W(low)/X(q) W(high)/X(q)  e(spline) 
   0      7    11.387    20.381    0.22E-03    0.48E-03    0.18E-06
   0      7    11.387    15.268    0.22E-03    0.52E-03    0.19E-06
   1      7    11.387     5.964    0.22E-03    0.73E-03    0.24E-06
   1      7    11.387     5.382    0.19E-03    0.60E-03    0.21E-06

 ----------------------------------------------------------------------------- 
|                                                                             |
|  ADVICE TO THIS USER RUNNING 'VASP/VAMP'   (HEAR YOUR MASTER'S VOICE ...):  |
|                                                                             |
|      You enforced a specific xc-type in the INCAR file,                     |
|      a different type was found on the POTCAR file                          |
|          I HOPE YOU KNOW, WHAT YOU ARE  DOING                               |
|                                                                             |
 ----------------------------------------------------------------------------- 

  PAW_PBE Li_sv 10Sep2004               :
 energy of atom  1       EATOM= -202.7858
 kinetic energy error for atom=    0.0143 (will be added to EATOM!!)
  PAW_PBE Ni 02Aug2007                  :
 energy of atom  2       EATOM=-1077.6739
 kinetic energy error for atom=    0.0030 (will be added to EATOM!!)
  PAW_PBE O 08Apr2002                   :
 energy of atom  3       EATOM= -432.3788
 kinetic energy error for atom=    0.0224 (will be added to EATOM!!)
 
 
 POSCAR: ce17152_1                               
  positions in direct lattice
  No initial velocities read in
 exchange correlation table for  LEXCH =       14
   RHO(1)=    0.500       N(1)  =     2000
   RHO(2)=  100.500       N(2)  =     4000
 


--------------------------------------------------------------------------------------------------------


 ion  position               nearest neighbor table
   1  0.250  0.250  0.500-  44 2.16  40 2.17  20 2.17  32 2.17  22 2.17  34 2.17
   2  0.252  0.250  1.000-  28 2.14  24 2.15  50 2.16  48 2.16  38 2.17  36 2.17
   3  0.252  0.750  0.000-  25 2.11  29 2.11  51 2.16  49 2.16  39 2.17  37 2.18
   4  0.999  1.000  1.000-  31 1.83  30 1.84  29 1.85  28 1.86  38 1.89  39 1.89   9 2.76   7 2.80
                             9 2.80   8 2.80   5 2.81   6 2.81
   5  0.250  0.000  0.250-  22 1.84  34 1.84  51 1.84  39 1.84  45 1.90  28 1.94   8 2.78   8 2.78
                            11 2.80  10 2.80   9 2.81   4 2.81
   6  0.250  0.995  0.748-  23 1.84  35 1.84  50 1.85  38 1.85  44 1.95  29 1.96   7 2.78   7 2.78
                            11 2.80  10 2.80   9 2.81   4 2.81
   7  0.750  0.999  0.749-  35 1.84  23 1.84  50 1.87  38 1.87  47 1.89  30 1.90   6 2.78   6 2.78
                             9 2.80   4 2.80  11 2.80  10 2.80
   8  0.750  1.000  0.250-  51 1.86  39 1.86  22 1.86  34 1.86  46 1.92  31 1.93   5 2.78   5 2.78
                            11 2.79  10 2.79   9 2.80   4 2.80
   9  0.502  1.000  1.000-  31 1.83  30 1.84  29 1.85  28 1.85  50 1.89  51 1.89   4 2.76   7 2.80
                             4 2.80   8 2.80   5 2.81   6 2.81
  10  0.999  0.994  0.498-  46 1.83  47 1.84  44 1.85  45 1.85  23 1.89  22 1.90  11 2.77  11 2.79
                             8 2.79   7 2.80   5 2.80   6 2.80
  11  0.501  0.995  0.498-  46 1.83  47 1.84  44 1.85  45 1.85  35 1.89  34 1.90  10 2.77  10 2.79
                             8 2.79   7 2.80   5 2.80   6 2.80
  12  0.999  0.506  0.502-  42 1.83  43 1.84  40 1.84  41 1.85  21 1.89  20 1.90  17 2.77  17 2.79
                            16 2.79  13 2.80  15 2.80  14 2.80
  13  0.250  0.500  0.750-  20 1.84  32 1.84  37 1.84  49 1.85  41 1.89  24 1.94  16 2.78  16 2.78
                            17 2.80  12 2.80  18 2.81  19 2.81
  14  0.250  0.505  0.252-  33 1.84  21 1.84  36 1.85  48 1.85  40 1.95  25 1.96  15 2.78  15 2.78
                            17 2.80  12 2.80  18 2.81  19 2.81
  15  0.750  0.501  0.250-  21 1.84  33 1.84  36 1.87  48 1.87  43 1.89  26 1.90  14 2.78  14 2.78
                            19 2.79  18 2.79  12 2.80  17 2.80
  16  0.750  0.500  0.750-  37 1.86  49 1.86  20 1.86  32 1.86  42 1.92  27 1.94  13 2.78  13 2.78
                            12 2.79  17 2.79  18 2.80  19 2.80
  17  0.501  0.506  0.502-  42 1.83  43 1.84  40 1.84  41 1.85  33 1.89  32 1.90  12 2.77  12 2.79
                            16 2.79  13 2.80  15 2.80  14 2.80
  18  0.999  0.500  0.000-  27 1.83  26 1.84  25 1.85  24 1.85  36 1.89  37 1.89  19 2.76  15 2.79
                            19 2.80  16 2.80  14 2.81  13 2.81
  19  0.502  0.500  0.000-  27 1.83  26 1.84  25 1.85  24 1.85  48 1.89  49 1.89  18 2.76  15 2.79
                            18 2.80  16 2.80  14 2.81  13 2.81
  20  0.002  0.403  0.634-  13 1.84  16 1.86  12 1.90   1 2.17
  21  0.998  0.600  0.364-  14 1.84  15 1.84  12 1.89
  22  0.002  0.096  0.365-   5 1.84   8 1.86  10 1.90   1 2.17
  23  0.998  0.900  0.636-   6 1.84   7 1.84  10 1.89
  24  0.250  0.400  0.889-  18 1.85  19 1.85  13 1.94   2 2.15
  25  0.250  0.602  0.109-  18 1.85  19 1.85  14 1.96   3 2.11
  26  0.750  0.598  0.113-  19 1.84  18 1.84  15 1.90
  27  0.750  0.402  0.889-  19 1.83  18 1.83  16 1.94
  28  0.250  0.100  0.111-   9 1.85   4 1.86   5 1.94   2 2.14
  29  0.250  0.898  0.891-   9 1.85   4 1.85   6 1.96   3 2.11
  30  0.750  0.902  0.887-   4 1.84   9 1.84   7 1.90
  31  0.750  0.098  0.111-   4 1.83   9 1.83   8 1.93
  32  0.498  0.403  0.634-  13 1.84  16 1.86  17 1.90   1 2.17
  33  0.503  0.600  0.364-  14 1.84  15 1.84  17 1.89
  34  0.498  0.096  0.366-   5 1.84   8 1.86  11 1.90   1 2.17
  35  0.503  0.900  0.635-   6 1.84   7 1.84  11 1.89
  36  0.005  0.404  0.136-  14 1.85  15 1.87  18 1.89   2 2.17
  37  0.002  0.597  0.865-  13 1.84  16 1.86  18 1.89   3 2.18
  38  0.005  0.095  0.864-   6 1.85   7 1.87   4 1.89   2 2.17
  39  0.002  0.903  0.135-   5 1.84   8 1.86   4 1.89   3 2.17
  40  0.250  0.405  0.393-  12 1.84  17 1.84  14 1.95   1 2.17
  41  0.250  0.601  0.618-  12 1.85  17 1.85  13 1.89
  42  0.750  0.602  0.615-  17 1.83  12 1.83  16 1.92
  43  0.750  0.408  0.389-  17 1.84  12 1.84  15 1.89
  44  0.250  0.095  0.607-  10 1.85  11 1.85   6 1.95   1 2.16
  45  0.250  0.899  0.383-  10 1.85  11 1.85   5 1.90
  46  0.750  0.899  0.386-  11 1.83  10 1.83   8 1.92
  47  0.750  0.092  0.611-  10 1.84  11 1.84   7 1.89
  48  0.495  0.404  0.136-  14 1.85  15 1.87  19 1.89   2 2.16
  49  0.498  0.597  0.865-  13 1.85  16 1.86  19 1.89   3 2.16
  50  0.495  0.095  0.863-   6 1.85   7 1.87   9 1.89   2 2.16
  51  0.498  0.903  0.135-   5 1.84   8 1.86   9 1.89   3 2.16
 
  LATTYP: Found a triclinic cell.
 ALAT       =    11.5960874593
 B/A-ratio  =     0.4795043167
 C/A-ratio  =     0.8388195970
 COS(alpha) =     0.0000267887
 COS(beta)  =     0.2910433506
 COS(gamma) =     0.4794368694
  
  Lattice vectors:
  
 A1 = (  -3.4926195203,   5.5599986149,   9.5580996360)
 A2 = (  -0.0000677032,   5.5603739868,  -0.0002613582)
 A3 = (  -9.7262907684,   0.0001365280,  -0.1195457373)


Analysis of symmetry for initial positions (statically):
=====================================================================
 Subroutine PRICEL returns:
 Original cell was already a primitive cell.
 

 Routine SETGRP: Setting up the symmetry group for a 
 triclinic supercell.


 Subroutine GETGRP returns: Found  1 space group operations
 (whereof  1 operations were pure point group operations)
 out of a pool of  2 trial point group operations.


The static configuration has the point symmetry C_1 .


Analysis of symmetry for dynamics (positions and initial velocities):
=====================================================================
 Subroutine PRICEL returns:
 Original cell was already a primitive cell.
 

 Routine SETGRP: Setting up the symmetry group for a 
 triclinic supercell.


 Subroutine GETGRP returns: Found  1 space group operations
 (whereof  1 operations were pure point group operations)
 out of a pool of  2 trial point group operations.


The dynamic configuration has the point symmetry C_1 .


Analysis of structural, dynamic, and magnetic symmetry:
=====================================================================
 Subroutine PRICEL returns:
 Original cell was already a primitive cell.
 

 Routine SETGRP: Setting up the symmetry group for a 
 triclinic supercell.


 Subroutine GETGRP returns: Found  1 space group operations
 (whereof  1 operations were pure point group operations)
 out of a pool of  2 trial point group operations.


The magnetic configuration has the point symmetry C_1 .


 Subroutine INISYM returns: Found  1 space group operations
 (whereof  1 operations are pure point group operations),
 and found     1 'primitive' translations

 
 
 KPOINTS: Automatic mesh                          

Automatic generation of k-mesh.
Space group operators:
 irot       det(A)        alpha          n_x          n_y          n_z        tau_x        tau_y        tau_z
    1     1.000000     0.000000     1.000000     0.000000     0.000000     0.000000     0.000000     0.000000
 
 Subroutine IBZKPT returns following result:
 ===========================================
 
 Found      1 irreducible k-points:
 
 Following reciprocal coordinates:
            Coordinates               Weight
  0.000000  0.000000  0.000000      1.000000
 
 Following cartesian coordinates:
            Coordinates               Weight
  0.000000  0.000000  0.000000      1.000000
 


--------------------------------------------------------------------------------------------------------




 Dimension of arrays:
   k-points           NKPTS =      1   k-points in BZ     NKDIM =      1   number of bands    NBANDS=    240
   number of dos      NEDOS =    301   number of ions     NIONS =     51
   non local maximal  LDIM  =      6   non local SUM 2l+1 LMDIM =     18
   total plane-waves  NPLWV = 241920
   max r-space proj   IRMAX =   6304   max aug-charges    IRDMAX=  15300
   dimension x,y,z NGX =    42 NGY =   80 NGZ =   72
   dimension x,y,z NGXF=    84 NGYF=  160 NGZF=  144
   support grid    NGXF=    84 NGYF=  160 NGZF=  144
   ions per type =               3  16  32
   NGX,Y,Z   is equivalent  to a cutoff of  12.56, 13.07, 12.31 a.u.
   NGXF,Y,Z  is equivalent  to a cutoff of  25.11, 26.14, 24.61 a.u.

 SYSTEM =  unknown system                          
 POSCAR =  ce17152_1                               

 Startparameter for this run:
   NWRITE =      1    write-flag & timer
   PREC   = accura    normal or accurate (medium, high low for compatibility)
   ISTART =      0    job   : 0-new  1-cont  2-samecut
   ICHARG =      2    charge: 1-file 2-atom 10-const
   ISPIN  =      2    spin polarized calculation?
   LNONCOLLINEAR =      F non collinear calculations
   LSORBIT =      F    spin-orbit coupling
   INIWAV =      1    electr: 0-lowe 1-rand  2-diag
   LASPH  =      F    aspherical Exc in radial PAW
   METAGGA=      F    non-selfconsistent MetaGGA calc.

 Electronic Relaxation 1
   ENCUT  =  500.0 eV  36.75 Ry    6.06 a.u.  10.14 18.55 17.73*2*pi/ulx,y,z
   ENINI  =  500.0     initial cutoff
   ENAUG  =  628.9 eV  augmentation charge cutoff
   NELM   =     80;   NELMIN=  2; NELMDL= -5     # of ELM steps 
   EDIFF  = 0.1E-04   stopping-criterion for ELM
   LREAL  =      T    real-space projection
   NLSPLINE    = F    spline interpolate recip. space projectors
   LCOMPAT=      F    compatible to vasp.4.4
   GGA_COMPAT  = T    GGA compatible to vasp.4.4-vasp.4.6
   LMAXPAW     = -100 max onsite density
   LMAXMIX     =    2 max onsite mixed and CHGCAR
   VOSKOWN=      1    Vosko Wilk Nusair interpolation
   ROPT   =   -0.00025  -0.00025  -0.00025
 Ionic relaxation
   EDIFFG = -.2E-01   stopping-criterion for IOM
   NSW    =     20    number of steps for IOM
   NBLOCK =      1;   KBLOCK =     20    inner block; outer block 
   IBRION =      1    ionic relax: 0-MD 1-quasi-New 2-CG
   NFREE  =      0    steps in history (QN), initial steepest desc. (CG)
   ISIF   =      3    stress and relaxation
   IWAVPR =     11    prediction:  0-non 1-charg 2-wave 3-comb
   ISYM   =      2    0-nonsym 1-usesym 2-fastsym
   LCORR  =      T    Harris-Foulkes like correction to forces

   POTIM  = 0.5000    time-step for ionic-motion
   TEIN   =    0.0    initial temperature
   TEBEG  =    0.0;   TEEND  =   0.0 temperature during run
   SMASS  =  -3.00    Nose mass-parameter (am)
   estimated Nose-frequenzy (Omega)   =  0.10E-29 period in steps =****** mass=  -0.707E-27a.u.
   SCALEE = 1.0000    scale energy and forces
   NPACO  =    256;   APACO  = 16.0  distance and # of slots for P.C.
   PSTRESS=    0.0 pullay stress

  Mass of Ions in am
   POMASS =   7.01 58.69 16.00
  Ionic Valenz
   ZVAL   =   3.00 10.00  6.00
  Atomic Wigner-Seitz radii
   RWIGS  =   1.23  1.15  0.73
  virtual crystal weights 
   VCA    =   1.00  1.00  1.00
   NELECT =     361.0000    total number of electrons
   NUPDOWN=      -1.0000    fix difference up-down

 DOS related values:
   EMIN   =  10.00;   EMAX   =-10.00  energy-range for DOS
   EFERMI =   0.00
   ISMEAR =     0;   SIGMA  =   0.05  broadening in eV -4-tet -1-fermi 0-gaus

 Electronic relaxation 2 (details)
   IALGO  =     38    algorithm
   LDIAG  =      T    sub-space diagonalisation (order eigenvalues)
   LSUBROT=      F    optimize rotation matrix (better conditioning)
   TURBO    =      0    0=normal 1=particle mesh
   IRESTART =      0    0=no restart 2=restart with 2 vectors
   NREBOOT  =      0    no. of reboots
   NMIN     =      0    reboot dimension
   EREF     =   0.00    reference energy to select bands
   IMIX   =      4    mixing-type and parameters
     AMIX     =   0.40;   BMIX     =  1.00
     AMIX_MAG =   1.60;   BMIX_MAG =  1.00
     AMIN     =   0.10
     WC   =   100.;   INIMIX=   1;  MIXPRE=   1;  MAXMIX= -45

 Intra band minimization:
   WEIMIN = 0.0010     energy-eigenvalue tresh-hold
   EBREAK =  0.10E-07  absolut break condition
   DEPER  =   0.30     relativ break condition  

   TIME   =   0.40     timestep for ELM

  volume/ion in A,a.u.               =      10.18        68.71
  Fermi-wavevector in a.u.,A,eV,Ry     =   1.450275  2.740622 28.617095  2.103297
  Thomas-Fermi vector in A             =   2.567906
 
 Write flags
   LWAVE        =      F    write WAVECAR
   LDOWNSAMPLE  =      F    k-point downsampling of WAVECAR
   LCHARG       =      T    write CHGCAR
   LVTOT        =      F    write LOCPOT, total local potential
   LVHAR        =      F    write LOCPOT, Hartree potential only
   LELF         =      F    write electronic localiz. function (ELF)
   LORBIT       =      0    0 simple, 1 ext, 2 COOP (PROOUT), +10 PAW based schemes


 Dipole corrections
   LMONO  =      F    monopole corrections only (constant potential shift)
   LDIPOL =      F    correct potential (dipole corrections)
   IDIPOL =      0    1-x, 2-y, 3-z, 4-all directions 
   EPSILON=  1.0000000 bulk dielectric constant

 Exchange correlation treatment:
   GGA     =    PS    GGA type
   LEXCH   =    14    internal setting for exchange type
   VOSKOWN=      1    Vosko Wilk Nusair interpolation
   LHFCALC =     F    Hartree Fock is set to
   LHFONE  =     F    Hartree Fock one center treatment
   AEXX    =    0.0000 exact exchange contribution

 Linear response parameters
   LEPSILON=     F    determine dielectric tensor
   LRPA    =     F    only Hartree local field effects (RPA)
   LNABLA  =     F    use nabla operator in PAW spheres
   LVEL    =     F    velocity operator in full k-point grid
   LINTERFAST=   F  fast interpolation
   KINTER  =     0    interpolate to denser k-point grid
   CSHIFT  =0.1000    complex shift for real part using Kramers Kronig
   OMEGAMAX=  -1.0    maximum frequency
   DEG_THRESHOLD= 0.2000000E-02 threshold for treating states as degnerate
   RTIME   =   -0.100 relaxation time in fs
  (WPLASMAI=    0.000 imaginary part of plasma frequency in eV, 0.658/RTIME)
   DFIELD  = 0.0000000 0.0000000 0.0000000 field for delta impulse in time
 
 Orbital magnetization related:
   ORBITALMAG=     F  switch on orbital magnetization
   LCHIMAG   =     F  perturbation theory with respect to B field
   DQ        =  0.001000  dq finite difference perturbation B field
   LLRAUG    =     F  two centre corrections for induced B field



--------------------------------------------------------------------------------------------------------


 quasi-Newton-method for relaxation of ions
 charge density and potential will be updated during run
 spin polarized calculation
 Variant of blocked Davidson
 Davidson routine will perform the subspace rotation
 perform sub-space diagonalisation
    after iterative eigenvector-optimisation
 modified Broyden-mixing scheme, WC =      100.0
 initial mixing is a Kerker type mixing with AMIX =  0.4000 and BMIX =      1.0000
 Hartree-type preconditioning will be used
 using additional bands           59
 real space projection scheme for non local part
 use partial core corrections
 calculate Harris-corrections to forces 
   (improved forces if not selfconsistent)
 use gradient corrections 
 use of overlap-Matrix (Vanderbilt PP)
 Gauss-broadening in eV      SIGMA  =   0.05


--------------------------------------------------------------------------------------------------------


  energy-cutoff  :      500.00
  volume of cell :      519.26
      direct lattice vectors                 reciprocal lattice vectors
    -0.000067703  5.560373987 -0.000261358     0.000002427  0.179844019  0.000007949
    -3.492551817 -0.000375372  9.558360994    -0.001280140  0.000004880  0.104152694
     9.726290768 -0.000136528  0.119545737     0.102354440  0.000003004  0.037399528

  length of vectors
     5.560373993 10.176452389  9.727025409     0.179844019  0.104160561  0.108973190


 
 k-points in units of 2pi/SCALE and weight: Automatic mesh                          
   0.00000000  0.00000000  0.00000000       1.000
 
 k-points in reciprocal lattice and weights: Automatic mesh                          
   0.00000000  0.00000000  0.00000000       1.000
 
 position of ions in fractional coordinates (direct lattice) 
   0.25005651  0.25003435  0.50023738
   0.25172142  0.24965449  0.99983749
   0.25213929  0.75020389  0.00026424
   0.99862944  0.99964921  0.99971150
   0.25023020  0.00040267  0.25025328
   0.25028065  0.99489000  0.74768463
   0.75013505  0.99895504  0.74947083
   0.75007351  0.99972211  0.25012245
   0.50171754  0.99964724  0.99972208
   0.99916333  0.99449739  0.49783686
   0.50122693  0.99450719  0.49783883
   0.99927424  0.50552824  0.50232858
   0.25025076  0.49976641  0.74960083
   0.25025756  0.50492093  0.25198825
   0.75032963  0.50080224  0.25027820
   0.75031933  0.50042651  0.74972906
   0.50121069  0.50551667  0.50232813
   0.99879956  0.50045764  0.00041078
   0.50188010  0.50045660  0.00042039
   0.00212347  0.40347781  0.63438030
   0.99802209  0.59956609  0.36426866
   0.00200694  0.09645869  0.36545012
   0.99786717  0.90016607  0.63554031
   0.25030599  0.40017194  0.88891411
   0.25034656  0.60224407  0.10881941
   0.75035821  0.59782402  0.11342827
   0.75029415  0.40200191  0.88929453
   0.25030757  0.10015159  0.11112659
   0.25024398  0.89789142  0.89136205
   0.75025412  0.90229082  0.88679987
   0.75032206  0.09828386  0.11083204
   0.49836620  0.40347287  0.63439279
   0.50253550  0.59956602  0.36425743
   0.49835256  0.09649997  0.36565951
   0.50255893  0.90016119  0.63538055
   0.00522581  0.40426779  0.13622124
   0.00214155  0.59721707  0.86461036
   0.00520880  0.09546396  0.86356274
   0.00216985  0.90274365  0.13525024
   0.25020575  0.40542185  0.39275640
   0.25026580  0.60090733  0.61758873
   0.75024845  0.60165583  0.61451059
   0.75021277  0.40778309  0.38887768
   0.25016036  0.09483343  0.60742200
   0.25013799  0.89926944  0.38272001
   0.75016743  0.89851070  0.38568186
   0.75025486  0.09241821  0.61120519
   0.49535436  0.40424622  0.13618315
   0.49849888  0.59724005  0.86465369
   0.49525168  0.09544774  0.86337874
   0.49844938  0.90279110  0.13544596
 
 position of ions in cartesian coordinates  (Angst):
   3.99217936  1.39024556  2.44965447
   8.85276186  1.39943502  2.50574826
  -2.61757295  1.40170711  7.17068529
   6.23209046  5.55224143  9.67425827
   2.43261288  1.39133918  0.03370018
   3.79747629  1.39117848  9.59883487
   3.80061819  4.17055412  9.63777288
  -1.05886838  4.17027982  9.58540986
   6.23223389  2.78922543  9.67437057
   1.36870474  5.55528051  9.56501820
   1.36872339  2.78656790  9.56524224
   3.12014260  5.55608015  4.89181148
   5.54535861  1.39119788  4.86649394
   0.68743153  1.39130169  4.85627524
   0.68514997  4.17189120  4.81657218
   5.54426652  4.17176588  4.87268804
   3.12021236  2.78666054  4.89183101
  -1.74394650  5.55351118  4.78334285
  -1.74381575  2.79045314  4.78346393
   4.76099995  0.01156922  3.93242347
   1.44889970  5.54910127  5.77415505
   3.21758702  0.01107323  0.96567446
   3.03750565  5.54808999  8.67982759
   7.24819892  1.39152334  3.93118834
  -1.04497635  1.39177958  5.76940969
  -0.98474583  4.17203238  5.72758155
   7.24547388  4.17164376  3.94859465
   0.73104796  1.39175093  0.97050434
   5.53369723  1.39099138  8.68886346
   5.47392515  4.17123372  8.73023844
   0.73467237  4.17201924  0.95248601
   4.76110509  2.77086439  3.93224804
   1.44882426  2.79401053  5.77428254
   3.21944583  2.77094046  0.96596434
   3.03600235  2.79399096  8.67989130
  -0.08699917  0.02888711  3.88042078
   6.32364005  0.01156560  5.81177627
   8.06584913  0.02880914  1.01571287
  -1.83739596  0.01170785  8.64491771
   2.40408919  1.39103174  3.92205536
   3.90813063  1.39126156  5.81745388
   3.87554372  4.17135222  5.82410966
   2.35808303  4.17125741  3.94403058
   5.57673539  1.39086663  0.97900149
   0.58168405  1.39047096  8.64122911
   0.61310795  4.17082153  8.63420019
   5.62193322  4.17157947  0.95623750
  -0.08732749  2.75418516  3.88008195
   6.32394763  2.77149797  5.81187137
   8.06408296  2.75363085  1.01540776
  -1.83569165  2.77120759  8.64526495
 


--------------------------------------------------------------------------------------------------------


 use serial FFT for orbitals x direction half grid
 k-point  1 :   0.0000 0.0000 0.0000  plane waves:    6585

 maximum and minimum number of plane-waves per node :      6585     6585

 maximum number of plane-waves:      6585
 maximum index in each direction: 
   IXMAX=   10   IYMAX=   18   IZMAX=   17
   IXMIN=    0   IYMIN=  -18   IZMIN=  -17

 The following grids will avoid any aliasing or wrap around errors in the Hartre
 e energy
  - symmetry arguments have not been applied
  - exchange correlation energies might require even more grid points
  - we recommend to set PREC=Normal or Accurate and rely on VASP defaults
 NGX is ok and might be reduce to    42
 NGY is ok and might be reduce to    80
 NGZ is ok and might be reduce to    70

 serial   3D FFT for wavefunctions
 parallel 3D FFT for charge:
    minimum data exchange during FFTs selected (reduces bandwidth)


 total amount of memory used by VASP MPI-rank0    92760. kBytes
=======================================================================

   base      :      30000. kBytes
   nonlr-proj:      21361. kBytes
   fftplans  :       5544. kBytes
   grid      :      31764. kBytes
   one-center:        793. kBytes
   wavefun   :       3298. kBytes
 
     INWAV:  cpu time    0.0000: real time    0.0000
 Broyden mixing: mesh for mixing (old mesh)
   NGX = 21   NGY = 37   NGZ = 35
  (NGX  = 84   NGY  =160   NGZ  =144)
  gives a total of  27195 points

 initial charge density was supplied:
 charge density of overlapping atoms calculated
 number of electron     361.0000000 magnetization      40.0000000
 keeping initial charge density in first step


--------------------------------------------------------------------------------------------------------


 Maximum index for non-local projection operator         6106
 Maximum index for augmentation-charges         1436 (set IRDMAX)


--------------------------------------------------------------------------------------------------------


 First call to EWALD:  gamma=   0.221
 Maximum number of real-space cells 4x 2x 2
 Maximum number of reciprocal cells 2x 3x 3

    FEWALD:  cpu time    0.0031: real time    0.0031


--------------------------------------- Iteration      1(   1)  ---------------------------------------


    POTLOK:  cpu time    0.1449: real time    0.1478
    SETDIJ:  cpu time    0.0159: real time    0.0159
     EDDAV:  cpu time    1.1668: real time    1.2181
    --------------------------------------------
      LOOP:  cpu time    1.3281: real time    1.3822

 eigenvalue-minimisations  :   960
 total energy-change (2. order) : 0.6356831E+04  (-0.1615916E+05)
 number of electron     361.0000000 magnetization      40.0000000
 augmentation part      361.0000000 magnetization      40.0000000

 Free energy of the ion-electron system (eV)
  ---------------------------------------------------
  alpha Z        PSCENC =      1098.52824971
  Ewald energy   TEWEN  =    -19860.17679283
  -Hartree energ DENC   =    -12469.98479517
  -exchange      EXHF   =         0.00000000
  -V(xc)+E(xc)   XCENC  =      1463.31487353
  PAW double counting   =     26703.13321861   -27864.47628080
  entropy T*S    EENTRO =        -0.02596429
  eigenvalues    EBANDS =      5669.79361603
  atomic energy  EATOM  =     31616.72437543
  Solvation  Ediel_sol  =         0.00000000
  ---------------------------------------------------
  free energy    TOTEN  =      6356.83050024 eV

  energy without entropy =     6356.85646452  energy(sigma->0) =     6356.84348238


--------------------------------------------------------------------------------------------------------




--------------------------------------- Iteration      1(   2)  ---------------------------------------


     EDDAV:  cpu time    1.2132: real time    1.2161
    --------------------------------------------
      LOOP:  cpu time    1.2131: real time    1.2159

 eigenvalue-minimisations  :  1024
 total energy-change (2. order) :-0.5145481E+04  (-0.4616743E+04)
 number of electron     361.0000000 magnetization      40.0000000
 augmentation part      361.0000000 magnetization      40.0000000

 Free energy of the ion-electron system (eV)
  ---------------------------------------------------
  alpha Z        PSCENC =      1098.52824971
  Ewald energy   TEWEN  =    -19860.17679283
  -Hartree energ DENC   =    -12469.98479517
  -exchange      EXHF   =         0.00000000
  -V(xc)+E(xc)   XCENC  =      1463.31487353
  PAW double counting   =     26703.13321861   -27864.47628080
  entropy T*S    EENTRO =        -0.02996998
  eigenvalues    EBANDS =       524.31688172
  atomic energy  EATOM  =     31616.72437543
  Solvation  Ediel_sol  =         0.00000000
  ---------------------------------------------------
  free energy    TOTEN  =      1211.34976023 eV

  energy without entropy =     1211.37973021  energy(sigma->0) =     1211.36474522


--------------------------------------------------------------------------------------------------------




--------------------------------------- Iteration      1(   3)  ---------------------------------------


     EDDAV:  cpu time    1.2975: real time    1.3006
    --------------------------------------------
      LOOP:  cpu time    1.2975: real time    1.3006

 eigenvalue-minimisations  :  1120
 total energy-change (2. order) :-0.1425991E+04  (-0.1172283E+04)
 number of electron     361.0000000 magnetization      40.0000000
 augmentation part      361.0000000 magnetization      40.0000000

 Free energy of the ion-electron system (eV)
  ---------------------------------------------------
  alpha Z        PSCENC =      1098.52824971
  Ewald energy   TEWEN  =    -19860.17679283
  -Hartree energ DENC   =    -12469.98479517
  -exchange      EXHF   =         0.00000000
  -V(xc)+E(xc)   XCENC  =      1463.31487353
  PAW double counting   =     26703.13321861   -27864.47628080
  entropy T*S    EENTRO =        -0.09028490
  eigenvalues    EBANDS =      -901.61358563
  atomic energy  EATOM  =     31616.72437543
  Solvation  Ediel_sol  =         0.00000000
  ---------------------------------------------------
  free energy    TOTEN  =      -214.64102204 eV

  energy without entropy =     -214.55073714  energy(sigma->0) =     -214.59587959


--------------------------------------------------------------------------------------------------------




--------------------------------------- Iteration      1(   4)  ---------------------------------------


     EDDAV:  cpu time    1.3354: real time    1.3386
    --------------------------------------------
      LOOP:  cpu time    1.3354: real time    1.3386

 eigenvalue-minimisations  :  1152
 total energy-change (2. order) :-0.2058681E+03  (-0.2003604E+03)
 number of electron     361.0000000 magnetization      40.0000000
 augmentation part      361.0000000 magnetization      40.0000000

 Free energy of the ion-electron system (eV)
  ---------------------------------------------------
  alpha Z        PSCENC =      1098.52824971
  Ewald energy   TEWEN  =    -19860.17679283
  -Hartree energ DENC   =    -12469.98479517
  -exchange      EXHF   =         0.00000000
  -V(xc)+E(xc)   XCENC  =      1463.31487353
  PAW double counting   =     26703.13321861   -27864.47628080
  entropy T*S    EENTRO =        -0.16607134
  eigenvalues    EBANDS =     -1107.40591712
  atomic energy  EATOM  =     31616.72437543
  Solvation  Ediel_sol  =         0.00000000
  ---------------------------------------------------
  free energy    TOTEN  =      -420.50913996 eV

  energy without entropy =     -420.34306862  energy(sigma->0) =     -420.42610429


--------------------------------------------------------------------------------------------------------




--------------------------------------- Iteration      1(   5)  ---------------------------------------


     EDDAV:  cpu time    1.4965: real time    1.5000
    CHARGE:  cpu time    0.0823: real time    0.0825
    MIXING:  cpu time    0.0024: real time    0.0025
    --------------------------------------------
      LOOP:  cpu time    1.5809: real time    1.5847

 eigenvalue-minimisations  :  1328
 total energy-change (2. order) :-0.7202366E+01  (-0.7148206E+01)
 number of electron     360.9999920 magnetization      36.0173111
 augmentation part      104.9231443 magnetization      28.8229697

 Broyden mixing:
  rms(total) = 0.12117E+02    rms(broyden)= 0.12116E+02
  rms(prec ) = 0.14773E+02
  weight for this iteration     100.00

 Free energy of the ion-electron system (eV)
  ---------------------------------------------------
  alpha Z        PSCENC =      1098.52824971
  Ewald energy   TEWEN  =    -19860.17679283
  -Hartree energ DENC   =    -12469.98479517
  -exchange      EXHF   =         0.00000000
  -V(xc)+E(xc)   XCENC  =      1463.31487353
  PAW double counting   =     26703.13321861   -27864.47628080
  entropy T*S    EENTRO =        -0.16759152
  eigenvalues    EBANDS =     -1114.60676277
  atomic energy  EATOM  =     31616.72437543
  Solvation  Ediel_sol  =         0.00000000
  ---------------------------------------------------
  free energy    TOTEN  =      -427.71150580 eV

  energy without entropy =     -427.54391428  energy(sigma->0) =     -427.62771004


--------------------------------------------------------------------------------------------------------




--------------------------------------- Iteration      1(   6)  ---------------------------------------


    POTLOK:  cpu time    0.1130: real time    0.1132
    SETDIJ:  cpu time    0.0169: real time    0.0169
     EDDAV:  cpu time    1.5768: real time    1.5805
    CHARGE:  cpu time    0.0793: real time    0.0795
    MIXING:  cpu time    0.0025: real time    0.0025
    --------------------------------------------
      LOOP:  cpu time    1.7885: real time    1.7928

 eigenvalue-minimisations  :  1440
 total energy-change (2. order) :-0.9577299E+02  (-0.1249381E+03)
 number of electron     360.9999943 magnetization      32.0639531
 augmentation part      135.7381573 magnetization      28.0827358

 Broyden mixing:
  rms(total) = 0.22159E+02    rms(broyden)= 0.22159E+02
  rms(prec ) = 0.24441E+02
  weight for this iteration     100.00

 eigenvalues of (default mixing * dielectric matrix)
  average eigenvalue GAMMA=   0.1832
  0.1832

 Free energy of the ion-electron system (eV)
  ---------------------------------------------------
  alpha Z        PSCENC =      1098.52824971
  Ewald energy   TEWEN  =    -19860.17679283
  -Hartree energ DENC   =    -11897.76943767
  -exchange      EXHF   =         0.00000000
  -V(xc)+E(xc)   XCENC  =      1462.55685762
  PAW double counting   =     29667.44759173   -30648.62627708
  entropy T*S    EENTRO =        -0.03797035
  eigenvalues    EBANDS =     -1962.13109053
  atomic energy  EATOM  =     31616.72437543
  Solvation  Ediel_sol  =         0.00000000
  ---------------------------------------------------
  free energy    TOTEN  =      -523.48449398 eV

  energy without entropy =     -523.44652363  energy(sigma->0) =     -523.46550880


--------------------------------------------------------------------------------------------------------




--------------------------------------- Iteration      1(   7)  ---------------------------------------


    POTLOK:  cpu time    0.1132: real time    0.1134
    SETDIJ:  cpu time    0.0171: real time    0.0172
     EDDAV:  cpu time    1.4630: real time    1.4664
    CHARGE:  cpu time    0.0791: real time    0.0793
    MIXING:  cpu time    0.0026: real time    0.0026
    --------------------------------------------
      LOOP:  cpu time    1.6749: real time    1.6789

 eigenvalue-minimisations  :  1312
 total energy-change (2. order) : 0.1486181E+03  (-0.3249827E+02)
 number of electron     360.9999953 magnetization      24.3907056
 augmentation part      129.4283605 magnetization      23.1388460

 Broyden mixing:
  rms(total) = 0.91216E+01    rms(broyden)= 0.91207E+01
  rms(prec ) = 0.10944E+02
  weight for this iteration     100.00

 eigenvalues of (default mixing * dielectric matrix)
  average eigenvalue GAMMA=   0.5185
  0.5185  0.5185

 Free energy of the ion-electron system (eV)
  ---------------------------------------------------
  alpha Z        PSCENC =      1098.52824971
  Ewald energy   TEWEN  =    -19860.17679283
  -Hartree energ DENC   =    -12066.47740828
  -exchange      EXHF   =         0.00000000
  -V(xc)+E(xc)   XCENC  =      1458.09594849
  PAW double counting   =     30804.80756430   -31888.73312970
  entropy T*S    EENTRO =        -0.03207927
  eigenvalues    EBANDS =     -1537.60309768
  atomic energy  EATOM  =     31616.72437543
  Solvation  Ediel_sol  =         0.00000000
  ---------------------------------------------------
  free energy    TOTEN  =      -374.86636982 eV

  energy without entropy =     -374.83429055  energy(sigma->0) =     -374.85033018


--------------------------------------------------------------------------------------------------------




--------------------------------------- Iteration      1(   8)  ---------------------------------------


    POTLOK:  cpu time    0.1124: real time    0.1127
    SETDIJ:  cpu time    0.0172: real time    0.0173
     EDDAV:  cpu time    1.6218: real time    1.6256
    CHARGE:  cpu time    0.0791: real time    0.0792
    MIXING:  cpu time    0.0027: real time    0.0027
    --------------------------------------------
      LOOP:  cpu time    1.8332: real time    1.8375

 eigenvalue-minimisations  :  1488
 total energy-change (2. order) : 0.3299652E+02  (-0.2298276E+02)
 number of electron     360.9999913 magnetization      19.8139107
 augmentation part      117.9201899 magnetization      16.5862421

 Broyden mixing:
  rms(total) = 0.66094E+01    rms(broyden)= 0.66078E+01
  rms(prec ) = 0.98451E+01
  weight for this iteration     100.00

 eigenvalues of (default mixing * dielectric matrix)
  average eigenvalue GAMMA=   0.5219
  0.6156  0.6156  0.3344

 Free energy of the ion-electron system (eV)
  ---------------------------------------------------
  alpha Z        PSCENC =      1098.52824971
  Ewald energy   TEWEN  =    -19860.17679283
  -Hartree energ DENC   =    -12208.01142498
  -exchange      EXHF   =         0.00000000
  -V(xc)+E(xc)   XCENC  =      1453.84733748
  PAW double counting   =     32035.20090121   -33220.45357863
  entropy T*S    EENTRO =        -0.03981923
  eigenvalues    EBANDS =     -1257.48910011
  atomic energy  EATOM  =     31616.72437543
  Solvation  Ediel_sol  =         0.00000000
  ---------------------------------------------------
  free energy    TOTEN  =      -341.86985195 eV

  energy without entropy =     -341.83003271  energy(sigma->0) =     -341.84994233


--------------------------------------------------------------------------------------------------------




--------------------------------------- Iteration      1(   9)  ---------------------------------------


    POTLOK:  cpu time    0.1128: real time    0.1130
    SETDIJ:  cpu time    0.0170: real time    0.0171
     EDDAV:  cpu time    1.4843: real time    1.4878
    CHARGE:  cpu time    0.0800: real time    0.0802
    MIXING:  cpu time    0.0028: real time    0.0029
    --------------------------------------------
      LOOP:  cpu time    1.6969: real time    1.7009

 eigenvalue-minimisations  :  1328
 total energy-change (2. order) :-0.2725362E+02  (-0.1699674E+02)
 number of electron     360.9999950 magnetization      16.5746483
 augmentation part      112.5093964 magnetization      14.1090374

 Broyden mixing:
  rms(total) = 0.13133E+02    rms(broyden)= 0.13132E+02
  rms(prec ) = 0.17978E+02
  weight for this iteration     100.00

 eigenvalues of (default mixing * dielectric matrix)
  average eigenvalue GAMMA=   0.4625
  0.9250  0.4173  0.4173  0.0906

 Free energy of the ion-electron system (eV)
  ---------------------------------------------------
  alpha Z        PSCENC =      1098.52824971
  Ewald energy   TEWEN  =    -19860.17679283
  -Hartree energ DENC   =    -12177.09296805
  -exchange      EXHF   =         0.00000000
  -V(xc)+E(xc)   XCENC  =      1451.05595652
  PAW double counting   =     32910.39096867   -34106.93624601
  entropy T*S    EENTRO =        -0.04767422
  eigenvalues    EBANDS =     -1301.56934379
  atomic energy  EATOM  =     31616.72437543
  Solvation  Ediel_sol  =         0.00000000
  ---------------------------------------------------
  free energy    TOTEN  =      -369.12347458 eV

  energy without entropy =     -369.07580035  energy(sigma->0) =     -369.09963747


--------------------------------------------------------------------------------------------------------




--------------------------------------- Iteration      1(  10)  ---------------------------------------


    POTLOK:  cpu time    0.1131: real time    0.1134
    SETDIJ:  cpu time    0.0172: real time    0.0172
     EDDAV:  cpu time    1.5360: real time    1.5396
    CHARGE:  cpu time    0.0793: real time    0.0795
    MIXING:  cpu time    0.0029: real time    0.0029
    --------------------------------------------
      LOOP:  cpu time    1.7486: real time    1.7527

 eigenvalue-minimisations  :  1392
 total energy-change (2. order) : 0.3858310E+02  (-0.1210420E+02)
 number of electron     360.9999945 magnetization      14.6866972
 augmentation part      116.2490035 magnetization      12.4062477

 Broyden mixing:
  rms(total) = 0.47204E+01    rms(broyden)= 0.47192E+01
  rms(prec ) = 0.62773E+01
  weight for this iteration     100.00

 eigenvalues of (default mixing * dielectric matrix)
  average eigenvalue GAMMA=   0.4700
  1.1339  0.3985  0.3985  0.2819  0.1371

 Free energy of the ion-electron system (eV)
  ---------------------------------------------------
  alpha Z        PSCENC =      1098.52824971
  Ewald energy   TEWEN  =    -19860.17679283
  -Hartree energ DENC   =    -12157.56722555
  -exchange      EXHF   =         0.00000000
  -V(xc)+E(xc)   XCENC  =      1449.82698787
  PAW double counting   =     33633.89204085   -34843.30823716
  entropy T*S    EENTRO =        -0.05535159
  eigenvalues    EBANDS =     -1268.40442003
  atomic energy  EATOM  =     31616.72437543
  Solvation  Ediel_sol  =         0.00000000
  ---------------------------------------------------
  free energy    TOTEN  =      -330.54037330 eV

  energy without entropy =     -330.48502171  energy(sigma->0) =     -330.51269750


--------------------------------------------------------------------------------------------------------




--------------------------------------- Iteration      1(  11)  ---------------------------------------


    POTLOK:  cpu time    0.1124: real time    0.1127
    SETDIJ:  cpu time    0.0172: real time    0.0172
     EDDAV:  cpu time    1.4498: real time    1.4532
    CHARGE:  cpu time    0.0791: real time    0.0793
    MIXING:  cpu time    0.0031: real time    0.0031
    --------------------------------------------
      LOOP:  cpu time    1.6615: real time    1.6655

 eigenvalue-minimisations  :  1296
 total energy-change (2. order) : 0.5925728E+01  (-0.5472561E+01)
 number of electron     360.9999942 magnetization      11.7415429
 augmentation part      116.4393740 magnetization      10.4932851

 Broyden mixing:
  rms(total) = 0.41582E+01    rms(broyden)= 0.41574E+01
  rms(prec ) = 0.57163E+01
  weight for this iteration     100.00

 eigenvalues of (default mixing * dielectric matrix)
  average eigenvalue GAMMA=   0.4686
  1.2217  0.4770  0.4096  0.4096  0.1826  0.1110

 Free energy of the ion-electron system (eV)
  ---------------------------------------------------
  alpha Z        PSCENC =      1098.52824971
  Ewald energy   TEWEN  =    -19860.17679283
  -Hartree energ DENC   =    -12156.54240140
  -exchange      EXHF   =         0.00000000
  -V(xc)+E(xc)   XCENC  =      1449.51105695
  PAW double counting   =     33978.66937069   -35194.57667304
  entropy T*S    EENTRO =        -0.01673274
  eigenvalues    EBANDS =     -1256.73509831
  atomic energy  EATOM  =     31616.72437543
  Solvation  Ediel_sol  =         0.00000000
  ---------------------------------------------------
  free energy    TOTEN  =      -324.61464553 eV

  energy without entropy =     -324.59791279  energy(sigma->0) =     -324.60627916


--------------------------------------------------------------------------------------------------------




--------------------------------------- Iteration      1(  12)  ---------------------------------------


    POTLOK:  cpu time    0.1125: real time    0.1128
    SETDIJ:  cpu time    0.0172: real time    0.0172
     EDDAV:  cpu time    1.4870: real time    1.4905
    CHARGE:  cpu time    0.0797: real time    0.0799
    MIXING:  cpu time    0.0032: real time    0.0032
    --------------------------------------------
      LOOP:  cpu time    1.6996: real time    1.7037

 eigenvalue-minimisations  :  1328
 total energy-change (2. order) : 0.4584492E+01  (-0.7198259E+01)
 number of electron     360.9999950 magnetization       9.4812280
 augmentation part      117.8355942 magnetization       8.3249437

 Broyden mixing:
  rms(total) = 0.20357E+01    rms(broyden)= 0.20347E+01
  rms(prec ) = 0.26242E+01
  weight for this iteration     100.00

 eigenvalues of (default mixing * dielectric matrix)
  average eigenvalue GAMMA=   0.4751
  1.2664  0.4210  0.4210  0.5403  0.4115  0.1473  0.1178

 Free energy of the ion-electron system (eV)
  ---------------------------------------------------
  alpha Z        PSCENC =      1098.52824971
  Ewald energy   TEWEN  =    -19860.17679283
  -Hartree energ DENC   =    -12145.61749053
  -exchange      EXHF   =         0.00000000
  -V(xc)+E(xc)   XCENC  =      1449.31273994
  PAW double counting   =     34355.43062987   -35569.28617212
  entropy T*S    EENTRO =        -0.02277696
  eigenvalues    EBANDS =     -1264.92291595
  atomic energy  EATOM  =     31616.72437543
  Solvation  Ediel_sol  =         0.00000000
  ---------------------------------------------------
  free energy    TOTEN  =      -320.03015345 eV

  energy without entropy =     -320.00737649  energy(sigma->0) =     -320.01876497


--------------------------------------------------------------------------------------------------------




--------------------------------------- Iteration      1(  13)  ---------------------------------------


    POTLOK:  cpu time    0.1132: real time    0.1135
    SETDIJ:  cpu time    0.0173: real time    0.0173
     EDDAV:  cpu time    1.4565: real time    1.4600
    CHARGE:  cpu time    0.0791: real time    0.0793
    MIXING:  cpu time    0.0034: real time    0.0034
    --------------------------------------------
      LOOP:  cpu time    1.6695: real time    1.6735

 eigenvalue-minimisations  :  1296
 total energy-change (2. order) : 0.1007584E+01  (-0.1639848E+01)
 number of electron     360.9999947 magnetization       6.7202204
 augmentation part      118.5999944 magnetization       5.8851242

 Broyden mixing:
  rms(total) = 0.15430E+01    rms(broyden)= 0.15424E+01
  rms(prec ) = 0.18569E+01
  weight for this iteration     100.00

 eigenvalues of (default mixing * dielectric matrix)
  average eigenvalue GAMMA=   0.4820
  1.2760  0.7646  0.4256  0.4256  0.4410  0.2507  0.1584  0.1143

 Free energy of the ion-electron system (eV)
  ---------------------------------------------------
  alpha Z        PSCENC =      1098.52824971
  Ewald energy   TEWEN  =    -19860.17679283
  -Hartree energ DENC   =    -12140.40318348
  -exchange      EXHF   =         0.00000000
  -V(xc)+E(xc)   XCENC  =      1449.29902358
  PAW double counting   =     34632.20629977   -35844.85909310
  entropy T*S    EENTRO =        -0.03258434
  eigenvalues    EBANDS =     -1270.30886373
  atomic energy  EATOM  =     31616.72437543
  Solvation  Ediel_sol  =         0.00000000
  ---------------------------------------------------
  free energy    TOTEN  =      -319.02256899 eV

  energy without entropy =     -318.98998465  energy(sigma->0) =     -319.00627682


--------------------------------------------------------------------------------------------------------




--------------------------------------- Iteration      1(  14)  ---------------------------------------


    POTLOK:  cpu time    0.1125: real time    0.1128
    SETDIJ:  cpu time    0.0174: real time    0.0175
     EDDAV:  cpu time    1.5033: real time    1.5069
    CHARGE:  cpu time    0.0745: real time    0.0747
    MIXING:  cpu time    0.0035: real time    0.0035
    --------------------------------------------
      LOOP:  cpu time    1.7112: real time    1.7153

 eigenvalue-minimisations  :  1328
 total energy-change (2. order) :-0.4499256E+00  (-0.8841448E+00)
 number of electron     360.9999950 magnetization       4.9713259
 augmentation part      118.7855818 magnetization       4.2755293

 Broyden mixing:
  rms(total) = 0.11852E+01    rms(broyden)= 0.11848E+01
  rms(prec ) = 0.15215E+01
  weight for this iteration     100.00

 eigenvalues of (default mixing * dielectric matrix)
  average eigenvalue GAMMA=   0.5071
  1.4611  0.7387  0.4804  0.4804  0.4540  0.4540  0.2268  0.1534  0.1154

 Free energy of the ion-electron system (eV)
  ---------------------------------------------------
  alpha Z        PSCENC =      1098.52824971
  Ewald energy   TEWEN  =    -19860.17679283
  -Hartree energ DENC   =    -12143.90096526
  -exchange      EXHF   =         0.00000000
  -V(xc)+E(xc)   XCENC  =      1449.43240647
  PAW double counting   =     34973.12997755   -36187.76452969
  entropy T*S    EENTRO =        -0.03347592
  eigenvalues    EBANDS =     -1265.41174003
  atomic energy  EATOM  =     31616.72437543
  Solvation  Ediel_sol  =         0.00000000
  ---------------------------------------------------
  free energy    TOTEN  =      -319.47249457 eV

  energy without entropy =     -319.43901864  energy(sigma->0) =     -319.45575660


--------------------------------------------------------------------------------------------------------




--------------------------------------- Iteration      1(  15)  ---------------------------------------


    POTLOK:  cpu time    0.1096: real time    0.1099
    SETDIJ:  cpu time    0.0164: real time    0.0164
     EDDAV:  cpu time    1.3617: real time    1.3649
    CHARGE:  cpu time    0.0746: real time    0.0748
    MIXING:  cpu time    0.0035: real time    0.0035
    --------------------------------------------
      LOOP:  cpu time    1.5658: real time    1.5695

 eigenvalue-minimisations  :  1248
 total energy-change (2. order) :-0.4295647E+00  (-0.9255631E+00)
 number of electron     360.9999948 magnetization       3.1889081
 augmentation part      118.9180441 magnetization       2.6543552

 Broyden mixing:
  rms(total) = 0.13310E+01    rms(broyden)= 0.13306E+01
  rms(prec ) = 0.16990E+01
  weight for this iteration     100.00

 eigenvalues of (default mixing * dielectric matrix)
  average eigenvalue GAMMA=   0.5225
  1.6629  0.6977  0.6977  0.5837  0.4479  0.4479  0.2669  0.1151  0.1596  0.1460

 Free energy of the ion-electron system (eV)
  ---------------------------------------------------
  alpha Z        PSCENC =      1098.52824971
  Ewald energy   TEWEN  =    -19860.17679283
  -Hartree energ DENC   =    -12143.42797385
  -exchange      EXHF   =         0.00000000
  -V(xc)+E(xc)   XCENC  =      1449.37948004
  PAW double counting   =     35203.63517793   -36419.68003934
  entropy T*S    EENTRO =        -0.00459507
  eigenvalues    EBANDS =     -1264.87994128
  atomic energy  EATOM  =     31616.72437543
  Solvation  Ediel_sol  =         0.00000000
  ---------------------------------------------------
  free energy    TOTEN  =      -319.90205926 eV

  energy without entropy =     -319.89746419  energy(sigma->0) =     -319.89976172


--------------------------------------------------------------------------------------------------------




--------------------------------------- Iteration      1(  16)  ---------------------------------------


    POTLOK:  cpu time    0.1091: real time    0.1094
    SETDIJ:  cpu time    0.0159: real time    0.0159
     EDDAV:  cpu time    1.3680: real time    1.3712
    CHARGE:  cpu time    0.0760: real time    0.0762
    MIXING:  cpu time    0.0039: real time    0.0039
    --------------------------------------------
      LOOP:  cpu time    1.5729: real time    1.5767

 eigenvalue-minimisations  :  1248
 total energy-change (2. order) : 0.1448212E+00  (-0.5797919E+00)
 number of electron     360.9999947 magnetization       2.3098182
 augmentation part      119.0525711 magnetization       1.8098756

 Broyden mixing:
  rms(total) = 0.10500E+01    rms(broyden)= 0.10496E+01
  rms(prec ) = 0.13393E+01
  weight for this iteration     100.00

 eigenvalues of (default mixing * dielectric matrix)
  average eigenvalue GAMMA=   0.5164
  1.7864  0.7465  0.7465  0.5651  0.4545  0.4545  0.3126  0.1994  0.1153  0.1562
  0.1435

 Free energy of the ion-electron system (eV)
  ---------------------------------------------------
  alpha Z        PSCENC =      1098.52824971
  Ewald energy   TEWEN  =    -19860.17679283
  -Hartree energ DENC   =    -12141.93746961
  -exchange      EXHF   =         0.00000000
  -V(xc)+E(xc)   XCENC  =      1449.26436316
  PAW double counting   =     35444.21256100   -36662.05229031
  entropy T*S    EENTRO =        -0.00420519
  eigenvalues    EBANDS =     -1264.31602943
  atomic energy  EATOM  =     31616.72437543
  Solvation  Ediel_sol  =         0.00000000
  ---------------------------------------------------
  free energy    TOTEN  =      -319.75723807 eV

  energy without entropy =     -319.75303288  energy(sigma->0) =     -319.75513547


--------------------------------------------------------------------------------------------------------




--------------------------------------- Iteration      1(  17)  ---------------------------------------


    POTLOK:  cpu time    0.1093: real time    0.1096
    SETDIJ:  cpu time    0.0170: real time    0.0171
     EDDAV:  cpu time    1.3378: real time    1.3410
    CHARGE:  cpu time    0.0754: real time    0.0756
    MIXING:  cpu time    0.0039: real time    0.0040
    --------------------------------------------
      LOOP:  cpu time    1.5435: real time    1.5471

 eigenvalue-minimisations  :  1216
 total energy-change (2. order) : 0.1807400E+00  (-0.4561921E+00)
 number of electron     360.9999948 magnetization       1.7393353
 augmentation part      118.9902084 magnetization       1.2956091

 Broyden mixing:
  rms(total) = 0.66180E+00    rms(broyden)= 0.66140E+00
  rms(prec ) = 0.87459E+00
  weight for this iteration     100.00

 eigenvalues of (default mixing * dielectric matrix)
  average eigenvalue GAMMA=   0.5255
  1.9082  0.8072  0.8072  0.5474  0.5474  0.4275  0.4275  0.2304  0.2090  0.1535
  0.1151  0.1258

 Free energy of the ion-electron system (eV)
  ---------------------------------------------------
  alpha Z        PSCENC =      1098.52824971
  Ewald energy   TEWEN  =    -19860.17679283
  -Hartree energ DENC   =    -12142.71404010
  -exchange      EXHF   =         0.00000000
  -V(xc)+E(xc)   XCENC  =      1449.22189449
  PAW double counting   =     35565.70786383   -36784.95987157
  entropy T*S    EENTRO =        -0.00409504
  eigenvalues    EBANDS =     -1261.90408203
  atomic energy  EATOM  =     31616.72437543
  Solvation  Ediel_sol  =         0.00000000
  ---------------------------------------------------
  free energy    TOTEN  =      -319.57649810 eV

  energy without entropy =     -319.57240306  energy(sigma->0) =     -319.57445058


--------------------------------------------------------------------------------------------------------




--------------------------------------- Iteration      1(  18)  ---------------------------------------


    POTLOK:  cpu time    0.1087: real time    0.1089
    SETDIJ:  cpu time    0.0160: real time    0.0161
     EDDAV:  cpu time    1.3644: real time    1.3677
    CHARGE:  cpu time    0.0756: real time    0.0758
    MIXING:  cpu time    0.0040: real time    0.0040
    --------------------------------------------
      LOOP:  cpu time    1.5688: real time    1.5725

 eigenvalue-minimisations  :  1248
 total energy-change (2. order) : 0.7230612E-01  (-0.2005311E+00)
 number of electron     360.9999947 magnetization       1.5515206
 augmentation part      118.9418183 magnetization       1.1551174

 Broyden mixing:
  rms(total) = 0.52297E+00    rms(broyden)= 0.52274E+00
  rms(prec ) = 0.65566E+00
  weight for this iteration     100.00

 eigenvalues of (default mixing * dielectric matrix)
  average eigenvalue GAMMA=   0.5313
  1.9581  0.8728  0.8728  0.6399  0.5555  0.4150  0.4150  0.3790  0.2269  0.1833
  0.1529  0.1151  0.1203

 Free energy of the ion-electron system (eV)
  ---------------------------------------------------
  alpha Z        PSCENC =      1098.52824971
  Ewald energy   TEWEN  =    -19860.17679283
  -Hartree energ DENC   =    -12143.10562219
  -exchange      EXHF   =         0.00000000
  -V(xc)+E(xc)   XCENC  =      1449.16558634
  PAW double counting   =     35644.85882836   -36864.83834484
  entropy T*S    EENTRO =        -0.00340511
  eigenvalues    EBANDS =     -1260.65706685
  atomic energy  EATOM  =     31616.72437543
  Solvation  Ediel_sol  =         0.00000000
  ---------------------------------------------------
  free energy    TOTEN  =      -319.50419198 eV

  energy without entropy =     -319.50078687  energy(sigma->0) =     -319.50248942


--------------------------------------------------------------------------------------------------------




--------------------------------------- Iteration      1(  19)  ---------------------------------------


    POTLOK:  cpu time    0.1097: real time    0.1100
    SETDIJ:  cpu time    0.0167: real time    0.0168
     EDDAV:  cpu time    1.3544: real time    1.3576
    CHARGE:  cpu time    0.0761: real time    0.0763
    MIXING:  cpu time    0.0043: real time    0.0043
    --------------------------------------------
      LOOP:  cpu time    1.5612: real time    1.5649

 eigenvalue-minimisations  :  1232
 total energy-change (2. order) : 0.6327252E-01  (-0.8370462E-01)
 number of electron     360.9999948 magnetization       1.2914221
 augmentation part      118.9230195 magnetization       0.9365501

 Broyden mixing:
  rms(total) = 0.34270E+00    rms(broyden)= 0.34255E+00
  rms(prec ) = 0.41828E+00
  weight for this iteration     100.00

 eigenvalues of (default mixing * dielectric matrix)
  average eigenvalue GAMMA=   0.5572
  2.1198  1.0228  0.8963  0.8963  0.4344  0.4344  0.5458  0.4526  0.2318  0.2132
  0.1671  0.1522  0.1151  0.1193

 Free energy of the ion-electron system (eV)
  ---------------------------------------------------
  alpha Z        PSCENC =      1098.52824971
  Ewald energy   TEWEN  =    -19860.17679283
  -Hartree energ DENC   =    -12142.90099559
  -exchange      EXHF   =         0.00000000
  -V(xc)+E(xc)   XCENC  =      1449.10650195
  PAW double counting   =     35670.32404986   -36890.27109911
  entropy T*S    EENTRO =        -0.00453913
  eigenvalues    EBANDS =     -1260.77066975
  atomic energy  EATOM  =     31616.72437543
  Solvation  Ediel_sol  =         0.00000000
  ---------------------------------------------------
  free energy    TOTEN  =      -319.44091946 eV

  energy without entropy =     -319.43638033  energy(sigma->0) =     -319.43864990


--------------------------------------------------------------------------------------------------------




--------------------------------------- Iteration      1(  20)  ---------------------------------------


    POTLOK:  cpu time    0.1104: real time    0.1106
    SETDIJ:  cpu time    0.0171: real time    0.0171
     EDDAV:  cpu time    1.4124: real time    1.4157
    CHARGE:  cpu time    0.0751: real time    0.0753
    MIXING:  cpu time    0.0044: real time    0.0044
    --------------------------------------------
      LOOP:  cpu time    1.6194: real time    1.6232

 eigenvalue-minimisations  :  1296
 total energy-change (2. order) : 0.1293051E-01  (-0.3375020E-01)
 number of electron     360.9999948 magnetization       1.1756456
 augmentation part      118.8924721 magnetization       0.8523797

 Broyden mixing:
  rms(total) = 0.27279E+00    rms(broyden)= 0.27273E+00
  rms(prec ) = 0.34607E+00
  weight for this iteration     100.00

 eigenvalues of (default mixing * dielectric matrix)
  average eigenvalue GAMMA=   0.5610
  2.1905  1.1949  0.9035  0.9035  0.4495  0.4495  0.4845  0.4845  0.3485  0.2479
  0.2082  0.1652  0.1517  0.1151  0.1184

 Free energy of the ion-electron system (eV)
  ---------------------------------------------------
  alpha Z        PSCENC =      1098.52824971
  Ewald energy   TEWEN  =    -19860.17679283
  -Hartree energ DENC   =    -12143.05793805
  -exchange      EXHF   =         0.00000000
  -V(xc)+E(xc)   XCENC  =      1449.05468547
  PAW double counting   =     35705.95006122   -36925.87703122
  entropy T*S    EENTRO =        -0.00349929
  eigenvalues    EBANDS =     -1260.57009939
  atomic energy  EATOM  =     31616.72437543
  Solvation  Ediel_sol  =         0.00000000
  ---------------------------------------------------
  free energy    TOTEN  =      -319.42798895 eV

  energy without entropy =     -319.42448967  energy(sigma->0) =     -319.42623931


--------------------------------------------------------------------------------------------------------




--------------------------------------- Iteration      1(  21)  ---------------------------------------


    POTLOK:  cpu time    0.1089: real time    0.1092
    SETDIJ:  cpu time    0.0163: real time    0.0163
     EDDAV:  cpu time    1.4413: real time    1.4447
    CHARGE:  cpu time    0.0761: real time    0.0763
    MIXING:  cpu time    0.0045: real time    0.0045
    --------------------------------------------
      LOOP:  cpu time    1.6471: real time    1.6510

 eigenvalue-minimisations  :  1328
 total energy-change (2. order) : 0.1448734E-01  (-0.1555763E-01)
 number of electron     360.9999948 magnetization       1.1126499
 augmentation part      118.8869416 magnetization       0.8062144

 Broyden mixing:
  rms(total) = 0.20173E+00    rms(broyden)= 0.20170E+00
  rms(prec ) = 0.24585E+00
  weight for this iteration     100.00

 eigenvalues of (default mixing * dielectric matrix)
  average eigenvalue GAMMA=   0.5737
  2.2309  1.3909  0.9560  0.9560  0.5689  0.5689  0.4404  0.4404  0.4096  0.2566
  0.2058  0.2058  0.1636  0.1516  0.1151  0.1185

 Free energy of the ion-electron system (eV)
  ---------------------------------------------------
  alpha Z        PSCENC =      1098.52824971
  Ewald energy   TEWEN  =    -19860.17679283
  -Hartree energ DENC   =    -12143.21029762
  -exchange      EXHF   =         0.00000000
  -V(xc)+E(xc)   XCENC  =      1449.04135569
  PAW double counting   =     35719.54401538   -36939.36414930
  entropy T*S    EENTRO =        -0.00438820
  eigenvalues    EBANDS =     -1260.49586987
  atomic energy  EATOM  =     31616.72437543
  Solvation  Ediel_sol  =         0.00000000
  ---------------------------------------------------
  free energy    TOTEN  =      -319.41350161 eV

  energy without entropy =     -319.40911341  energy(sigma->0) =     -319.41130751


--------------------------------------------------------------------------------------------------------




--------------------------------------- Iteration      1(  22)  ---------------------------------------


    POTLOK:  cpu time    0.1104: real time    0.1107
    SETDIJ:  cpu time    0.0161: real time    0.0161
     EDDAV:  cpu time    1.4847: real time    1.4882
    CHARGE:  cpu time    0.0760: real time    0.0761
    MIXING:  cpu time    0.0048: real time    0.0048
    --------------------------------------------
      LOOP:  cpu time    1.6919: real time    1.6959

 eigenvalue-minimisations  :  1376
 total energy-change (2. order) : 0.6768292E-02  (-0.5602750E-02)
 number of electron     360.9999948 magnetization       1.0552459
 augmentation part      118.8795146 magnetization       0.7585155

 Broyden mixing:
  rms(total) = 0.15953E+00    rms(broyden)= 0.15952E+00
  rms(prec ) = 0.19349E+00
  weight for this iteration     100.00

 eigenvalues of (default mixing * dielectric matrix)
  average eigenvalue GAMMA=   0.5714
  2.2525  1.4655  1.0054  1.0054  0.5958  0.5958  0.4301  0.4301  0.3766  0.3513
  0.2339  0.2339  0.1901  0.1622  0.1515  0.1151  0.1184

 Free energy of the ion-electron system (eV)
  ---------------------------------------------------
  alpha Z        PSCENC =      1098.52824971
  Ewald energy   TEWEN  =    -19860.17679283
  -Hartree energ DENC   =    -12143.57058774
  -exchange      EXHF   =         0.00000000
  -V(xc)+E(xc)   XCENC  =      1449.03937755
  PAW double counting   =     35723.44191474   -36943.02303103
  entropy T*S    EENTRO =        -0.00461789
  eigenvalues    EBANDS =     -1260.36562125
  atomic energy  EATOM  =     31616.72437543
  Solvation  Ediel_sol  =         0.00000000
  ---------------------------------------------------
  free energy    TOTEN  =      -319.40673332 eV

  energy without entropy =     -319.40211542  energy(sigma->0) =     -319.40442437


--------------------------------------------------------------------------------------------------------




--------------------------------------- Iteration      1(  23)  ---------------------------------------


    POTLOK:  cpu time    0.1097: real time    0.1100
    SETDIJ:  cpu time    0.0162: real time    0.0162
     EDDAV:  cpu time    1.4274: real time    1.4307
    CHARGE:  cpu time    0.0812: real time    0.0814
    MIXING:  cpu time    0.0053: real time    0.0053
    --------------------------------------------
      LOOP:  cpu time    1.6398: real time    1.6437

 eigenvalue-minimisations  :  1312
 total energy-change (2. order) : 0.6302580E-03  (-0.3762218E-02)
 number of electron     360.9999948 magnetization       1.0381959
 augmentation part      118.8661740 magnetization       0.7461030

 Broyden mixing:
  rms(total) = 0.13774E+00    rms(broyden)= 0.13771E+00
  rms(prec ) = 0.16153E+00
  weight for this iteration     100.00

 eigenvalues of (default mixing * dielectric matrix)
  average eigenvalue GAMMA=   0.5405
  2.2531  1.4652  1.0043  1.0043  0.5966  0.5966  0.4306  0.4306  0.3851  0.3422
  0.2332  0.2332  0.1899  0.1622  0.1515  0.1151  0.1184  0.0163

 Free energy of the ion-electron system (eV)
  ---------------------------------------------------
  alpha Z        PSCENC =      1098.52824971
  Ewald energy   TEWEN  =    -19860.17679283
  -Hartree energ DENC   =    -12144.13673650
  -exchange      EXHF   =         0.00000000
  -V(xc)+E(xc)   XCENC  =      1449.05011204
  PAW double counting   =     35726.42720068   -36945.88347686
  entropy T*S    EENTRO =        -0.00397428
  eigenvalues    EBANDS =     -1259.93506045
  atomic energy  EATOM  =     31616.72437543
  Solvation  Ediel_sol  =         0.00000000
  ---------------------------------------------------
  free energy    TOTEN  =      -319.40610306 eV

  energy without entropy =     -319.40212878  energy(sigma->0) =     -319.40411592


--------------------------------------------------------------------------------------------------------




--------------------------------------- Iteration      1(  24)  ---------------------------------------


    POTLOK:  cpu time    0.1129: real time    0.1132
    SETDIJ:  cpu time    0.0164: real time    0.0164
     EDDAV:  cpu time    1.4218: real time    1.4252
    CHARGE:  cpu time    0.0750: real time    0.0752
    MIXING:  cpu time    0.0054: real time    0.0054
    --------------------------------------------
      LOOP:  cpu time    1.6315: real time    1.6354

 eigenvalue-minimisations  :  1312
 total energy-change (2. order) : 0.4368101E-03  (-0.1030502E-02)
 number of electron     360.9999948 magnetization       1.0373713
 augmentation part      118.8618248 magnetization       0.7469925

 Broyden mixing:
  rms(total) = 0.12439E+00    rms(broyden)= 0.12438E+00
  rms(prec ) = 0.14198E+00
  weight for this iteration     100.00

 eigenvalues of (default mixing * dielectric matrix)
  average eigenvalue GAMMA=   0.5766
  2.2624  1.5090  1.0202  1.0202  0.7599  0.6266  0.6266  0.4298  0.4298  0.4268
  0.4268  0.2545  0.2354  0.2048  0.1151  0.1184  0.1515  0.1623  0.1747

 Free energy of the ion-electron system (eV)
  ---------------------------------------------------
  alpha Z        PSCENC =      1098.52824971
  Ewald energy   TEWEN  =    -19860.17679283
  -Hartree energ DENC   =    -12144.40185458
  -exchange      EXHF   =         0.00000000
  -V(xc)+E(xc)   XCENC  =      1449.05721541
  PAW double counting   =     35725.91452898   -36945.27587840
  entropy T*S    EENTRO =        -0.00382900
  eigenvalues    EBANDS =     -1259.77168097
  atomic energy  EATOM  =     31616.72437543
  Solvation  Ediel_sol  =         0.00000000
  ---------------------------------------------------
  free energy    TOTEN  =      -319.40566625 eV

  energy without entropy =     -319.40183724  energy(sigma->0) =     -319.40375175


--------------------------------------------------------------------------------------------------------




--------------------------------------- Iteration      1(  25)  ---------------------------------------


    POTLOK:  cpu time    0.1103: real time    0.1105
    SETDIJ:  cpu time    0.0166: real time    0.0166
     EDDAV:  cpu time    1.2545: real time    1.2574
    CHARGE:  cpu time    0.0744: real time    0.0746
    MIXING:  cpu time    0.0052: real time    0.0052
    --------------------------------------------
      LOOP:  cpu time    1.4609: real time    1.4643

 eigenvalue-minimisations  :  1120
 total energy-change (2. order) :-0.2261263E-03  (-0.1512950E-03)
 number of electron     360.9999948 magnetization       1.0176477
 augmentation part      118.8618498 magnetization       0.7279481

 Broyden mixing:
  rms(total) = 0.12921E+00    rms(broyden)= 0.12921E+00
  rms(prec ) = 0.14587E+00
  weight for this iteration     100.00

 eigenvalues of (default mixing * dielectric matrix)
  average eigenvalue GAMMA=   0.5764
  2.3131  1.6692  1.0862  1.0862  0.5427  0.6819  0.6819  0.4344  0.4344  0.4706
  0.4706  0.2973  0.2354  0.2046  0.2046  0.1151  0.1184  0.1516  0.1616  0.1686

 Free energy of the ion-electron system (eV)
  ---------------------------------------------------
  alpha Z        PSCENC =      1098.52824971
  Ewald energy   TEWEN  =    -19860.17679283
  -Hartree energ DENC   =    -12144.41844099
  -exchange      EXHF   =         0.00000000
  -V(xc)+E(xc)   XCENC  =      1449.05793490
  PAW double counting   =     35725.88020616   -36945.23845700
  entropy T*S    EENTRO =        -0.00373763
  eigenvalues    EBANDS =     -1259.75923012
  atomic energy  EATOM  =     31616.72437543
  Solvation  Ediel_sol  =         0.00000000
  ---------------------------------------------------
  free energy    TOTEN  =      -319.40589237 eV

  energy without entropy =     -319.40215474  energy(sigma->0) =     -319.40402356


--------------------------------------------------------------------------------------------------------




--------------------------------------- Iteration      1(  26)  ---------------------------------------


    POTLOK:  cpu time    0.1093: real time    0.1095
    SETDIJ:  cpu time    0.0162: real time    0.0162
     EDDAV:  cpu time    1.3653: real time    1.3685
    CHARGE:  cpu time    0.0758: real time    0.0760
    MIXING:  cpu time    0.0055: real time    0.0055
    --------------------------------------------
      LOOP:  cpu time    1.5720: real time    1.5757

 eigenvalue-minimisations  :  1248
 total energy-change (2. order) : 0.1777138E-02  (-0.9715164E-03)
 number of electron     360.9999948 magnetization       0.9892301
 augmentation part      118.8594302 magnetization       0.7028376

 Broyden mixing:
  rms(total) = 0.13391E+00    rms(broyden)= 0.13391E+00
  rms(prec ) = 0.15343E+00
  weight for this iteration     100.00

 eigenvalues of (default mixing * dielectric matrix)
  average eigenvalue GAMMA=   0.6103
  2.3691  1.9490  1.1526  1.1526  0.7399  0.7550  0.7550  0.5250  0.5250  0.4384
  0.4384  0.4127  0.2690  0.2329  0.2169  0.1887  0.1151  0.1184  0.1624  0.1506
  0.1502

 Free energy of the ion-electron system (eV)
  ---------------------------------------------------
  alpha Z        PSCENC =      1098.52824971
  Ewald energy   TEWEN  =    -19860.17679283
  -Hartree energ DENC   =    -12144.42956702
  -exchange      EXHF   =         0.00000000
  -V(xc)+E(xc)   XCENC  =      1449.04541592
  PAW double counting   =     35727.44151838   -36946.72414817
  entropy T*S    EENTRO =        -0.00420803
  eigenvalues    EBANDS =     -1259.80895862
  atomic energy  EATOM  =     31616.72437543
  Solvation  Ediel_sol  =         0.00000000
  ---------------------------------------------------
  free energy    TOTEN  =      -319.40411524 eV

  energy without entropy =     -319.39990720  energy(sigma->0) =     -319.40201122


--------------------------------------------------------------------------------------------------------




--------------------------------------- Iteration      1(  27)  ---------------------------------------


    POTLOK:  cpu time    0.1085: real time    0.1088
    SETDIJ:  cpu time    0.0163: real time    0.0163
     EDDAV:  cpu time    1.4061: real time    1.4094
    CHARGE:  cpu time    0.0751: real time    0.0752
    MIXING:  cpu time    0.0057: real time    0.0057
    --------------------------------------------
      LOOP:  cpu time    1.6117: real time    1.6155

 eigenvalue-minimisations  :  1296
 total energy-change (2. order) : 0.2756626E-02  (-0.6769294E-03)
 number of electron     360.9999948 magnetization       0.9798487
 augmentation part      118.8489214 magnetization       0.6939733

 Broyden mixing:
  rms(total) = 0.11274E+00    rms(broyden)= 0.11273E+00
  rms(prec ) = 0.12721E+00
  weight for this iteration     100.00

 eigenvalues of (default mixing * dielectric matrix)
  average eigenvalue GAMMA=   0.6116
  2.3390  2.1255  1.1741  1.1741  0.8402  0.7710  0.7710  0.5303  0.5303  0.4387
  0.4387  0.4230  0.2904  0.2798  0.2323  0.2127  0.1872  0.1151  0.1184  0.1625
  0.1508  0.1508

 Free energy of the ion-electron system (eV)
  ---------------------------------------------------
  alpha Z        PSCENC =      1098.52824971
  Ewald energy   TEWEN  =    -19860.17679283
  -Hartree energ DENC   =    -12144.68261530
  -exchange      EXHF   =         0.00000000
  -V(xc)+E(xc)   XCENC  =      1449.03710029
  PAW double counting   =     35727.30472958   -36946.43430586
  entropy T*S    EENTRO =        -0.00438425
  eigenvalues    EBANDS =     -1259.69771538
  atomic energy  EATOM  =     31616.72437543
  Solvation  Ediel_sol  =         0.00000000
  ---------------------------------------------------
  free energy    TOTEN  =      -319.40135861 eV

  energy without entropy =     -319.39697436  energy(sigma->0) =     -319.39916649


--------------------------------------------------------------------------------------------------------




--------------------------------------- Iteration      1(  28)  ---------------------------------------


    POTLOK:  cpu time    0.1094: real time    0.1097
    SETDIJ:  cpu time    0.0174: real time    0.0175
     EDDAV:  cpu time    1.4552: real time    1.4587
    CHARGE:  cpu time    0.0760: real time    0.0761
    MIXING:  cpu time    0.0059: real time    0.0059
    --------------------------------------------
      LOOP:  cpu time    1.6639: real time    1.6679

 eigenvalue-minimisations  :  1344
 total energy-change (2. order) : 0.1981372E-02  (-0.7297412E-03)
 number of electron     360.9999948 magnetization       0.9854082
[...]
  -------------------------------------------------------------------------------------
  Total        0.3694368      0.3924592      0.9552898      0.0013019      0.0015629      0.0745690
  in kB        1.1383173      1.2092547      2.9434615      0.0040114      0.0048155      0.2297637
  external PRESSURE =       1.7636778 kB  Pullay stress =       0.0000000 kB


 VOLUME and BASIS-vectors are now :
 -----------------------------------------------------------------------------
  energy-cutoff  :      500.00
  volume of cell :      519.98
      direct lattice vectors                 reciprocal lattice vectors
     0.000010637  5.561676725 -0.000198716    -0.000000107  0.179801893  0.000005894
    -3.486893153 -0.000316060  9.578446576    -0.001304398  0.000003716  0.103926216
     9.716430058  0.000001784  0.121952779     0.102450355  0.000001137  0.037295551

  length of vectors
     5.561676729 10.193383284  9.717195354     0.179801893  0.103934401  0.109027672


 FORCES acting on ions
    electron-ion (+dipol)            ewald-force                    non-local-force                 convergence-correction
 -----------------------------------------------------------------------------------------------
   0.627E-02 -.244E-01 -.638E-01   -.116E-01 0.241E-01 0.680E-01   -.324E-02 0.229E-02 0.102E-02   0.792E-02 -.753E-03 -.421E-02
   0.142E+00 0.265E+00 -.345E+00   -.133E+00 -.252E+00 0.355E+00   -.196E-02 -.209E-01 0.503E-02   -.658E-02 0.310E-02 -.106E-01
   -.691E-01 0.329E+00 0.230E+00   0.771E-01 -.311E+00 -.233E+00   -.761E-03 -.267E-01 -.444E-02   -.754E-02 0.327E-02 0.457E-02
   0.986E+00 0.240E+02 -.124E+02   -.996E+00 -.244E+02 0.126E+02   0.386E-01 0.385E+00 -.105E+00   -.316E-01 -.167E-01 -.208E-01
   -.177E+00 -.631E-02 -.267E+02   0.215E+00 0.399E-02 0.266E+02   -.443E-01 0.321E-02 0.149E+00   0.961E-04 0.956E-03 -.144E-01
   0.284E+02 0.260E-01 0.377E+02   -.288E+02 -.286E-01 -.384E+02   0.358E+00 0.193E-02 0.753E+00   0.173E-01 0.951E-03 0.244E-01
   0.680E+01 -.748E-02 -.183E+02   -.698E+01 0.108E-01 0.181E+02   0.153E+00 -.130E-03 0.191E+00   0.201E-01 -.291E-02 0.211E-01
   -.548E+01 0.128E-01 -.215E+02   0.543E+01 -.857E-02 0.215E+02   0.516E-01 0.169E-02 0.358E-01   -.899E-02 -.569E-02 -.157E-01
   0.968E+00 -.241E+02 -.126E+02   -.981E+00 0.245E+02 0.128E+02   0.391E-01 -.387E+00 -.109E+00   -.299E-01 0.130E-01 -.210E-01
   -.147E+02 0.867E+01 0.313E+02   0.151E+02 -.885E+01 -.323E+02   -.412E+00 0.178E+00 0.965E+00   0.504E-02 0.234E-02 -.553E-02
   -.147E+02 -.864E+01 0.313E+02   0.151E+02 0.882E+01 -.322E+02   -.411E+00 -.180E+00 0.965E+00   0.337E-02 0.369E-03 -.623E-02
   0.149E+02 0.846E+01 -.314E+02   -.154E+02 -.860E+01 0.323E+02   0.419E+00 0.189E+00 -.967E+00   0.425E-01 -.386E-01 0.160E-01
   0.182E+00 0.243E-01 0.264E+02   -.222E+00 -.280E-01 -.262E+02   0.295E-01 -.157E-02 -.162E+00   0.765E-02 0.573E-02 0.209E-01
   -.287E+02 0.374E-01 -.371E+02   0.291E+02 -.411E-01 0.379E+02   -.369E+00 -.175E-02 -.750E+00   -.149E-01 0.535E-02 -.101E-01
   -.701E+01 -.543E-02 0.188E+02   0.718E+01 0.867E-02 -.185E+02   -.165E+00 0.183E-02 -.190E+00   -.910E-02 -.483E-02 -.154E-01
   0.539E+01 -.586E-02 0.214E+02   -.533E+01 0.867E-02 -.213E+02   -.601E-01 0.134E-02 -.440E-01   0.461E-02 -.383E-02 0.252E-01
   0.149E+02 -.845E+01 -.313E+02   -.154E+02 0.859E+01 0.323E+02   0.419E+00 -.190E+00 -.966E+00   0.427E-01 0.406E-01 0.161E-01
   -.848E+00 0.241E+02 0.123E+02   0.902E+00 -.244E+02 -.125E+02   -.279E-01 0.380E+00 0.109E+00   -.176E-01 -.275E-01 -.141E-02
   -.829E+00 -.241E+02 0.125E+02   0.884E+00 0.245E+02 -.126E+02   -.289E-01 -.384E+00 0.113E+00   -.178E-01 0.270E-01 -.166E-02
   -.587E+01 0.320E+02 0.382E+03   0.634E+01 -.346E+02 -.404E+03   -.489E+00 0.259E+01 0.226E+02   0.232E-01 -.692E-02 -.212E-01
   -.339E+01 0.943E+00 -.391E+03   0.311E+01 -.121E+01 0.418E+03   0.270E+00 0.309E+00 -.268E+02   0.622E-02 -.399E-01 0.489E-01
   0.578E+01 0.320E+02 -.382E+03   -.625E+01 -.346E+02 0.404E+03   0.477E+00 0.259E+01 -.226E+02   -.409E-02 -.275E-01 0.239E-01
   0.341E+01 0.953E+00 0.391E+03   -.314E+01 -.129E+01 -.418E+03   -.269E+00 0.319E+00 0.268E+02   0.649E-02 0.184E-01 -.203E-01
   0.388E+02 0.146E+00 0.386E+03   -.423E+02 -.178E+00 -.408E+03   0.360E+01 0.134E-01 0.217E+02   -.388E-01 0.183E-01 -.383E-01
   -.436E+02 0.147E+00 -.374E+03   0.471E+02 -.179E+00 0.396E+03   -.347E+01 0.142E-01 -.222E+02   -.514E-01 0.179E-01 0.536E-01
   -.186E+02 -.121E+00 -.391E+03   0.196E+02 0.146E+00 0.418E+03   -.990E+00 -.704E-02 -.268E+02   0.199E-02 -.181E-01 0.300E-01
   0.218E+02 -.675E-01 0.405E+03   -.233E+02 0.912E-01 -.431E+03   0.152E+01 -.483E-02 0.262E+02   -.126E-01 -.186E-01 -.400E-01
   -.387E+02 0.131E+00 -.386E+03   0.423E+02 -.165E+00 0.408E+03   -.360E+01 0.129E-01 -.217E+02   -.422E-02 0.207E-01 0.133E-01
   0.436E+02 0.197E+00 0.374E+03   -.471E+02 -.236E+00 -.396E+03   0.347E+01 0.178E-01 0.222E+02   0.113E-01 0.201E-01 -.181E-01
   0.186E+02 -.938E-01 0.391E+03   -.196E+02 0.119E+00 -.418E+03   0.989E+00 -.413E-02 0.268E+02   0.143E-01 -.215E-01 -.214E-01
   -.218E+02 -.959E-01 -.405E+03   0.233E+02 0.124E+00 0.431E+03   -.150E+01 -.643E-02 -.262E+02   0.515E-03 -.217E-01 0.147E-01
   -.588E+01 -.320E+02 0.382E+03   0.635E+01 0.346E+02 -.404E+03   -.495E+00 -.259E+01 0.226E+02   0.351E-01 0.633E-02 -.253E-01
   -.338E+01 -.101E+01 -.391E+03   0.311E+01 0.129E+01 0.418E+03   0.273E+00 -.317E+00 -.268E+02   -.647E-02 0.398E-01 0.532E-01
   0.579E+01 -.321E+02 -.382E+03   -.626E+01 0.346E+02 0.404E+03   0.483E+00 -.259E+01 -.226E+02   -.802E-02 0.251E-01 0.225E-01
   0.341E+01 -.954E+00 0.391E+03   -.314E+01 0.129E+01 -.418E+03   -.272E+00 -.322E+00 0.268E+02   0.104E-01 -.187E-01 -.194E-01
   -.262E+02 0.274E+02 0.374E+03   0.281E+02 -.292E+02 -.397E+03   -.194E+01 0.186E+01 0.225E+02   -.821E-02 -.375E-01 -.475E-01
   0.176E+02 0.306E+02 -.362E+03   -.187E+02 -.329E+02 0.384E+03   0.117E+01 0.225E+01 -.226E+02   -.345E-01 -.754E-02 0.266E-01
   0.264E+02 0.274E+02 -.374E+03   -.283E+02 -.293E+02 0.397E+03   0.195E+01 0.186E+01 -.224E+02   -.647E-02 0.174E-01 0.154E-01
   -.178E+02 0.307E+02 0.362E+03   0.190E+02 -.329E+02 -.384E+03   -.120E+01 0.225E+01 0.226E+02   0.302E-02 -.282E-01 -.216E-01
   0.325E+02 0.304E-01 0.372E+03   -.360E+02 -.220E-01 -.394E+03   0.347E+01 0.203E-02 0.219E+02   0.389E-01 -.922E-02 -.612E-01
   0.614E+01 0.105E-01 -.397E+03   -.577E+01 -.862E-03 0.424E+03   -.429E+00 -.337E-03 -.268E+02   0.517E-01 -.906E-02 0.386E-01
   -.759E+01 -.294E-01 -.394E+03   0.894E+01 0.201E-01 0.421E+03   -.137E+01 0.151E-02 -.273E+02   0.276E-01 0.856E-02 0.429E-01
   0.716E+01 0.234E-02 0.399E+03   -.717E+01 -.133E-01 -.425E+03   0.226E-01 0.256E-02 0.263E+02   -.167E-01 0.864E-02 -.371E-01
   -.329E+02 -.130E-01 -.372E+03   0.364E+02 0.168E-01 0.394E+03   -.348E+01 -.353E-04 -.219E+02   0.114E-01 -.244E-02 0.291E-01
   -.586E+01 0.230E-01 0.397E+03   0.541E+01 -.219E-01 -.424E+03   0.460E+00 0.141E-02 0.268E+02   -.326E-02 -.184E-02 -.214E-01
   0.786E+01 -.531E-03 0.394E+03   -.924E+01 -.269E-02 -.421E+03   0.139E+01 0.246E-02 0.273E+02   -.112E-01 0.170E-02 -.211E-01
   -.728E+01 -.134E-01 -.399E+03   0.730E+01 0.108E-01 0.425E+03   -.288E-01 0.122E-02 -.263E+02   0.889E-02 0.188E-02 0.288E-01
   -.264E+02 -.275E+02 0.374E+03   0.284E+02 0.294E+02 -.396E+03   -.198E+01 -.187E+01 0.224E+02   -.265E-01 0.388E-01 -.402E-01
   0.178E+02 -.308E+02 -.361E+03   -.190E+02 0.331E+02 0.384E+03   0.121E+01 -.227E+01 -.225E+02   -.160E-01 0.747E-02 0.193E-01
   0.266E+02 -.275E+02 -.374E+03   -.286E+02 0.294E+02 0.396E+03   0.199E+01 -.188E+01 -.224E+02   0.122E-01 -.178E-01 0.574E-02
   -.181E+02 -.308E+02 0.361E+03   0.194E+02 0.331E+02 -.384E+03   -.123E+01 -.227E+01 0.225E+02   -.149E-01 0.268E-01 -.115E-01
 -----------------------------------------------------------------------------------------------
   0.158E-01 0.102E+00 -.537E-02   0.316E-12 -.306E-12 -.114E-12   -.217E-01 -.907E-01 0.296E-02   0.705E-02 -.681E-02 0.214E-02
 
 
 POSITION                                       TOTAL-FORCE (eV/Angst)
 -----------------------------------------------------------------------------------
      3.98851      1.39094      2.45565        -0.000632      0.001223      0.000971
      8.84392      1.39865      2.51516         0.000618     -0.004467      0.004630
     -2.61371      1.40073      7.18483        -0.000393     -0.004854     -0.002690
      6.22498      5.55389      9.69588        -0.003478      0.006391     -0.004481
      2.43153      1.39158      0.03268        -0.006540      0.001771     -0.005999
      3.79700      1.39131      9.62237        -0.002808      0.000212      0.002811
      3.79925      4.17225      9.66188        -0.003930      0.000193      0.003814
     -1.05398      4.17229      9.60384        -0.003950      0.000161     -0.005497
      6.22493      2.79083      9.69616        -0.003102     -0.003988     -0.004767
      1.36843      5.55678      9.58651         0.003630     -0.002147     -0.003470
      1.36840      2.78733      9.58664         0.003658      0.001975     -0.003213
      3.11770      5.55710      4.90306        -0.001072      0.008437     -0.001396
      5.54139      1.39183      4.87976        -0.002911      0.000367      0.005522
      0.68851      1.39182      4.86602         0.001486     -0.000194      0.000032
      0.68644      4.17274      4.82642        -0.000560      0.000150     -0.001813
      5.53993      4.17281      4.88664        -0.000265      0.000234      0.005322
      3.11770      2.78799      4.90312        -0.000849     -0.007804     -0.001723
     -1.73889      5.55449      4.79365         0.008782      0.001984      0.003781
     -1.73887      2.79130      4.79361         0.008754     -0.001823      0.003807
      4.75816      0.01231      3.94413         0.000742      0.000845      0.007041
      1.44711      5.54925      5.78621        -0.002553     -0.000329     -0.006252
      3.21507      0.01210      0.96800        -0.001051      0.000451     -0.009392
      3.03811      5.54868      8.70202         0.004073      0.000077      0.006821
      7.25041      1.39200      3.94188         0.007171     -0.000672      0.007558
     -1.02797      1.39215      5.77740         0.000600      0.000110     -0.001463
     -0.98667      4.17282      5.74066         0.005629     -0.000380     -0.001653
      7.23356      4.17290      3.96339         0.002835      0.000121      0.008768
      0.72197      1.39188      0.97025        -0.008254     -0.001092     -0.008884
      5.51497      1.39159      8.71201        -0.009353     -0.000351      0.003984
      5.47331      4.17226      8.74858        -0.006563     -0.000906      0.001117
      0.73867      4.17276      0.94842         0.001136      0.000057     -0.008936
      4.75812      2.77119      3.94403         0.001525     -0.000101      0.007120
      1.44717      2.79606      5.78622        -0.002857      0.000689     -0.005908
      3.21510      2.77117      0.96789        -0.000918     -0.001708     -0.008484
      3.03805      2.79554      8.70213         0.004377      0.000086      0.007385
     -0.08297      0.02818      3.88873         0.003513     -0.000948     -0.003175
      6.31854      0.01292      5.82680         0.002578      0.001113     -0.001201
      8.05532      0.02818      1.02140        -0.003025     -0.001116      0.002447
     -1.83249      0.01231      8.66392        -0.001539      0.001020      0.000178
      2.39000      1.39166      3.93521         0.010854      0.001129      0.004255
      3.89564      1.39173      5.83252        -0.004760      0.000195      0.003108
      3.87686      4.17257      5.83570        -0.000425      0.000663      0.001811
      2.36401      4.17253      3.95062         0.003743      0.000129      0.002831
      5.58290      1.39154      0.97596        -0.002690      0.001225     -0.000769
      0.59026      1.39115      8.65779         0.004305      0.000539     -0.002754
      0.60924      4.17198      8.65421        -0.002718      0.000858      0.002550
      5.60926      4.17241      0.96031        -0.004894      0.000484     -0.002544
     -0.08294      2.75554      3.88837         0.003429      0.001665     -0.002940
      6.31850      2.77118      5.82671         0.003635     -0.001330     -0.001171
      8.05532      2.75535      1.02151        -0.003388      0.000692      0.001851
     -1.83257      2.77057      8.66377        -0.001600     -0.001036      0.001062
 -----------------------------------------------------------------------------------
    total drift:                                0.001126      0.004133     -0.000269


--------------------------------------------------------------------------------------------------------



  FREE ENERGIE OF THE ION-ELECTRON SYSTEM (eV)
  ---------------------------------------------------
  free  energy   TOTEN  =      -319.4025949127 eV

  energy  without entropy=     -319.3971105367  energy(sigma->0) =     -319.39985272
 
 d Force = 0.2193062E-03[ 0.121E-03, 0.318E-03]  d Energy = 0.4857405E-03-0.266E-03
 d Force =-0.4308456E+01[-0.431E+01,-0.430E+01]  d Ewald  =-0.9922691E+01 0.561E+01


--------------------------------------------------------------------------------------------------------


    POTLOK:  cpu time    0.1269: real time    0.1272


--------------------------------------------------------------------------------------------------------


 Quasi-Newton relaxation of ions (Broydens 2nd method)
  g(Force)  = 0.112E-03   g(Stress)= 0.115E-02

 retain information from N=  1 steps
 eigenvalues of (default step * inverse Hessian matrix)
  average eigenvalue of G=   0.2191
 eigenvalue spectrum of G is  0.2191


--------------------------------------------------------------------------------------------------------


  
 reached required accuracy - stopping structural energy minimisation
     LOOP+:  cpu time   12.5450: real time   12.6296
    4ORBIT:  cpu time    0.0000: real time    0.0000

volume of typ            1:     4.5 %

volume of typ            2:    19.6 %

volume of typ            3:    10.0 %
 
total charge     
 
# of ion       s       p       d       tot
------------------------------------------
    1        2.058   0.177   0.067   2.302
    2        2.060   0.188   0.071   2.319
    3        2.063   0.191   0.074   2.328
    4        0.303   0.432   7.838   8.574
    5        0.297   0.417   7.846   8.560
    6        0.291   0.407   7.840   8.538
    7        0.294   0.411   7.830   8.536
    8        0.286   0.395   7.831   8.512
    9        0.303   0.433   7.837   8.573
   10        0.302   0.429   7.833   8.564
   11        0.302   0.429   7.833   8.564
   12        0.302   0.429   7.833   8.564
   13        0.297   0.417   7.845   8.560
   14        0.291   0.407   7.842   8.540
   15        0.294   0.412   7.829   8.535
   16        0.286   0.395   7.831   8.512
   17        0.302   0.429   7.833   8.565
   18        0.303   0.432   7.839   8.574
   19        0.303   0.432   7.838   8.574
   20        1.273   2.757   0.008   4.038
   21        1.285   2.724   0.008   4.018
   22        1.273   2.757   0.008   4.038
   23        1.285   2.724   0.008   4.018
   24        1.273   2.756   0.007   4.037
   25        1.274   2.754   0.007   4.035
   26        1.283   2.731   0.008   4.022
   27        1.284   2.729   0.008   4.021
   28        1.273   2.756   0.007   4.037
   29        1.274   2.754   0.007   4.035
   30        1.283   2.731   0.008   4.022
   31        1.284   2.729   0.008   4.021
   32        1.273   2.757   0.008   4.038
   33        1.285   2.724   0.008   4.018
   34        1.273   2.757   0.008   4.038
   35        1.285   2.724   0.008   4.018
   36        1.273   2.759   0.008   4.039
   37        1.274   2.757   0.008   4.038
   38        1.273   2.759   0.008   4.039
   39        1.274   2.757   0.008   4.038
   40        1.274   2.755   0.008   4.036
   41        1.285   2.723   0.008   4.016
   42        1.285   2.725   0.008   4.018
   43        1.283   2.732   0.008   4.024
   44        1.274   2.755   0.008   4.036
   45        1.285   2.723   0.008   4.016
   46        1.285   2.724   0.008   4.018
   47        1.283   2.732   0.008   4.024
   48        1.273   2.759   0.008   4.040
   49        1.274   2.757   0.008   4.039
   50        1.273   2.759   0.008   4.040
   51        1.274   2.758   0.008   4.039
--------------------------------------------------
tot          51.84   95.06  125.84  272.75
 
magnetization (x)
 
# of ion       s       p       d       tot
------------------------------------------
    1       -0.000   0.001  -0.000   0.000
    2        0.000   0.001  -0.000   0.001
    3       -0.000   0.000  -0.000   0.000
    4        0.000   0.000   0.098   0.098
    5       -0.000   0.001   0.009   0.010
    6       -0.000   0.001   0.011   0.011
    7       -0.000   0.001   0.004   0.004
    8       -0.000   0.000   0.007   0.007
    9        0.000   0.000   0.098   0.098
   10        0.000   0.000   0.089   0.089
   11        0.000   0.000   0.088   0.089
   12        0.000  -0.000   0.090   0.090
   13       -0.000   0.001  -0.008  -0.008
   14       -0.000   0.001  -0.034  -0.033
   15       -0.000   0.001  -0.009  -0.009
   16       -0.000   0.001  -0.025  -0.024
   17        0.000  -0.000   0.090   0.090
   18        0.000  -0.000   0.100   0.100
   19        0.000  -0.000   0.100   0.100
   20        0.001   0.004   0.000   0.004
   21        0.001   0.005   0.000   0.006
   22        0.001   0.005   0.000   0.005
   23        0.001   0.007   0.000   0.009
   24        0.002   0.002   0.000   0.003
   25        0.001  -0.001  -0.000  -0.001
   26        0.001   0.001   0.000   0.002
   27        0.001  -0.001   0.000   0.000
   28        0.002   0.003   0.000   0.004
   29        0.001   0.002   0.000   0.004
   30        0.001   0.001   0.000   0.002
   31        0.001   0.002   0.000   0.004
   32        0.001   0.004   0.000   0.004
   33        0.001   0.005   0.000   0.006
   34        0.001   0.005   0.000   0.005
   35        0.001   0.007   0.000   0.009
   36        0.001   0.005   0.000   0.006
   37        0.001   0.006   0.000   0.007
   38        0.001   0.006   0.000   0.007
   39        0.001   0.007   0.000   0.008
   40        0.001  -0.002  -0.000  -0.001
   41        0.001   0.000   0.000   0.001
   42        0.001  -0.001   0.000  -0.000
   43        0.001   0.001   0.000   0.002
   44        0.002   0.002   0.000   0.004
   45        0.001   0.002   0.000   0.003
   46        0.001   0.002   0.000   0.003
   47        0.001   0.002   0.000   0.003
   48        0.001   0.005   0.000   0.006
   49        0.001   0.006   0.000   0.007
   50        0.001   0.006   0.000   0.007
   51        0.001   0.007   0.000   0.008
--------------------------------------------------
tot           0.03    0.11    0.71    0.85
 

 total amount of memory used by VASP MPI-rank0    92760. kBytes
=======================================================================

   base      :      30000. kBytes
   nonlr-proj:      21361. kBytes
   fftplans  :       5544. kBytes
   grid      :      31764. kBytes
   one-center:        793. kBytes
   wavefun   :       3298. kBytes
 
  
  
 General timing and accounting informations for this job:
 ========================================================
  
                  Total CPU time used (sec):      168.427
                            User time (sec):      166.184
                          System time (sec):        2.243
                         Elapsed time (sec):      172.541
  
                   Maximum memory used (kb):      138708.
                   Average memory used (kb):           0.
  
                          Minor page faults:        36691
                          Major page faults:           50
                 Voluntary context switches:         1218
