 vasp.5.4.4.18Apr17-6-g9f103f2a35 (build May 12 2020 05:39:39) gamma-only       
  
 MD_VERSION_INFO: Compiled 2020-05-12T12:39:39-UTC in devlin.sd.materialsdesign.
 com:/home/medea2/data/build/wwolf/vasp-gpu5.4.4/13047/x86_64/src/src/build/gam 
 from svn 13047
 
 This VASP executable licensed from Materials Design, Inc.
 
 executed on                        Lin64 date 2023.03.07  02:53:00
 running on   16 total cores
 distrk:  each k-point on   16 cores,    1 groups
 distr:  one band on NCORES_PER_BAND=   1 cores,   16 groups


--------------------------------------------------------------------------------------------------------


 INCAR:
 POTCAR:    PAW_PBE Li_sv 10Sep2004               
 POTCAR:    PAW_PBE Ni 02Aug2007                  
 POTCAR:    PAW_PBE O 08Apr2002                   

 ----------------------------------------------------------------------------- 
|                                                                             |
|           W    W    AA    RRRRR   N    N  II  N    N   GGGG   !!!           |
|           W    W   A  A   R    R  NN   N  II  NN   N  G    G  !!!           |
|           W    W  A    A  R    R  N N  N  II  N N  N  G       !!!           |
|           W WW W  AAAAAA  RRRRR   N  N N  II  N  N N  G  GGG   !            |
|           WW  WW  A    A  R   R   N   NN  II  N   NN  G    G                |
|           W    W  A    A  R    R  N    N  II  N    N   GGGG   !!!           |
|                                                                             |
|      For optimal performance we recommend to set                            |
|        NCORE= 4 - approx SQRT( number of cores)                             |
|      NCORE specifies how many cores store one orbital (NPAR=cpu/NCORE).     |
|      This setting can  greatly improve the performance of VASP for DFT.     |
|      The default,   NCORE=1            might be grossly inefficient         |
|      on modern multi-core architectures or massively parallel machines.     |
|      Do your own testing !!!!                                               |
|      Unfortunately you need to use the default for GW and RPA calculations. |
|      (for HF NCORE is supported but not extensively tested yet)             |
|                                                                             |
 ----------------------------------------------------------------------------- 

 POTCAR:    PAW_PBE Li_sv 10Sep2004               
  local pseudopotential read in
  atomic valenz-charges read in
  non local Contribution for L=           0  read in
    real space projection operators read in
  non local Contribution for L=           0  read in
    real space projection operators read in
  non local Contribution for L=           1  read in
    real space projection operators read in
    PAW grid and wavefunctions read in
 
   number of l-projection  operators is LMAX  =           3
   number of lm-projection operators is LMMAX =           5
 
 POTCAR:    PAW_PBE Ni 02Aug2007                  
  local pseudopotential read in
  partial core-charges read in
  partial kinetic energy density read in
  atomic valenz-charges read in
  non local Contribution for L=           2  read in
    real space projection operators read in
  non local Contribution for L=           2  read in
    real space projection operators read in
  non local Contribution for L=           0  read in
    real space projection operators read in
  non local Contribution for L=           0  read in
    real space projection operators read in
  non local Contribution for L=           1  read in
    real space projection operators read in
  non local Contribution for L=           1  read in
    real space projection operators read in
    PAW grid and wavefunctions read in
 
   number of l-projection  operators is LMAX  =           6
   number of lm-projection operators is LMMAX =          18
 
 POTCAR:    PAW_PBE O 08Apr2002                   
  local pseudopotential read in
  partial core-charges read in
  partial kinetic energy density read in
  kinetic energy density of atom read in
  atomic valenz-charges read in
  non local Contribution for L=           0  read in
    real space projection operators read in
  non local Contribution for L=           0  read in
    real space projection operators read in
  non local Contribution for L=           1  read in
    real space projection operators read in
  non local Contribution for L=           1  read in
    real space projection operators read in
    PAW grid and wavefunctions read in
 
   number of l-projection  operators is LMAX  =           4
   number of lm-projection operators is LMMAX =           8
 
 Optimization of the real space projectors (new method)

 maximal supplied QI-value         = 22.11
 optimisation between [QCUT,QGAM] = [ 11.28, 22.77] = [ 35.61,145.23] Ry 
 Optimized for a Real-space Cutoff    1.10 Angstroem

   l    n(q)    QCUT    max X(q) W(low)/X(q) W(high)/X(q)  e(spline) 
   0      7    11.276    10.506    0.54E-04    0.58E-04    0.16E-07
   0      7    11.276     8.367    0.11E-03    0.14E-03    0.35E-07
   1      7    11.276     8.983    0.23E-03    0.43E-03    0.86E-07
 Optimization of the real space projectors (new method)

 maximal supplied QI-value         = 16.25
 optimisation between [QCUT,QGAM] = [ 11.38, 22.75] = [ 36.24,144.96] Ry 
 Optimized for a Real-space Cutoff    1.47 Angstroem

   l    n(q)    QCUT    max X(q) W(low)/X(q) W(high)/X(q)  e(spline) 
   2      9    11.376    60.317    0.17E-03    0.16E-04    0.16E-06
   2      9    11.376    55.921    0.17E-03    0.16E-04    0.17E-06
   0     10    11.376    51.690    0.45E-04    0.60E-04    0.21E-06
   0     10    11.376    30.015    0.37E-04    0.55E-04    0.19E-06
   1     10    11.376    18.849    0.83E-04    0.11E-03    0.92E-07
   1     10    11.376    14.624    0.69E-04    0.92E-04    0.82E-07
 Optimization of the real space projectors (new method)

 maximal supplied QI-value         = 24.76
 optimisation between [QCUT,QGAM] = [ 11.39, 22.77] = [ 36.31,145.25] Ry 
 Optimized for a Real-space Cutoff    1.10 Angstroem

   l    n(q)    QCUT    max X(q) W(low)/X(q) W(high)/X(q)  e(spline) 
   0      7    11.387    20.381    0.22E-03    0.48E-03    0.18E-06
   0      7    11.387    15.268    0.22E-03    0.52E-03    0.19E-06
   1      7    11.387     5.964    0.22E-03    0.73E-03    0.24E-06
   1      7    11.387     5.382    0.19E-03    0.60E-03    0.21E-06

 ----------------------------------------------------------------------------- 
|                                                                             |
|  ADVICE TO THIS USER RUNNING 'VASP/VAMP'   (HEAR YOUR MASTER'S VOICE ...):  |
|                                                                             |
|      You enforced a specific xc-type in the INCAR file,                     |
|      a different type was found on the POTCAR file                          |
|          I HOPE YOU KNOW, WHAT YOU ARE  DOING                               |
|                                                                             |
 ----------------------------------------------------------------------------- 

  PAW_PBE Li_sv 10Sep2004               :
 energy of atom  1       EATOM= -202.7858
 kinetic energy error for atom=    0.0143 (will be added to EATOM!!)
  PAW_PBE Ni 02Aug2007                  :
 energy of atom  2       EATOM=-1077.6739
 kinetic energy error for atom=    0.0030 (will be added to EATOM!!)
  PAW_PBE O 08Apr2002                   :
 energy of atom  3       EATOM= -432.3788
 kinetic energy error for atom=    0.0224 (will be added to EATOM!!)
 
 
 POSCAR: ce1387_1                                
  positions in direct lattice
  No initial velocities read in
 exchange correlation table for  LEXCH =       14
   RHO(1)=    0.500       N(1)  =     2000
   RHO(2)=  100.500       N(2)  =     4000
 


--------------------------------------------------------------------------------------------------------


 ion  position               nearest neighbor table
   1  1.000  0.250  0.249-  40 2.10  49 2.11  37 2.12  45 2.12  31 2.12  52 2.13  13 2.84  21 2.84

   2  1.000  0.750  0.751-  39 2.10  50 2.11  38 2.12  46 2.12  32 2.12  51 2.13  13 2.84  21 2.84

   3  0.250  0.250  0.500-  43 2.11  31 2.11  41 2.11  29 2.11  53 2.11  49 2.11
   4  0.250  0.750  0.500-  44 2.11  32 2.11  42 2.11  30 2.11  54 2.11  50 2.11
   5  0.499  0.250  0.250-  49 2.10  40 2.11  57 2.12  43 2.12  37 2.12  52 2.12  26 2.84  18 2.84

   6  0.499  0.750  0.750-  50 2.10  39 2.11  58 2.12  44 2.12  38 2.12  51 2.12  26 2.84  18 2.84

   7  1.000  0.249  0.750-  53 2.11  36 2.11  47 2.12  33 2.12  56 2.12  29 2.12  19 2.84  27 2.84

   8  1.000  0.751  0.250-  54 2.11  35 2.11  48 2.12  34 2.12  55 2.12  30 2.12  19 2.84  27 2.84

   9  0.750  0.750  0.000-  39 2.10  35 2.10  48 2.11  60 2.11  46 2.11  58 2.12
  10  0.750  0.250  1.000-  40 2.10  36 2.10  47 2.11  59 2.11  45 2.11  57 2.12
  11  0.500  0.250  0.750-  53 2.11  36 2.11  59 2.12  41 2.12  56 2.12  33 2.13  20 2.84  28 2.84

  12  0.500  0.750  0.250-  54 2.11  35 2.11  60 2.12  42 2.12  55 2.12  34 2.13  20 2.84  28 2.84

  13  0.001  0.000  0.000-  37 1.87  38 1.87  39 1.89  40 1.89  47 2.02  48 2.02  18 2.79  18 2.82
                             1 2.84   2 2.84  14 2.85  15 2.85  16 2.87  17 2.87
  14  0.250  0.996  0.248-  31 1.85  43 1.85  48 1.87  60 1.87  37 1.97  54 2.02  17 2.80  17 2.80
                            18 2.85  13 2.85  19 2.87  20 2.87
  15  0.250  0.004  0.752-  32 1.85  44 1.85  47 1.87  59 1.87  38 1.97  53 2.02  16 2.80  16 2.80
                            18 2.85  13 2.85  19 2.87  20 2.87
  16  0.750  0.996  0.748-  47 1.85  59 1.85  44 1.87  32 1.87  56 1.97  39 2.02  15 2.80  15 2.80
                            20 2.85  19 2.85  13 2.87  18 2.87
  17  0.750  0.004  0.252-  48 1.85  60 1.85  43 1.87  31 1.87  55 1.97  40 2.02  14 2.80  14 2.80
                            20 2.85  19 2.85  13 2.87  18 2.87
  18  0.498  0.000  0.000-  37 1.87  38 1.87  39 1.89  40 1.89  59 2.02  60 2.02  13 2.79  13 2.82
                             6 2.84   5 2.84  14 2.85  15 2.85  16 2.87  17 2.87
  19  0.998  0.000  0.500-  55 1.87  56 1.87  53 1.89  54 1.89  31 2.03  32 2.03  20 2.79  20 2.82
                             8 2.84   7 2.84  17 2.85  16 2.85  15 2.87  14 2.87
  20  0.501  0.000  0.500-  55 1.87  56 1.87  53 1.89  54 1.89  43 2.03  44 2.03  19 2.79  19 2.82
                            11 2.84  12 2.84  16 2.85  17 2.85  14 2.87  15 2.87
  21  0.998  0.500  0.500-  51 1.87  52 1.87  49 1.89  50 1.89  29 2.03  30 2.03  26 2.79  26 2.82
                             2 2.84   1 2.84  25 2.85  24 2.85  23 2.87  22 2.87
  22  0.250  0.504  0.752-  29 1.85  41 1.85  58 1.87  46 1.87  33 1.97  50 2.02  25 2.80  25 2.80
                            28 2.85  27 2.85  21 2.87  26 2.87
  23  0.250  0.496  0.248-  30 1.85  42 1.85  57 1.87  45 1.87  34 1.97  49 2.02  24 2.80  24 2.80
                            28 2.85  27 2.85  21 2.87  26 2.87
  24  0.750  0.505  0.252-  45 1.85  57 1.85  42 1.87  30 1.87  52 1.97  35 2.02  23 2.80  23 2.80
                            26 2.85  21 2.85  27 2.87  28 2.87
  25  0.750  0.495  0.748-  46 1.85  58 1.85  41 1.87  29 1.87  51 1.97  36 2.02  22 2.80  22 2.80
                            26 2.85  21 2.85  27 2.87  28 2.87
  26  0.501  0.500  0.500-  51 1.87  52 1.87  49 1.89  50 1.89  41 2.03  42 2.03  21 2.79  21 2.82
                             5 2.84   6 2.84  25 2.85  24 2.85  23 2.87  22 2.87
  27  0.001  0.500  0.000-  33 1.87  34 1.87  35 1.89  36 1.89  45 2.02  46 2.02  28 2.79  28 2.82
                             7 2.84   8 2.84  22 2.85  23 2.85  24 2.87  25 2.87
  28  0.498  0.500  0.000-  33 1.87  34 1.87  35 1.89  36 1.89  57 2.02  58 2.02  27 2.79  27 2.82
                            12 2.84  11 2.84  23 2.85  22 2.85  25 2.87  24 2.87
  29  0.008  0.395  0.639-  22 1.85  25 1.87  21 2.03   3 2.11   7 2.12
  30  0.008  0.605  0.361-  23 1.85  24 1.87  21 2.03   4 2.11   8 2.12
  31  0.008  0.105  0.361-  14 1.85  17 1.87  19 2.03   3 2.11   1 2.12
  32  0.008  0.895  0.639-  15 1.85  16 1.87  19 2.03   4 2.11   2 2.12
  33  0.250  0.397  0.883-  27 1.87  28 1.87  22 1.97   7 2.12  11 2.13
  34  0.250  0.603  0.117-  27 1.87  28 1.87  23 1.97   8 2.12  12 2.13
  35  0.750  0.610  0.113-  27 1.89  28 1.89  24 2.02   9 2.10  12 2.11   8 2.11
  36  0.750  0.390  0.887-  27 1.89  28 1.89  25 2.02  10 2.10  11 2.11   7 2.11
  37  0.250  0.103  0.117-  18 1.87  13 1.87  14 1.97   1 2.12   5 2.12
  38  0.250  0.897  0.883-  18 1.87  13 1.87  15 1.97   2 2.12   6 2.12
  39  0.750  0.890  0.886-  18 1.89  13 1.89  16 2.02   9 2.10   2 2.10   6 2.11
  40  0.750  0.110  0.114-  18 1.89  13 1.89  17 2.02  10 2.10   1 2.10   5 2.11
  41  0.492  0.395  0.639-  22 1.85  25 1.87  26 2.03   3 2.11  11 2.12
  42  0.492  0.605  0.361-  23 1.85  24 1.87  26 2.03   4 2.11  12 2.12
  43  0.492  0.105  0.361-  14 1.85  17 1.87  20 2.03   3 2.11   5 2.12
  44  0.492  0.895  0.639-  15 1.85  16 1.87  20 2.03   4 2.11   6 2.12
  45  0.992  0.396  0.139-  24 1.85  23 1.87  27 2.02  10 2.11   1 2.12
  46  0.992  0.604  0.861-  25 1.85  22 1.87  27 2.02   9 2.11   2 2.12
  47  0.992  0.105  0.861-  16 1.85  15 1.87  13 2.02  10 2.11   7 2.12
  48  0.992  0.895  0.139-  17 1.85  14 1.87  13 2.02   9 2.11   8 2.12
  49  0.250  0.391  0.386-  21 1.89  26 1.89  23 2.02   5 2.10   1 2.11   3 2.11
  50  0.250  0.609  0.614-  21 1.89  26 1.89  22 2.02   6 2.10   2 2.11   4 2.11
  51  0.750  0.602  0.617-  21 1.87  26 1.87  25 1.97   6 2.12   2 2.13
  52  0.750  0.398  0.383-  21 1.87  26 1.87  24 1.97   5 2.12   1 2.13
  53  0.250  0.109  0.614-  20 1.89  19 1.89  15 2.02  11 2.11   7 2.11   3 2.11
  54  0.250  0.891  0.386-  20 1.89  19 1.89  14 2.02  12 2.11   8 2.11   4 2.11
  55  0.750  0.897  0.383-  20 1.87  19 1.87  17 1.97  12 2.12   8 2.12
  56  0.750  0.103  0.617-  20 1.87  19 1.87  16 1.97  11 2.12   7 2.12
  57  0.508  0.396  0.139-  24 1.85  23 1.87  28 2.02  10 2.12   5 2.12
  58  0.508  0.604  0.861-  25 1.85  22 1.87  28 2.02   9 2.12   6 2.12
  59  0.508  0.105  0.861-  16 1.85  15 1.87  18 2.02  10 2.11  11 2.12
  60  0.508  0.895  0.139-  17 1.85  14 1.87  18 2.02   9 2.11  12 2.12
 
  LATTYP: Found a simple monoclinic cell.
 ALAT       =    11.3554172377
 B/A-ratio  =     0.4933248658
 C/A-ratio  =     1.6713142745
 COS(beta)  =    -0.9005295572
  
  Lattice vectors:
  
 A1 = (  -6.3430943560,   0.0000000000,  -9.4186333739)
 A2 = (   0.0000000000,  -5.6019096853,   0.0000000000)
 A3 = (   2.7024669702,   0.0000000000,  18.7850746819)


Analysis of symmetry for initial positions (statically):
=====================================================================
 Subroutine PRICEL returns:
 Original cell was already a primitive cell.
 

 Routine SETGRP: Setting up the symmetry group for a 
 simple monoclinic supercell.


 Subroutine GETGRP returns: Found  2 space group operations
 (whereof  2 operations were pure point group operations)
 out of a pool of  4 trial point group operations.


The static configuration has the point symmetry C_2 .


Analysis of symmetry for dynamics (positions and initial velocities):
=====================================================================
 Subroutine PRICEL returns:
 Original cell was already a primitive cell.
 

 Routine SETGRP: Setting up the symmetry group for a 
 simple monoclinic supercell.


 Subroutine GETGRP returns: Found  2 space group operations
 (whereof  2 operations were pure point group operations)
 out of a pool of  4 trial point group operations.


The dynamic configuration has the point symmetry C_2 .


Analysis of structural, dynamic, and magnetic symmetry:
=====================================================================
 Subroutine PRICEL returns:
 Original cell was already a primitive cell.
 

 Routine SETGRP: Setting up the symmetry group for a 
 simple monoclinic supercell.


 Subroutine GETGRP returns: Found  2 space group operations
 (whereof  2 operations were pure point group operations)
 out of a pool of  4 trial point group operations.


The magnetic configuration has the point symmetry C_2 .


 Subroutine INISYM returns: Found  2 space group operations
 (whereof  2 operations are pure point group operations),
 and found     1 'primitive' translations

 
 
 KPOINTS: Automatic mesh                          

Automatic generation of k-mesh.
Space group operators:
 irot       det(A)        alpha          n_x          n_y          n_z        tau_x        tau_y        tau_z
    1     1.000000     0.000000     1.000000     0.000000     0.000000     0.000000     0.000000     0.000000
    2     1.000000   179.999999     0.000000     1.000000     0.000000     0.000000     0.000000     0.000000
 
 Subroutine IBZKPT returns following result:
 ===========================================
 
 Found      1 irreducible k-points:
 
 Following reciprocal coordinates:
            Coordinates               Weight
  0.000000  0.000000  0.000000      1.000000
 
 Following cartesian coordinates:
            Coordinates               Weight
  0.000000  0.000000  0.000000      1.000000
 


--------------------------------------------------------------------------------------------------------




 Dimension of arrays:
   k-points           NKPTS =      1   k-points in BZ     NKDIM =      1   number of bands    NBANDS=    256
   number of dos      NEDOS =    301   number of ions     NIONS =     60
   non local maximal  LDIM  =      6   non local SUM 2l+1 LMDIM =     18
   total plane-waves  NPLWV = 268800
   max r-space proj   IRMAX =   6925   max aug-charges    IRDMAX=  16797
   dimension x,y,z NGX =    42 NGY =   80 NGZ =   80
   dimension x,y,z NGXF=    84 NGYF=  160 NGZF=  160
   support grid    NGXF=    84 NGYF=  160 NGZF=  160
   ions per type =              12  16  32
   NGX,Y,Z   is equivalent  to a cutoff of  12.46, 13.23, 13.32 a.u.
   NGXF,Y,Z  is equivalent  to a cutoff of  24.93, 26.47, 26.64 a.u.

 SYSTEM =  unknown system                          
 POSCAR =  ce1387_1                                

 Startparameter for this run:
   NWRITE =      1    write-flag & timer
   PREC   = accura    normal or accurate (medium, high low for compatibility)
   ISTART =      0    job   : 0-new  1-cont  2-samecut
   ICHARG =      2    charge: 1-file 2-atom 10-const
   ISPIN  =      2    spin polarized calculation?
   LNONCOLLINEAR =      F non collinear calculations
   LSORBIT =      F    spin-orbit coupling
   INIWAV =      1    electr: 0-lowe 1-rand  2-diag
   LASPH  =      F    aspherical Exc in radial PAW
   METAGGA=      F    non-selfconsistent MetaGGA calc.

 Electronic Relaxation 1
   ENCUT  =  500.0 eV  36.75 Ry    6.06 a.u.  10.21 18.32 18.20*2*pi/ulx,y,z
   ENINI  =  500.0     initial cutoff
   ENAUG  =  628.9 eV  augmentation charge cutoff
   NELM   =     80;   NELMIN=  2; NELMDL= -5     # of ELM steps 
   EDIFF  = 0.1E-04   stopping-criterion for ELM
   LREAL  =      T    real-space projection
   NLSPLINE    = F    spline interpolate recip. space projectors
   LCOMPAT=      F    compatible to vasp.4.4
   GGA_COMPAT  = T    GGA compatible to vasp.4.4-vasp.4.6
   LMAXPAW     = -100 max onsite density
   LMAXMIX     =    2 max onsite mixed and CHGCAR
   VOSKOWN=      1    Vosko Wilk Nusair interpolation
   ROPT   =   -0.00025  -0.00025  -0.00025
 Ionic relaxation
   EDIFFG = -.2E-01   stopping-criterion for IOM
   NSW    =     20    number of steps for IOM
   NBLOCK =      1;   KBLOCK =     20    inner block; outer block 
   IBRION =      1    ionic relax: 0-MD 1-quasi-New 2-CG
   NFREE  =      0    steps in history (QN), initial steepest desc. (CG)
   ISIF   =      3    stress and relaxation
   IWAVPR =     11    prediction:  0-non 1-charg 2-wave 3-comb
   ISYM   =      2    0-nonsym 1-usesym 2-fastsym
   LCORR  =      T    Harris-Foulkes like correction to forces

   POTIM  = 0.5000    time-step for ionic-motion
   TEIN   =    0.0    initial temperature
   TEBEG  =    0.0;   TEEND  =   0.0 temperature during run
   SMASS  =  -3.00    Nose mass-parameter (am)
   estimated Nose-frequenzy (Omega)   =  0.10E-29 period in steps =****** mass=  -0.717E-27a.u.
   SCALEE = 1.0000    scale energy and forces
   NPACO  =    256;   APACO  = 16.0  distance and # of slots for P.C.
   PSTRESS=    0.0 pullay stress

  Mass of Ions in am
   POMASS =   7.01 58.69 16.00
  Ionic Valenz
   ZVAL   =   3.00 10.00  6.00
  Atomic Wigner-Seitz radii
   RWIGS  =   1.23  1.15  0.73
  virtual crystal weights 
   VCA    =   1.00  1.00  1.00
   NELECT =     388.0000    total number of electrons
   NUPDOWN=      -1.0000    fix difference up-down

 DOS related values:
   EMIN   =  10.00;   EMAX   =-10.00  energy-range for DOS
   EFERMI =   0.00
   ISMEAR =     0;   SIGMA  =   0.05  broadening in eV -4-tet -1-fermi 0-gaus

 Electronic relaxation 2 (details)
   IALGO  =     38    algorithm
   LDIAG  =      T    sub-space diagonalisation (order eigenvalues)
   LSUBROT=      F    optimize rotation matrix (better conditioning)
   TURBO    =      0    0=normal 1=particle mesh
   IRESTART =      0    0=no restart 2=restart with 2 vectors
   NREBOOT  =      0    no. of reboots
   NMIN     =      0    reboot dimension
   EREF     =   0.00    reference energy to select bands
   IMIX   =      4    mixing-type and parameters
     AMIX     =   0.40;   BMIX     =  1.00
     AMIX_MAG =   1.60;   BMIX_MAG =  1.00
     AMIN     =   0.10
     WC   =   100.;   INIMIX=   1;  MIXPRE=   1;  MAXMIX= -45

 Intra band minimization:
   WEIMIN = 0.0010     energy-eigenvalue tresh-hold
   EBREAK =  0.98E-08  absolut break condition
   DEPER  =   0.30     relativ break condition  

   TIME   =   0.40     timestep for ELM

  volume/ion in A,a.u.               =       8.75        59.04
  Fermi-wavevector in a.u.,A,eV,Ry     =   1.480212  2.797194 29.810726  2.191027
  Thomas-Fermi vector in A             =   2.594274
 
 Write flags
   LWAVE        =      F    write WAVECAR
   LDOWNSAMPLE  =      F    k-point downsampling of WAVECAR
   LCHARG       =      T    write CHGCAR
   LVTOT        =      F    write LOCPOT, total local potential
   LVHAR        =      F    write LOCPOT, Hartree potential only
   LELF         =      F    write electronic localiz. function (ELF)
   LORBIT       =      0    0 simple, 1 ext, 2 COOP (PROOUT), +10 PAW based schemes


 Dipole corrections
   LMONO  =      F    monopole corrections only (constant potential shift)
   LDIPOL =      F    correct potential (dipole corrections)
   IDIPOL =      0    1-x, 2-y, 3-z, 4-all directions 
   EPSILON=  1.0000000 bulk dielectric constant

 Exchange correlation treatment:
   GGA     =    PS    GGA type
   LEXCH   =    14    internal setting for exchange type
   VOSKOWN=      1    Vosko Wilk Nusair interpolation
   LHFCALC =     F    Hartree Fock is set to
   LHFONE  =     F    Hartree Fock one center treatment
   AEXX    =    0.0000 exact exchange contribution

 Linear response parameters
   LEPSILON=     F    determine dielectric tensor
   LRPA    =     F    only Hartree local field effects (RPA)
   LNABLA  =     F    use nabla operator in PAW spheres
   LVEL    =     F    velocity operator in full k-point grid
   LINTERFAST=   F  fast interpolation
   KINTER  =     0    interpolate to denser k-point grid
   CSHIFT  =0.1000    complex shift for real part using Kramers Kronig
   OMEGAMAX=  -1.0    maximum frequency
   DEG_THRESHOLD= 0.2000000E-02 threshold for treating states as degnerate
   RTIME   =   -0.100 relaxation time in fs
  (WPLASMAI=    0.000 imaginary part of plasma frequency in eV, 0.658/RTIME)
   DFIELD  = 0.0000000 0.0000000 0.0000000 field for delta impulse in time
 
 Orbital magnetization related:
   ORBITALMAG=     F  switch on orbital magnetization
   LCHIMAG   =     F  perturbation theory with respect to B field
   DQ        =  0.001000  dq finite difference perturbation B field
   LLRAUG    =     F  two centre corrections for induced B field



--------------------------------------------------------------------------------------------------------


 quasi-Newton-method for relaxation of ions
 charge density and potential will be updated during run
 spin polarized calculation
 Variant of blocked Davidson
 Davidson routine will perform the subspace rotation
 perform sub-space diagonalisation
    after iterative eigenvector-optimisation
 modified Broyden-mixing scheme, WC =      100.0
 initial mixing is a Kerker type mixing with AMIX =  0.4000 and BMIX =      1.0000
 Hartree-type preconditioning will be used
 using additional bands           62
 real space projection scheme for non local part
 use partial core corrections
 calculate Harris-corrections to forces 
   (improved forces if not selfconsistent)
 use gradient corrections 
 use of overlap-Matrix (Vanderbilt PP)
 Gauss-broadening in eV      SIGMA  =   0.05


--------------------------------------------------------------------------------------------------------


  energy-cutoff  :      500.00
  volume of cell :      524.91
      direct lattice vectors                 reciprocal lattice vectors
     0.000000000  5.601909685  0.000000000     0.000000000  0.178510554  0.000000000
    -3.640627386  0.000000000  9.366441308    -0.000557001  0.000000000  0.106547635
     9.983721742  0.000000000  0.052192066     0.099959934  0.000000000  0.038853270

  length of vectors
     5.601909685 10.049098991  9.983858164     0.178510554  0.106549091  0.107245350


 
 k-points in units of 2pi/SCALE and weight: Automatic mesh                          
   0.00000000  0.00000000  0.00000000       1.000
 
 k-points in reciprocal lattice and weights: Automatic mesh                          
   0.00000000  0.00000000  0.00000000       1.000
 
 position of ions in fractional coordinates (direct lattice) 
   0.99971462  0.25004210  0.24937859
   0.99971462  0.74995790  0.75062141
   0.24999081  0.24989226  0.49990438
   0.24999081  0.75010774  0.50009562
   0.49943938  0.25046027  0.24994079
   0.49943938  0.74953973  0.75005921
   0.99992058  0.24948268  0.75027606
   0.99992058  0.75051732  0.24972394
   0.74999965  0.75045572  0.00022901
   0.74999965  0.24954428  0.99977099
   0.49983365  0.24958805  0.75008827
   0.49983365  0.75041195  0.24991173
   0.00107099  0.00000000  0.00000000
   0.24979293  0.99635898  0.24779701
   0.24979293  0.00364102  0.75220299
   0.74976328  0.99552024  0.74762994
   0.74976328  0.00447976  0.25237006
   0.49843046  0.00000000  0.00000000
   0.99842338  0.00000000  0.50000000
   0.50127049  0.00000000  0.50000000
   0.99845491  0.50000000  0.50000000
   0.24973391  0.50359323  0.75227551
   0.24973391  0.49640677  0.24772449
   0.74971402  0.50453473  0.25230449
   0.74971402  0.49546527  0.74769551
   0.50110806  0.50000000  0.50000000
   0.00096076  0.50000000  0.00000000
   0.49841530  0.50000000  0.00000000
   0.00755780  0.39461072  0.63921280
   0.00755780  0.60538928  0.36078720
   0.00765730  0.10530066  0.36078522
   0.00765730  0.89469934  0.63921478
   0.24967641  0.39690432  0.88343063
   0.24967641  0.60309568  0.11656937
   0.74969603  0.60965852  0.11338288
   0.74969603  0.39034148  0.88661712
   0.24975102  0.10311343  0.11672480
   0.24975102  0.89688657  0.88327520
   0.74970259  0.89034493  0.88644711
   0.74970259  0.10965507  0.11355289
   0.49194498  0.39460080  0.63924556
   0.49194498  0.60539920  0.36075444
   0.49195380  0.10536887  0.36077723
   0.49195380  0.89463113  0.63922277
   0.99190363  0.39555558  0.13919266
   0.99190363  0.60444442  0.86080734
   0.99197873  0.10450615  0.86072185
   0.99197873  0.89549385  0.13927815
   0.24976492  0.39109480  0.38612772
   0.24976492  0.60890520  0.61387228
   0.74978328  0.60247887  0.61692102
   0.74978328  0.39752113  0.38307898
   0.24991113  0.10901559  0.61380439
   0.24991113  0.89098441  0.38619561
   0.74977971  0.89746600  0.38314591
   0.74977971  0.10253400  0.61685409
   0.50750041  0.39558071  0.13917587
   0.50750041  0.60441929  0.86082413
   0.50757316  0.10450650  0.86076881
   0.50757316  0.89549350  0.13923119
 
 position of ions in cartesian coordinates  (Angst):
   1.57941633  5.60031101  2.35502024
   4.76367802  5.60031101  7.06361314
   4.08114162  1.40042594  2.36669223
   2.26195273  1.40042594  7.05194114
   1.58350678  2.79781430  2.35896635
   4.75958757  2.79781430  7.05966703
   6.58227394  5.60146478  2.37592334
  -0.23917958  5.60146478  7.04271004
  -2.72984327  4.20143030  7.02911141
   9.07293763  4.20143030  2.38952197
   6.58001548  2.80002296  2.37690048
  -0.23692112  2.80002296  7.04173290
   0.00000000  0.00599959  0.00000000
  -1.15343539  1.39931743  9.34527095
   7.49652975  1.39931743  0.07336243
   3.83981104  4.20010618  9.36350225
   2.50328332  4.20010618  0.05513112
   0.00000000  2.79216242  0.00000000
   4.99186087  5.59307760  0.02609603
   4.99186087  2.80807201  0.02609603
   3.17154718  5.59325423  4.70931669
   5.67711406  1.39898681  4.75613924
   0.66598030  1.39898681  4.66249413
   0.68211487  4.19983023  4.73886323
   5.66097949  4.19983023  4.67977014
   3.17154718  2.80716209  4.70931669
  -1.82031369  0.00538209  4.68322065
  -1.82031369  2.79207750  4.68322065
   4.94509214  0.04233811  3.72945998
   1.39800222  0.04233811  5.68917339
   3.21861878  0.04289550  1.00512258
   3.12447558  0.04289550  8.41351080
   7.37494485  1.39866470  3.76368909
  -1.03185050  1.39866470  5.65494429
  -1.08755638  4.19972945  5.71624843
   7.43065074  4.19972945  3.70238494
   0.78995035  1.39908266  0.97189800
   5.55314401  1.39908266  8.44673538
   5.60862715  4.19976620  8.38562904
   0.73446721  4.19976620  1.03300434
   4.94545532  2.75583135  3.72936878
   1.39763904  2.75583135  5.68926459
   3.21829068  2.75588076  1.00576105
   3.12480367  2.75588076  8.41287233
  -0.05040969  5.55655455  3.71221288
   6.39350405  5.55655455  5.70642050
   8.21273950  5.55697526  1.02377357
  -1.86964514  5.55697526  8.39485980
   2.43116127  1.39916052  3.68331929
   3.91193308  1.39916052  5.73531408
   3.96576673  4.20021822  5.67528136
   2.37732763  4.20021822  3.74335202
   5.73116709  1.39997958  1.05312384
   0.61192726  1.39997958  8.36550953
   0.55788285  4.20019822  8.42605979
   5.78521150  4.20019822  0.99257358
  -0.05066881  2.84297146  3.71244738
   6.39376316  2.84297146  5.70618599
   8.21320706  2.84337900  1.02377930
  -1.87011270  2.84337900  8.39485407
 


--------------------------------------------------------------------------------------------------------


 use serial FFT for orbitals x direction half grid
 k-point  1 :   0.0000 0.0000 0.0000  plane waves:    6654

 maximum and minimum number of plane-waves per node :      6654     6654

 maximum number of plane-waves:      6654
 maximum index in each direction: 
   IXMAX=   10   IYMAX=   18   IZMAX=   18
   IXMIN=    0   IYMIN=  -18   IZMIN=  -18

 The following grids will avoid any aliasing or wrap around errors in the Hartre
 e energy
  - symmetry arguments have not been applied
  - exchange correlation energies might require even more grid points
  - we recommend to set PREC=Normal or Accurate and rely on VASP defaults
 NGX is ok and might be reduce to    42
 NGY is ok and might be reduce to    80
 NGZ is ok and might be reduce to    80

 serial   3D FFT for wavefunctions
 parallel 3D FFT for charge:
    minimum data exchange during FFTs selected (reduces bandwidth)


 total amount of memory used by VASP MPI-rank0   100503. kBytes
=======================================================================

   base      :      30000. kBytes
   nonlr-proj:      24592. kBytes
   fftplans  :       6149. kBytes
   grid      :      35266. kBytes
   one-center:        933. kBytes
   wavefun   :       3563. kBytes
 
     INWAV:  cpu time    0.0000: real time    0.0000
 Broyden mixing: mesh for mixing (old mesh)
   NGX = 21   NGY = 37   NGZ = 37
  (NGX  = 84   NGY  =160   NGZ  =160)
  gives a total of  28749 points

 initial charge density was supplied:
 charge density of overlapping atoms calculated
 number of electron     388.0000000 magnetization      40.0000000
 keeping initial charge density in first step


--------------------------------------------------------------------------------------------------------


 Maximum index for non-local projection operator         6683
 Maximum index for augmentation-charges         1590 (set IRDMAX)


--------------------------------------------------------------------------------------------------------


 First call to EWALD:  gamma=   0.220
 Maximum number of real-space cells 4x 2x 2
 Maximum number of reciprocal cells 2x 3x 3

    FEWALD:  cpu time    0.0040: real time    0.0040


--------------------------------------- Iteration      1(   1)  ---------------------------------------


    POTLOK:  cpu time    0.1588: real time    0.1614
    SETDIJ:  cpu time    0.0181: real time    0.0182
     EDDAV:  cpu time    1.4482: real time    1.4963
    --------------------------------------------
      LOOP:  cpu time    1.6256: real time    1.6764

 eigenvalue-minimisations  :  1040
 total energy-change (2. order) : 0.6817685E+04  (-0.1722016E+05)
 number of electron     388.0000000 magnetization      40.0000000
 augmentation part      388.0000000 magnetization      40.0000000

 Free energy of the ion-electron system (eV)
  ---------------------------------------------------
  alpha Z        PSCENC =      1219.01724829
  Ewald energy   TEWEN  =    -23745.95395898
  -Hartree energ DENC   =    -10441.01554111
  -exchange      EXHF   =         0.00000000
  -V(xc)+E(xc)   XCENC  =      1583.31181348
  PAW double counting   =     27420.82707004   -28719.22785117
  entropy T*S    EENTRO =        -0.01019731
  eigenvalues    EBANDS =      6074.85619770
  atomic energy  EATOM  =     33425.88044021
  Solvation  Ediel_sol  =         0.00000000
  ---------------------------------------------------
  free energy    TOTEN  =      6817.68522116 eV

  energy without entropy =     6817.69541847  energy(sigma->0) =     6817.69031981


--------------------------------------------------------------------------------------------------------




--------------------------------------- Iteration      1(   2)  ---------------------------------------


     EDDAV:  cpu time    1.4345: real time    1.4379
    --------------------------------------------
      LOOP:  cpu time    1.4343: real time    1.4377

 eigenvalue-minimisations  :  1056
 total energy-change (2. order) :-0.5500127E+04  (-0.4945016E+04)
 number of electron     388.0000000 magnetization      40.0000000
 augmentation part      388.0000000 magnetization      40.0000000

 Free energy of the ion-electron system (eV)
  ---------------------------------------------------
  alpha Z        PSCENC =      1219.01724829
  Ewald energy   TEWEN  =    -23745.95395898
  -Hartree energ DENC   =    -10441.01554111
  -exchange      EXHF   =         0.00000000
  -V(xc)+E(xc)   XCENC  =      1583.31181348
  PAW double counting   =     27420.82707004   -28719.22785117
  entropy T*S    EENTRO =        -0.00128572
  eigenvalues    EBANDS =       574.72048273
  atomic energy  EATOM  =     33425.88044021
  Solvation  Ediel_sol  =         0.00000000
  ---------------------------------------------------
  free energy    TOTEN  =      1317.55841779 eV

  energy without entropy =     1317.55970350  energy(sigma->0) =     1317.55906064


--------------------------------------------------------------------------------------------------------




--------------------------------------- Iteration      1(   3)  ---------------------------------------


     EDDAV:  cpu time    1.5373: real time    1.5410
    --------------------------------------------
      LOOP:  cpu time    1.5373: real time    1.5410

 eigenvalue-minimisations  :  1152
 total energy-change (2. order) :-0.1530723E+04  (-0.1266103E+04)
 number of electron     388.0000000 magnetization      40.0000000
 augmentation part      388.0000000 magnetization      40.0000000

 Free energy of the ion-electron system (eV)
  ---------------------------------------------------
  alpha Z        PSCENC =      1219.01724829
  Ewald energy   TEWEN  =    -23745.95395898
  -Hartree energ DENC   =    -10441.01554111
  -exchange      EXHF   =         0.00000000
  -V(xc)+E(xc)   XCENC  =      1583.31181348
  PAW double counting   =     27420.82707004   -28719.22785117
  entropy T*S    EENTRO =        -0.07352239
  eigenvalues    EBANDS =      -955.92992879
  atomic energy  EATOM  =     33425.88044021
  Solvation  Ediel_sol  =         0.00000000
  ---------------------------------------------------
  free energy    TOTEN  =      -213.16423040 eV

  energy without entropy =     -213.09070801  energy(sigma->0) =     -213.12746921


--------------------------------------------------------------------------------------------------------




--------------------------------------- Iteration      1(   4)  ---------------------------------------


     EDDAV:  cpu time    1.6098: real time    1.6136
    --------------------------------------------
      LOOP:  cpu time    1.6098: real time    1.6137

 eigenvalue-minimisations  :  1216
 total energy-change (2. order) :-0.2457690E+03  (-0.2385712E+03)
 number of electron     388.0000000 magnetization      40.0000000
 augmentation part      388.0000000 magnetization      40.0000000

 Free energy of the ion-electron system (eV)
  ---------------------------------------------------
  alpha Z        PSCENC =      1219.01724829
  Ewald energy   TEWEN  =    -23745.95395898
  -Hartree energ DENC   =    -10441.01554111
  -exchange      EXHF   =         0.00000000
  -V(xc)+E(xc)   XCENC  =      1583.31181348
  PAW double counting   =     27420.82707004   -28719.22785117
  entropy T*S    EENTRO =        -0.14975897
  eigenvalues    EBANDS =     -1201.62273827
  atomic energy  EATOM  =     33425.88044021
  Solvation  Ediel_sol  =         0.00000000
  ---------------------------------------------------
  free energy    TOTEN  =      -458.93327646 eV

  energy without entropy =     -458.78351750  energy(sigma->0) =     -458.85839698


--------------------------------------------------------------------------------------------------------




--------------------------------------- Iteration      1(   5)  ---------------------------------------


     EDDAV:  cpu time    2.2053: real time    2.2105
    CHARGE:  cpu time    0.1201: real time    0.1204
    MIXING:  cpu time    0.0025: real time    0.0025
    --------------------------------------------
      LOOP:  cpu time    2.3276: real time    2.3331

 eigenvalue-minimisations  :  1792
 total energy-change (2. order) :-0.1409269E+02  (-0.1395769E+02)
 number of electron     387.9999870 magnetization      42.1756723
 augmentation part      117.4635557 magnetization      31.5580504

 Broyden mixing:
  rms(total) = 0.11011E+02    rms(broyden)= 0.11010E+02
  rms(prec ) = 0.13440E+02
  weight for this iteration     100.00

 Free energy of the ion-electron system (eV)
  ---------------------------------------------------
  alpha Z        PSCENC =      1219.01724829
  Ewald energy   TEWEN  =    -23745.95395898
  -Hartree energ DENC   =    -10441.01554111
  -exchange      EXHF   =         0.00000000
  -V(xc)+E(xc)   XCENC  =      1583.31181348
  PAW double counting   =     27420.82707004   -28719.22785117
  entropy T*S    EENTRO =        -0.15273553
  eigenvalues    EBANDS =     -1215.71244934
  atomic energy  EATOM  =     33425.88044021
  Solvation  Ediel_sol  =         0.00000000
  ---------------------------------------------------
  free energy    TOTEN  =      -473.02596410 eV

  energy without entropy =     -472.87322857  energy(sigma->0) =     -472.94959634


--------------------------------------------------------------------------------------------------------




--------------------------------------- Iteration      1(   6)  ---------------------------------------


    POTLOK:  cpu time    0.1256: real time    0.1259
    SETDIJ:  cpu time    0.0185: real time    0.0186
     EDDAV:  cpu time    1.9022: real time    1.9067
    CHARGE:  cpu time    0.1182: real time    0.1185
    MIXING:  cpu time    0.0027: real time    0.0027
    --------------------------------------------
      LOOP:  cpu time    2.1671: real time    2.1723

 eigenvalue-minimisations  :  1504
 total energy-change (2. order) :-0.5274123E+01  (-0.9905095E+02)
 number of electron     387.9999848 magnetization      35.4051832
 augmentation part      147.6131098 magnetization      33.9154806

 Broyden mixing:
  rms(total) = 0.16659E+02    rms(broyden)= 0.16658E+02
  rms(prec ) = 0.18486E+02
  weight for this iteration     100.00

 eigenvalues of (default mixing * dielectric matrix)
  average eigenvalue GAMMA=   0.2715
  0.2715

 Free energy of the ion-electron system (eV)
  ---------------------------------------------------
  alpha Z        PSCENC =      1219.01724829
  Ewald energy   TEWEN  =    -23745.95395898
  -Hartree energ DENC   =     -9969.37727661
  -exchange      EXHF   =         0.00000000
  -V(xc)+E(xc)   XCENC  =      1596.98405690
  PAW double counting   =     30128.98023162   -31263.33440372
  entropy T*S    EENTRO =        -0.04096963
  eigenvalues    EBANDS =     -1870.45545500
  atomic energy  EATOM  =     33425.88044021
  Solvation  Ediel_sol  =         0.00000000
  ---------------------------------------------------
  free energy    TOTEN  =      -478.30008693 eV

  energy without entropy =     -478.25911729  energy(sigma->0) =     -478.27960211


--------------------------------------------------------------------------------------------------------




--------------------------------------- Iteration      1(   7)  ---------------------------------------


    POTLOK:  cpu time    0.1240: real time    0.1243
    SETDIJ:  cpu time    0.0185: real time    0.0186
     EDDAV:  cpu time    1.7494: real time    1.7536
    CHARGE:  cpu time    0.1168: real time    0.1170
    MIXING:  cpu time    0.0027: real time    0.0028
    --------------------------------------------
      LOOP:  cpu time    2.0114: real time    2.0162

 eigenvalue-minimisations  :  1376
 total energy-change (2. order) : 0.1162967E+03  (-0.2370730E+02)
 number of electron     387.9999849 magnetization      24.8827368
 augmentation part      131.6137921 magnetization      21.8101812

 Broyden mixing:
  rms(total) = 0.44729E+01    rms(broyden)= 0.44724E+01
  rms(prec ) = 0.48266E+01
  weight for this iteration     100.00

 eigenvalues of (default mixing * dielectric matrix)
  average eigenvalue GAMMA=   0.6357
  0.6357  0.6357

 Free energy of the ion-electron system (eV)
  ---------------------------------------------------
  alpha Z        PSCENC =      1219.01724829
  Ewald energy   TEWEN  =    -23745.95395898
  -Hartree energ DENC   =    -10199.62962260
  -exchange      EXHF   =         0.00000000
  -V(xc)+E(xc)   XCENC  =      1583.67571924
  PAW double counting   =     31502.93959458   -32779.59774303
  entropy T*S    EENTRO =        -0.02072172
  eigenvalues    EBANDS =     -1368.31436350
  atomic energy  EATOM  =     33425.88044021
  Solvation  Ediel_sol  =         0.00000000
  ---------------------------------------------------
  free energy    TOTEN  =      -362.00340750 eV

  energy without entropy =     -361.98268578  energy(sigma->0) =     -361.99304664


--------------------------------------------------------------------------------------------------------




--------------------------------------- Iteration      1(   8)  ---------------------------------------


    POTLOK:  cpu time    0.1256: real time    0.1259
    SETDIJ:  cpu time    0.0187: real time    0.0187
     EDDAV:  cpu time    1.9405: real time    1.9451
    CHARGE:  cpu time    0.1175: real time    0.1178
    MIXING:  cpu time    0.0029: real time    0.0029
    --------------------------------------------
      LOOP:  cpu time    2.2052: real time    2.2104

 eigenvalue-minimisations  :  1536
 total energy-change (2. order) :-0.4027918E+01  (-0.6833027E+01)
 number of electron     387.9999837 magnetization      21.8496717
 augmentation part      129.8208119 magnetization      18.5822481

 Broyden mixing:
  rms(total) = 0.38822E+01    rms(broyden)= 0.38819E+01
  rms(prec ) = 0.45905E+01
  weight for this iteration     100.00

 eigenvalues of (default mixing * dielectric matrix)
  average eigenvalue GAMMA=   0.5989
  0.7319  0.7319  0.3329

 Free energy of the ion-electron system (eV)
  ---------------------------------------------------
  alpha Z        PSCENC =      1219.01724829
  Ewald energy   TEWEN  =    -23745.95395898
  -Hartree energ DENC   =    -10134.32414738
  -exchange      EXHF   =         0.00000000
  -V(xc)+E(xc)   XCENC  =      1573.39499286
  PAW double counting   =     33070.46183272   -34382.26317546
  entropy T*S    EENTRO =        -0.01673909
  eigenvalues    EBANDS =     -1392.22781847
  atomic energy  EATOM  =     33425.88044021
  Solvation  Ediel_sol  =         0.00000000
  ---------------------------------------------------
  free energy    TOTEN  =      -366.03132531 eV

  energy without entropy =     -366.01458621  energy(sigma->0) =     -366.02295576


--------------------------------------------------------------------------------------------------------




--------------------------------------- Iteration      1(   9)  ---------------------------------------


    POTLOK:  cpu time    0.1262: real time    0.1265
    SETDIJ:  cpu time    0.0189: real time    0.0189
     EDDAV:  cpu time    1.8513: real time    1.8556
    CHARGE:  cpu time    0.1171: real time    0.1173
    MIXING:  cpu time    0.0030: real time    0.0030
    --------------------------------------------
      LOOP:  cpu time    2.1163: real time    2.1213

 eigenvalue-minimisations  :  1456
 total energy-change (2. order) :-0.2518989E+00  (-0.4575556E+01)
 number of electron     387.9999847 magnetization      14.7864604
 augmentation part      129.3554393 magnetization      12.2193569

 Broyden mixing:
  rms(total) = 0.31772E+01    rms(broyden)= 0.31767E+01
  rms(prec ) = 0.39636E+01
  weight for this iteration     100.00

 eigenvalues of (default mixing * dielectric matrix)
  average eigenvalue GAMMA=   0.6507
  1.2648  0.7054  0.4335  0.1993

 Free energy of the ion-electron system (eV)
  ---------------------------------------------------
  alpha Z        PSCENC =      1219.01724829
  Ewald energy   TEWEN  =    -23745.95395898
  -Hartree energ DENC   =    -10134.21899287
  -exchange      EXHF   =         0.00000000
  -V(xc)+E(xc)   XCENC  =      1572.32051205
  PAW double counting   =     33559.41234451   -34881.59262810
  entropy T*S    EENTRO =        -0.02819887
  eigenvalues    EBANDS =     -1381.11999041
  atomic energy  EATOM  =     33425.88044021
  Solvation  Ediel_sol  =         0.00000000
  ---------------------------------------------------
  free energy    TOTEN  =      -366.28322417 eV

  energy without entropy =     -366.25502530  energy(sigma->0) =     -366.26912473


--------------------------------------------------------------------------------------------------------




--------------------------------------- Iteration      1(  10)  ---------------------------------------


    POTLOK:  cpu time    0.1260: real time    0.1263
    SETDIJ:  cpu time    0.0189: real time    0.0190
     EDDAV:  cpu time    1.7928: real time    1.7971
    CHARGE:  cpu time    0.1128: real time    0.1131
    MIXING:  cpu time    0.0030: real time    0.0030
    --------------------------------------------
      LOOP:  cpu time    2.0536: real time    2.0585

 eigenvalue-minimisations  :  1424
 total energy-change (2. order) : 0.3021623E+00  (-0.3764124E+01)
 number of electron     387.9999839 magnetization      12.3553799
 augmentation part      129.4236961 magnetization      10.2157895

 Broyden mixing:
  rms(total) = 0.26877E+01    rms(broyden)= 0.26869E+01
  rms(prec ) = 0.38655E+01
  weight for this iteration     100.00

 eigenvalues of (default mixing * dielectric matrix)
  average eigenvalue GAMMA=   0.6019
  1.3942  0.6803  0.3946  0.3946  0.1457

 Free energy of the ion-electron system (eV)
  ---------------------------------------------------
  alpha Z        PSCENC =      1219.01724829
  Ewald energy   TEWEN  =    -23745.95395898
  -Hartree energ DENC   =    -10127.01518594
  -exchange      EXHF   =         0.00000000
  -V(xc)+E(xc)   XCENC  =      1570.86565477
  PAW double counting   =     34622.62264584   -35960.69944831
  entropy T*S    EENTRO =        -0.01111429
  eigenvalues    EBANDS =     -1370.68734347
  atomic energy  EATOM  =     33425.88044021
  Solvation  Ediel_sol  =         0.00000000
  ---------------------------------------------------
  free energy    TOTEN  =      -365.98106188 eV

  energy without entropy =     -365.96994759  energy(sigma->0) =     -365.97550474


--------------------------------------------------------------------------------------------------------




--------------------------------------- Iteration      1(  11)  ---------------------------------------


    POTLOK:  cpu time    0.1216: real time    0.1218
    SETDIJ:  cpu time    0.0177: real time    0.0177
     EDDAV:  cpu time    1.7370: real time    1.7411
    CHARGE:  cpu time    0.1150: real time    0.1153
    MIXING:  cpu time    0.0032: real time    0.0032
    --------------------------------------------
      LOOP:  cpu time    1.9944: real time    1.9992

 eigenvalue-minimisations  :  1392
 total energy-change (2. order) : 0.7740615E+00  (-0.2646815E+01)
 number of electron     387.9999836 magnetization       8.3246869
 augmentation part      129.4380202 magnetization       6.4943448

 Broyden mixing:
  rms(total) = 0.22489E+01    rms(broyden)= 0.22480E+01
  rms(prec ) = 0.30713E+01
  weight for this iteration     100.00

 eigenvalues of (default mixing * dielectric matrix)
  average eigenvalue GAMMA=   0.6487
  1.8432  0.6168  0.6168  0.5021  0.1849  0.1282

 Free energy of the ion-electron system (eV)
  ---------------------------------------------------
  alpha Z        PSCENC =      1219.01724829
  Ewald energy   TEWEN  =    -23745.95395898
  -Hartree energ DENC   =    -10129.60699482
  -exchange      EXHF   =         0.00000000
  -V(xc)+E(xc)   XCENC  =      1570.85200751
  PAW double counting   =     34960.99573904   -36304.15354155
  entropy T*S    EENTRO =        -0.05719563
  eigenvalues    EBANDS =     -1362.18074450
  atomic energy  EATOM  =     33425.88044021
  Solvation  Ediel_sol  =         0.00000000
  ---------------------------------------------------
  free energy    TOTEN  =      -365.20700041 eV

  energy without entropy =     -365.14980478  energy(sigma->0) =     -365.17840260


--------------------------------------------------------------------------------------------------------




--------------------------------------- Iteration      1(  12)  ---------------------------------------


    POTLOK:  cpu time    0.1230: real time    0.1233
    SETDIJ:  cpu time    0.0177: real time    0.0177
     EDDAV:  cpu time    1.7526: real time    1.7567
    CHARGE:  cpu time    0.1137: real time    0.1139
    MIXING:  cpu time    0.0032: real time    0.0033
    --------------------------------------------
      LOOP:  cpu time    2.0102: real time    2.0149

 eigenvalue-minimisations  :  1408
 total energy-change (2. order) : 0.1255785E+01  (-0.1173372E+01)
 number of electron     387.9999841 magnetization       8.0564722
 augmentation part      129.2115424 magnetization       5.3638886

 Broyden mixing:
  rms(total) = 0.11767E+01    rms(broyden)= 0.11760E+01
  rms(prec ) = 0.15235E+01
  weight for this iteration     100.00

 eigenvalues of (default mixing * dielectric matrix)
  average eigenvalue GAMMA=   0.6279
  1.9273  0.6754  0.6754  0.4180  0.4180  0.1676  0.1138

 Free energy of the ion-electron system (eV)
  ---------------------------------------------------
  alpha Z        PSCENC =      1219.01724829
  Ewald energy   TEWEN  =    -23745.95395898
  -Hartree energ DENC   =    -10141.71007697
  -exchange      EXHF   =         0.00000000
  -V(xc)+E(xc)   XCENC  =      1571.15546060
  PAW double counting   =     35507.23426477   -36859.89028683
  entropy T*S    EENTRO =        -0.06518781
  eigenvalues    EBANDS =     -1339.61911891
  atomic energy  EATOM  =     33425.88044021
  Solvation  Ediel_sol  =         0.00000000
  ---------------------------------------------------
  free energy    TOTEN  =      -363.95121563 eV

  energy without entropy =     -363.88602782  energy(sigma->0) =     -363.91862173


--------------------------------------------------------------------------------------------------------




--------------------------------------- Iteration      1(  13)  ---------------------------------------


    POTLOK:  cpu time    0.1281: real time    0.1284
    SETDIJ:  cpu time    0.0175: real time    0.0175
     EDDAV:  cpu time    1.7056: real time    1.7096
    CHARGE:  cpu time    0.1140: real time    0.1143
    MIXING:  cpu time    0.0034: real time    0.0034
    --------------------------------------------
      LOOP:  cpu time    1.9686: real time    1.9733

 eigenvalue-minimisations  :  1360
 total energy-change (2. order) :-0.4122132E+00  (-0.5123891E+00)
 number of electron     387.9999841 magnetization       8.2096633
 augmentation part      128.9273506 magnetization       5.6360939

 Broyden mixing:
  rms(total) = 0.13866E+01    rms(broyden)= 0.13862E+01
  rms(prec ) = 0.17344E+01
  weight for this iteration     100.00

 eigenvalues of (default mixing * dielectric matrix)
  average eigenvalue GAMMA=   0.5772
  1.9228  0.6990  0.6990  0.4412  0.4412  0.1742  0.1310  0.1093

 Free energy of the ion-electron system (eV)
  ---------------------------------------------------
  alpha Z        PSCENC =      1219.01724829
  Ewald energy   TEWEN  =    -23745.95395898
  -Hartree energ DENC   =    -10147.87167129
  -exchange      EXHF   =         0.00000000
  -V(xc)+E(xc)   XCENC  =      1571.39158619
  PAW double counting   =     35587.92629144   -36942.63147744
  entropy T*S    EENTRO =        -0.05912761
  eigenvalues    EBANDS =     -1332.06275966
  atomic energy  EATOM  =     33425.88044021
  Solvation  Ediel_sol  =         0.00000000
  ---------------------------------------------------
  free energy    TOTEN  =      -364.36342884 eV

  energy without entropy =     -364.30430123  energy(sigma->0) =     -364.33386504


--------------------------------------------------------------------------------------------------------




--------------------------------------- Iteration      1(  14)  ---------------------------------------


    POTLOK:  cpu time    0.1224: real time    0.1227
    SETDIJ:  cpu time    0.0176: real time    0.0177
     EDDAV:  cpu time    1.7561: real time    1.7603
    CHARGE:  cpu time    0.1139: real time    0.1141
    MIXING:  cpu time    0.0037: real time    0.0037
    --------------------------------------------
      LOOP:  cpu time    2.0138: real time    2.0186

 eigenvalue-minimisations  :  1408
 total energy-change (2. order) : 0.2792083E+00  (-0.2861702E+00)
 number of electron     387.9999840 magnetization       8.8987442
 augmentation part      128.8403207 magnetization       5.7497950

 Broyden mixing:
  rms(total) = 0.76630E+00    rms(broyden)= 0.76602E+00
  rms(prec ) = 0.86927E+00
  weight for this iteration     100.00

 eigenvalues of (default mixing * dielectric matrix)
  average eigenvalue GAMMA=   0.5775
  1.8929  0.7528  0.7528  0.5050  0.5050  0.3941  0.1648  0.1251  0.1048

 Free energy of the ion-electron system (eV)
  ---------------------------------------------------
  alpha Z        PSCENC =      1219.01724829
  Ewald energy   TEWEN  =    -23745.95395898
  -Hartree energ DENC   =    -10150.65979864
  -exchange      EXHF   =         0.00000000
  -V(xc)+E(xc)   XCENC  =      1571.55425153
  PAW double counting   =     35609.37210728   -36964.79239003
  entropy T*S    EENTRO =        -0.06259096
  eigenvalues    EBANDS =     -1328.43952927
  atomic energy  EATOM  =     33425.88044021
  Solvation  Ediel_sol  =         0.00000000
  ---------------------------------------------------
  free energy    TOTEN  =      -364.08422057 eV

  energy without entropy =     -364.02162961  energy(sigma->0) =     -364.05292509


--------------------------------------------------------------------------------------------------------




--------------------------------------- Iteration      1(  15)  ---------------------------------------


    POTLOK:  cpu time    0.1215: real time    0.1218
    SETDIJ:  cpu time    0.0185: real time    0.0185
     EDDAV:  cpu time    1.8216: real time    1.8259
    CHARGE:  cpu time    0.1127: real time    0.1130
    MIXING:  cpu time    0.0037: real time    0.0037
    --------------------------------------------
      LOOP:  cpu time    2.0779: real time    2.0829

 eigenvalue-minimisations  :  1472
 total energy-change (2. order) :-0.9662600E-01  (-0.6628065E-01)
 number of electron     387.9999841 magnetization       9.3575372
 augmentation part      128.8269449 magnetization       6.1573837

 Broyden mixing:
  rms(total) = 0.61308E+00    rms(broyden)= 0.61302E+00
  rms(prec ) = 0.69002E+00
  weight for this iteration     100.00

 eigenvalues of (default mixing * dielectric matrix)
  average eigenvalue GAMMA=   0.5815
  1.8779  0.8695  0.8695  0.5324  0.5324  0.3699  0.3699  0.1652  0.1250  0.1035

 Free energy of the ion-electron system (eV)
  ---------------------------------------------------
  alpha Z        PSCENC =      1219.01724829
  Ewald energy   TEWEN  =    -23745.95395898
  -Hartree energ DENC   =    -10151.48300585
  -exchange      EXHF   =         0.00000000
  -V(xc)+E(xc)   XCENC  =      1571.78904720
  PAW double counting   =     35648.91643062   -37004.17813441
  entropy T*S    EENTRO =        -0.03625295
  eigenvalues    EBANDS =     -1328.13266071
  atomic energy  EATOM  =     33425.88044021
  Solvation  Ediel_sol  =         0.00000000
  ---------------------------------------------------
  free energy    TOTEN  =      -364.18084657 eV

  energy without entropy =     -364.14459362  energy(sigma->0) =     -364.16272010


--------------------------------------------------------------------------------------------------------




--------------------------------------- Iteration      1(  16)  ---------------------------------------


    POTLOK:  cpu time    0.1230: real time    0.1232
    SETDIJ:  cpu time    0.0182: real time    0.0183
     EDDAV:  cpu time    1.7078: real time    1.7118
    CHARGE:  cpu time    0.1188: real time    0.1191
    MIXING:  cpu time    0.0040: real time    0.0040
    --------------------------------------------
      LOOP:  cpu time    1.9717: real time    1.9764

 eigenvalue-minimisations  :  1328
 total energy-change (2. order) :-0.8056182E-01  (-0.7042086E-01)
 number of electron     387.9999841 magnetization      10.1665172
 augmentation part      128.8359315 magnetization       6.9738568

 Broyden mixing:
  rms(total) = 0.57723E+00    rms(broyden)= 0.57716E+00
  rms(prec ) = 0.66995E+00
  weight for this iteration     100.00

 eigenvalues of (default mixing * dielectric matrix)
  average eigenvalue GAMMA=   0.6156
  1.8617  1.1759  1.1759  0.5734  0.5734  0.4325  0.4325  0.1591  0.1574  0.1260
  0.1043

 Free energy of the ion-electron system (eV)
  ---------------------------------------------------
  alpha Z        PSCENC =      1219.01724829
  Ewald energy   TEWEN  =    -23745.95395898
  -Hartree energ DENC   =    -10151.88668795
  -exchange      EXHF   =         0.00000000
  -V(xc)+E(xc)   XCENC  =      1571.95706275
  PAW double counting   =     35683.42084044   -37038.62399084
  entropy T*S    EENTRO =        -0.02492426
  eigenvalues    EBANDS =     -1328.04743805
  atomic energy  EATOM  =     33425.88044021
  Solvation  Ediel_sol  =         0.00000000
  ---------------------------------------------------
  free energy    TOTEN  =      -364.26140839 eV

  energy without entropy =     -364.23648413  energy(sigma->0) =     -364.24894626


--------------------------------------------------------------------------------------------------------




--------------------------------------- Iteration      1(  17)  ---------------------------------------


    POTLOK:  cpu time    0.1261: real time    0.1264
    SETDIJ:  cpu time    0.0181: real time    0.0181
     EDDAV:  cpu time    1.8783: real time    1.8827
    CHARGE:  cpu time    0.1142: real time    0.1145
    MIXING:  cpu time    0.0042: real time    0.0042
    --------------------------------------------
      LOOP:  cpu time    2.1409: real time    2.1460

 eigenvalue-minimisations  :  1424
 total energy-change (2. order) :-0.4027677E-01  (-0.4711929E-01)
 number of electron     387.9999842 magnetization      10.3736194
 augmentation part      128.8666660 magnetization       7.2144170

 Broyden mixing:
  rms(total) = 0.35717E+00    rms(broyden)= 0.35711E+00
  rms(prec ) = 0.42958E+00
  weight for this iteration     100.00

 eigenvalues of (default mixing * dielectric matrix)
  average eigenvalue GAMMA=   0.6283
  1.9267  1.2876  1.2876  0.5721  0.5721  0.4759  0.4759  0.3996  0.1659  0.1039
  0.1249  0.1477

 Free energy of the ion-electron system (eV)
  ---------------------------------------------------
  alpha Z        PSCENC =      1219.01724829
  Ewald energy   TEWEN  =    -23745.95395898
  -Hartree energ DENC   =    -10152.68326709
  -exchange      EXHF   =         0.00000000
  -V(xc)+E(xc)   XCENC  =      1572.31416203
  PAW double counting   =     35771.54299877   -37126.94130724
  entropy T*S    EENTRO =        -0.02190203
  eigenvalues    EBANDS =     -1327.45609913
  atomic energy  EATOM  =     33425.88044021
  Solvation  Ediel_sol  =         0.00000000
  ---------------------------------------------------
  free energy    TOTEN  =      -364.30168516 eV

  energy without entropy =     -364.27978313  energy(sigma->0) =     -364.29073415


--------------------------------------------------------------------------------------------------------




--------------------------------------- Iteration      1(  18)  ---------------------------------------


    POTLOK:  cpu time    0.1227: real time    0.1230
    SETDIJ:  cpu time    0.0189: real time    0.0189
     EDDAV:  cpu time    1.7060: real time    1.7100
    CHARGE:  cpu time    0.1109: real time    0.1111
    MIXING:  cpu time    0.0043: real time    0.0043
    --------------------------------------------
      LOOP:  cpu time    1.9627: real time    1.9674

 eigenvalue-minimisations  :  1360
 total energy-change (2. order) :-0.3503891E-01  (-0.4246003E-01)
 number of electron     387.9999842 magnetization      10.4177734
 augmentation part      128.9202897 magnetization       7.2773173

 Broyden mixing:
  rms(total) = 0.44720E+00    rms(broyden)= 0.44714E+00
  rms(prec ) = 0.56443E+00
  weight for this iteration     100.00

 eigenvalues of (default mixing * dielectric matrix)
  average eigenvalue GAMMA=   0.6292
  2.0316  1.3130  1.3130  0.6575  0.6575  0.5281  0.5281  0.4285  0.1867  0.1664
  0.1039  0.1248  0.1411

 Free energy of the ion-electron system (eV)
  ---------------------------------------------------
  alpha Z        PSCENC =      1219.01724829
  Ewald energy   TEWEN  =    -23745.95395898
  -Hartree energ DENC   =    -10153.01578245
  -exchange      EXHF   =         0.00000000
  -V(xc)+E(xc)   XCENC  =      1572.48289804
  PAW double counting   =     35858.47446728   -37214.21180552
  entropy T*S    EENTRO =        -0.02465921
  eigenvalues    EBANDS =     -1326.98557173
  atomic energy  EATOM  =     33425.88044021
  Solvation  Ediel_sol  =         0.00000000
  ---------------------------------------------------
  free energy    TOTEN  =      -364.33672407 eV

  energy without entropy =     -364.31206486  energy(sigma->0) =     -364.32439447


--------------------------------------------------------------------------------------------------------




--------------------------------------- Iteration      1(  19)  ---------------------------------------


    POTLOK:  cpu time    0.1219: real time    0.1222
    SETDIJ:  cpu time    0.0180: real time    0.0181
     EDDAV:  cpu time    1.7338: real time    1.7380
    CHARGE:  cpu time    0.1123: real time    0.1126
    MIXING:  cpu time    0.0047: real time    0.0047
    --------------------------------------------
      LOOP:  cpu time    1.9908: real time    1.9955

 eigenvalue-minimisations  :  1392
 total energy-change (2. order) : 0.4626101E-01  (-0.2262235E-01)
 number of electron     387.9999842 magnetization      10.5593759
 augmentation part      128.9818233 magnetization       7.4137713

 Broyden mixing:
  rms(total) = 0.12062E+00    rms(broyden)= 0.12053E+00
  rms(prec ) = 0.15095E+00
  weight for this iteration     100.00

 eigenvalues of (default mixing * dielectric matrix)
  average eigenvalue GAMMA=   0.6486
  2.0886  1.3066  1.3066  0.8003  0.8003  0.5648  0.5648  0.4676  0.4676  0.1789
  0.1656  0.1039  0.1249  0.1390

 Free energy of the ion-electron system (eV)
  ---------------------------------------------------
  alpha Z        PSCENC =      1219.01724829
  Ewald energy   TEWEN  =    -23745.95395898
  -Hartree energ DENC   =    -10153.48897916
  -exchange      EXHF   =         0.00000000
  -V(xc)+E(xc)   XCENC  =      1572.59456171
  PAW double counting   =     35944.55121544   -37300.67798354
  entropy T*S    EENTRO =        -0.02626550
  eigenvalues    EBANDS =     -1326.18674153
  atomic energy  EATOM  =     33425.88044021
  Solvation  Ediel_sol  =         0.00000000
  ---------------------------------------------------
  free energy    TOTEN  =      -364.29046306 eV

  energy without entropy =     -364.26419756  energy(sigma->0) =     -364.27733031


--------------------------------------------------------------------------------------------------------




--------------------------------------- Iteration      1(  20)  ---------------------------------------


    POTLOK:  cpu time    0.1234: real time    0.1237
    SETDIJ:  cpu time    0.0180: real time    0.0181
     EDDAV:  cpu time    1.9005: real time    1.9050
    CHARGE:  cpu time    0.1110: real time    0.1113
    MIXING:  cpu time    0.0047: real time    0.0047
    --------------------------------------------
      LOOP:  cpu time    2.1575: real time    2.1627

 eigenvalue-minimisations  :  1552
 total energy-change (2. order) :-0.3991458E-02  (-0.4167687E-02)
 number of electron     387.9999843 magnetization      10.6297816
 augmentation part      128.9663323 magnetization       7.4394776

 Broyden mixing:
  rms(total) = 0.12668E+00    rms(broyden)= 0.12666E+00
  rms(prec ) = 0.15244E+00
  weight for this iteration     100.00

 eigenvalues of (default mixing * dielectric matrix)
  average eigenvalue GAMMA=   0.6347
  2.0937  1.3144  1.3144  0.8529  0.8529  0.5782  0.5782  0.4663  0.4663  0.2942
  0.1763  0.1658  0.1039  0.1249  0.1388

 Free energy of the ion-electron system (eV)
  ---------------------------------------------------
  alpha Z        PSCENC =      1219.01724829
  Ewald energy   TEWEN  =    -23745.95395898
  -Hartree energ DENC   =    -10154.91714254
  -exchange      EXHF   =         0.00000000
  -V(xc)+E(xc)   XCENC  =      1572.69181253
  PAW double counting   =     35984.10331930   -37340.47914833
  entropy T*S    EENTRO =        -0.02808426
  eigenvalues    EBANDS =     -1324.60894075
  atomic energy  EATOM  =     33425.88044021
  Solvation  Ediel_sol  =         0.00000000
  ---------------------------------------------------
  free energy    TOTEN  =      -364.29445452 eV

  energy without entropy =     -364.26637026  energy(sigma->0) =     -364.28041239


--------------------------------------------------------------------------------------------------------




--------------------------------------- Iteration      1(  21)  ---------------------------------------


    POTLOK:  cpu time    0.1228: real time    0.1231
    SETDIJ:  cpu time    0.0173: real time    0.0174
     EDDAV:  cpu time    1.7037: real time    1.7077
    CHARGE:  cpu time    0.1142: real time    0.1144
    MIXING:  cpu time    0.0050: real time    0.0050
    --------------------------------------------
      LOOP:  cpu time    1.9631: real time    1.9677

 eigenvalue-minimisations  :  1360
 total energy-change (2. order) : 0.1197829E-02  (-0.2365125E-02)
 number of electron     387.9999843 magnetization      10.7448167
 augmentation part      128.9630731 magnetization       7.5150859

 Broyden mixing:
  rms(total) = 0.10197E+00    rms(broyden)= 0.10195E+00
  rms(prec ) = 0.11078E+00
  weight for this iteration     100.00

 eigenvalues of (default mixing * dielectric matrix)
  average eigenvalue GAMMA=   0.6361
  2.0362  1.3805  1.3805  0.9584  0.9584  0.6055  0.6055  0.4781  0.4781  0.4234
  0.1039  0.1249  0.1387  0.1764  0.1677  0.1613

 Free energy of the ion-electron system (eV)
  ---------------------------------------------------
  alpha Z        PSCENC =      1219.01724829
  Ewald energy   TEWEN  =    -23745.95395898
  -Hartree energ DENC   =    -10155.19947497
  -exchange      EXHF   =         0.00000000
  -V(xc)+E(xc)   XCENC  =      1572.71693621
  PAW double counting   =     35997.37225080   -37353.80738972
  entropy T*S    EENTRO =        -0.02870806
  eigenvalues    EBANDS =     -1324.29060047
  atomic energy  EATOM  =     33425.88044021
  Solvation  Ediel_sol  =         0.00000000
  ---------------------------------------------------
  free energy    TOTEN  =      -364.29325669 eV

  energy without entropy =     -364.26454864  energy(sigma->0) =     -364.27890267


--------------------------------------------------------------------------------------------------------




--------------------------------------- Iteration      1(  22)  ---------------------------------------


    POTLOK:  cpu time    0.1237: real time    0.1240
    SETDIJ:  cpu time    0.0178: real time    0.0178
     EDDAV:  cpu time    1.7602: real time    1.7644
    CHARGE:  cpu time    0.1133: real time    0.1135
    MIXING:  cpu time    0.0050: real time    0.0050
    --------------------------------------------
      LOOP:  cpu time    2.0199: real time    2.0247

 eigenvalue-minimisations  :  1424
 total energy-change (2. order) :-0.2307006E-02  (-0.6859150E-03)
 number of electron     387.9999843 magnetization      10.7135373
 augmentation part      128.9643887 magnetization       7.4209893

 Broyden mixing:
  rms(total) = 0.11637E+00    rms(broyden)= 0.11635E+00
  rms(prec ) = 0.12184E+00
  weight for this iteration     100.00

 eigenvalues of (default mixing * dielectric matrix)
  average eigenvalue GAMMA=   0.6147
  2.0818  1.3388  1.3388  0.9601  0.9601  0.6069  0.6069  0.4918  0.4918  0.4351
  0.2533  0.1039  0.1249  0.1388  0.1792  0.1654  0.1714

 Free energy of the ion-electron system (eV)
  ---------------------------------------------------
  alpha Z        PSCENC =      1219.01724829
  Ewald energy   TEWEN  =    -23745.95395898
  -Hartree energ DENC   =    -10155.23310262
  -exchange      EXHF   =         0.00000000
  -V(xc)+E(xc)   XCENC  =      1572.73796753
  PAW double counting   =     36009.08869639   -37365.52149524
  entropy T*S    EENTRO =        -0.02824332
  eigenvalues    EBANDS =     -1324.28311597
  atomic energy  EATOM  =     33425.88044021
  Solvation  Ediel_sol  =         0.00000000
  ---------------------------------------------------
  free energy    TOTEN  =      -364.29556370 eV

  energy without entropy =     -364.26732038  energy(sigma->0) =     -364.28144204


--------------------------------------------------------------------------------------------------------




--------------------------------------- Iteration      1(  23)  ---------------------------------------


    POTLOK:  cpu time    0.1216: real time    0.1219
    SETDIJ:  cpu time    0.0177: real time    0.0177
     EDDAV:  cpu time    1.8326: real time    1.8370
    CHARGE:  cpu time    0.1118: real time    0.1121
    MIXING:  cpu time    0.0052: real time    0.0052
    --------------------------------------------
      LOOP:  cpu time    2.0889: real time    2.0939

 eigenvalue-minimisations  :  1488
 total energy-change (2. order) : 0.3896328E-04  (-0.9713110E-04)
 number of electron     387.9999843 magnetization      11.0627157
 augmentation part      128.9619263 magnetization       7.7624028

 Broyden mixing:
  rms(total) = 0.13402E+00    rms(broyden)= 0.13402E+00
  rms(prec ) = 0.14042E+00
  weight for this iteration     100.00

 eigenvalues of (default mixing * dielectric matrix)
  average eigenvalue GAMMA=   0.6785
  2.0380  1.5895  1.5895  1.1920  1.1920  0.6875  0.6875  0.5586  0.5586  0.5187
  0.4613  0.2503  0.1039  0.1249  0.1388  0.1656  0.1837  0.1731

 Free energy of the ion-electron system (eV)
  ---------------------------------------------------
  alpha Z        PSCENC =      1219.01724829
  Ewald energy   TEWEN  =    -23745.95395898
  -Hartree energ DENC   =    -10155.23358499
  -exchange      EXHF   =         0.00000000
  -V(xc)+E(xc)   XCENC  =      1572.73223161
  PAW double counting   =     36008.45568293   -37364.88892147
  entropy T*S    EENTRO =        -0.02808365
  eigenvalues    EBANDS =     -1324.27657868
  atomic energy  EATOM  =     33425.88044021
  Solvation  Ediel_sol  =         0.00000000
  ---------------------------------------------------
  free energy    TOTEN  =      -364.29552474 eV

  energy without entropy =     -364.26744108  energy(sigma->0) =     -364.28148291


--------------------------------------------------------------------------------------------------------




--------------------------------------- Iteration      1(  24)  ---------------------------------------


    POTLOK:  cpu time    0.1235: real time    0.1238
    SETDIJ:  cpu time    0.0177: real time    0.0178
     EDDAV:  cpu time    1.7358: real time    1.7399
    CHARGE:  cpu time    0.1111: real time    0.1114
    MIXING:  cpu time    0.0056: real time    0.0056
    --------------------------------------------
      LOOP:  cpu time    1.9937: real time    1.9984

 eigenvalue-minimisations  :  1392
 total energy-change (2. order) :-0.8757944E-02  (-0.8564533E-03)
 number of electron     387.9999843 magnetization      11.1551404
 augmentation part      128.9694425 magnetization       7.7239664

 Broyden mixing:
  rms(total) = 0.13708E+00    rms(broyden)= 0.13705E+00
  rms(prec ) = 0.14197E+00
  weight for this iteration     100.00

 eigenvalues of (default mixing * dielectric matrix)
  average eigenvalue GAMMA=   0.6738
  1.9190  1.7186  1.7186  1.2270  1.2270  0.7274  0.7274  0.5682  0.5682  0.5064
  0.4766  0.3684  0.1039  0.1249  0.1388  0.1791  0.1661  0.1683  0.1683

 Free energy of the ion-electron system (eV)
  ---------------------------------------------------
  alpha Z        PSCENC =      1219.01724829
  Ewald energy   TEWEN  =    -23745.95395898
  -Hartree energ DENC   =    -10155.82376957
  -exchange      EXHF   =         0.00000000
  -V(xc)+E(xc)   XCENC  =      1572.81626491
  PAW double counting   =     36023.84690931   -37380.26822576
  entropy T*S    EENTRO =        -0.02147533
  eigenvalues    EBANDS =     -1323.79771575
  atomic energy  EATOM  =     33425.88044021
  Solvation  Ediel_sol  =         0.00000000
  ---------------------------------------------------
  free energy    TOTEN  =      -364.30428268 eV

  energy without entropy =     -364.28280735  energy(sigma->0) =     -364.29354501


--------------------------------------------------------------------------------------------------------




--------------------------------------- Iteration      1(  25)  ---------------------------------------


    POTLOK:  cpu time    0.1232: real time    0.1235
    SETDIJ:  cpu time    0.0174: real time    0.0175
     EDDAV:  cpu time    1.8598: real time    1.8643
    CHARGE:  cpu time    0.1118: real time    0.1120
    MIXING:  cpu time    0.0058: real time    0.0058
    --------------------------------------------
      LOOP:  cpu time    2.1180: real time    2.1231

 eigenvalue-minimisations  :  1520
 total energy-change (2. order) :-0.4478520E-02  (-0.2760979E-03)
 number of electron     387.9999843 magnetization      11.0501657
 augmentation part      128.9666077 magnetization       7.5737324

 Broyden mixing:
  rms(total) = 0.15811E+00    rms(broyden)= 0.15810E+00
  rms(prec ) = 0.16320E+00
  weight for this iteration     100.00

 eigenvalues of (default mixing * dielectric matrix)
  average eigenvalue GAMMA=   0.6699
  1.9889  1.5880  1.5880  1.2207  1.2207  0.6372  0.7350  0.7350  0.5818  0.5818
  0.5004  0.5004  0.4331  0.1039  0.1249  0.1388  0.1894  0.1894  0.1657  0.1744

 Free energy of the ion-electron system (eV)
  ---------------------------------------------------
  alpha Z        PSCENC =      1219.01724829
  Ewald energy   TEWEN  =    -23745.95395898
  -Hartree energ DENC   =    -10155.93870479
  -exchange      EXHF   =         0.00000000
  -V(xc)+E(xc)   XCENC  =      1572.83393489
  PAW double counting   =     36025.16192566   -37381.57216126
  entropy T*S    EENTRO =        -0.01685304
  eigenvalues    EBANDS =     -1323.72063219
  atomic energy  EATOM  =     33425.88044021
  Solvation  Ediel_sol  =         0.00000000
  ---------------------------------------------------
  free energy    TOTEN  =      -364.30876120 eV

  energy without entropy =     -364.29190816  energy(sigma->0) =     -364.30033468


--------------------------------------------------------------------------------------------------------




--------------------------------------- Iteration      1(  26)  ---------------------------------------


    POTLOK:  cpu time    0.1222: real time    0.1225
    SETDIJ:  cpu time    0.0180: real time    0.0181
     EDDAV:  cpu time    1.8086: real time    1.8129
    CHARGE:  cpu time    0.1124: real time    0.1127
    MIXING:  cpu time    0.0057: real time    0.0058
    --------------------------------------------
      LOOP:  cpu time    2.0671: real time    2.0720

 eigenvalue-minimisations  :  1472
 total energy-change (2. order) : 0.3559641E-02  (-0.2697877E-03)
 number of electron     387.9999843 magnetization      10.9090895
 augmentation part      128.9638967 magnetization       7.4489665

 Broyden mixing:
  rms(total) = 0.17478E+00    rms(broyden)= 0.17478E+00
  rms(prec ) = 0.18089E+00
  weight for this iteration     100.00

 eigenvalues of (default mixing * dielectric matrix)
  average eigenvalue GAMMA=   0.6902
  1.6103  1.9533  1.5542  1.5542  1.2512  1.2512  0.7359  0.7359  0.5857  0.5857
  0.5074  0.5074  0.4422  0.1039  0.1893  0.1893  0.1657  0.1748  0.1249  0.1388
  0.1325

 Free energy of the ion-electron system (eV)
  ---------------------------------------------------
  alpha Z        PSCENC =      1219.01724829
  Ewald energy   TEWEN  =    -23745.95395898
  -Hartree energ DENC   =    -10155.95624131
  -exchange      EXHF   =         0.00000000
  -V(xc)+E(xc)   XCENC  =      1572.81827205
  PAW double counting   =     36024.17814578   -37380.57028946
  entropy T*S    EENTRO =        -0.01877095
  eigenvalues    EBANDS =     -1323.70004719
  atomic energy  EATOM  =     33425.88044021
  Solvation  Ediel_sol  =         0.00000000
  ---------------------------------------------------
  free energy    TOTEN  =      -364.30520156 eV

  energy without entropy =     -364.28643061  energy(sigma->0) =     -364.29581608


--------------------------------------------------------------------------------------------------------




--------------------------------------- Iteration      1(  27)  ---------------------------------------


    POTLOK:  cpu time    0.1221: real time    0.1223
    SETDIJ:  cpu time    0.0178: real time    0.0179
     EDDAV:  cpu time    1.7760: real time    1.7802
    CHARGE:  cpu time    0.1131: real time    0.1133
[...]
   -.227E+00 0.796E-01 -.969E+00   0.226E+00 -.834E-01 0.975E+00   0.734E-02 -.425E-02 0.183E-01   -.441E-02 0.387E-02 -.984E-02
   -.841E-01 0.421E-01 -.303E+00   0.639E-01 -.416E-01 0.312E+00   0.909E-02 -.113E-03 0.413E-02   0.816E-02 -.150E-02 -.858E-02
   0.841E-01 0.421E-01 0.303E+00   -.639E-01 -.416E-01 -.312E+00   -.909E-02 -.113E-03 -.413E-02   -.816E-02 -.150E-02 0.858E-02
   0.679E-05 -.233E+02 -.117E-05   -.426E-13 0.238E+02 0.213E-13   0.000E+00 -.500E+00 -.248E-23   -.329E-13 0.630E-02 0.147E-12
   0.142E+02 -.369E-01 0.543E+02   -.147E+02 0.665E-01 -.542E+02   0.522E+00 -.148E-02 -.431E-01   -.158E-01 -.250E-01 -.345E-02
   -.142E+02 -.369E-01 -.543E+02   0.147E+02 0.665E-01 0.542E+02   -.522E+00 -.148E-02 0.431E-01   0.158E-01 -.250E-01 0.345E-02
   0.153E+02 -.283E-01 0.563E+02   -.158E+02 0.790E-03 -.563E+02   0.555E+00 0.350E-02 -.578E-02   0.109E-01 0.251E-01 0.780E-02
   -.153E+02 -.283E-01 -.563E+02   0.158E+02 0.790E-03 0.563E+02   -.555E+00 0.350E-02 0.578E-02   -.109E-01 0.251E-01 -.780E-02
   -.980E-05 0.234E+02 0.169E-05   -.568E-13 -.239E+02 -.426E-13   0.000E+00 0.495E+00 -.133E-22   -.716E-13 -.731E-02 0.174E-12
   -.974E-05 0.228E+02 0.171E-05   0.142E-13 -.233E+02 0.604E-13   0.000E+00 0.497E+00 -.827E-24   -.148E-12 -.311E-02 0.162E-12
   0.793E-05 -.228E+02 -.139E-05   -.142E-13 0.233E+02 -.355E-14   0.000E+00 -.496E+00 0.136E-22   -.147E-12 0.397E-02 0.753E-13
   -.963E-05 0.233E+02 0.170E-05   0.453E-13 -.238E+02 -.240E-13   0.000E+00 0.494E+00 -.132E-22   -.244E-12 0.143E-01 0.607E-13
   -.135E+02 0.160E+00 -.542E+02   0.140E+02 -.162E+00 0.541E+02   -.516E+00 0.285E-02 0.441E-01   0.311E-01 -.486E-02 0.442E-02
   0.135E+02 0.160E+00 0.542E+02   -.140E+02 -.162E+00 -.541E+02   0.516E+00 0.285E-02 -.441E-01   -.311E-01 -.486E-02 -.442E-02
   -.159E+02 -.172E+00 -.559E+02   0.165E+02 0.174E+00 0.559E+02   -.561E+00 -.238E-02 0.145E-01   -.301E-01 0.478E-02 -.225E-02
   0.159E+02 -.172E+00 0.559E+02   -.165E+02 0.174E+00 -.559E+02   0.561E+00 -.238E-02 -.145E-01   0.301E-01 0.478E-02 0.225E-02
   0.700E-05 -.233E+02 -.123E-05   -.107E-13 0.238E+02 0.000E+00   0.000E+00 -.496E+00 0.827E-24   -.201E-12 -.142E-01 -.730E-14
   0.613E-05 -.234E+02 -.105E-05   0.142E-13 0.238E+02 -.568E-13   0.000E+00 -.486E+00 -.310E-23   0.332E-13 0.136E-01 -.885E-13
   -.992E-05 0.234E+02 0.170E-05   -.171E-12 -.239E+02 0.497E-13   0.000E+00 0.486E+00 0.221E-22   -.750E-14 -.138E-01 -.165E-13
   0.404E+02 0.292E+02 0.304E+03   -.450E+02 -.310E+02 -.320E+03   0.462E+01 0.172E+01 0.159E+02   -.587E-02 0.149E-01 -.303E-01
   -.404E+02 0.292E+02 -.304E+03   0.450E+02 -.310E+02 0.320E+03   -.462E+01 0.172E+01 -.159E+02   0.587E-02 0.149E-01 0.303E-01
   -.401E+02 0.293E+02 -.305E+03   0.447E+02 -.311E+02 0.321E+03   -.461E+01 0.172E+01 -.159E+02   -.969E-02 -.131E-02 -.310E-01
   0.401E+02 0.293E+02 0.305E+03   -.447E+02 -.311E+02 -.321E+03   0.461E+01 0.172E+01 0.159E+02   0.969E-02 -.131E-02 0.310E-01
   -.247E+02 -.342E-01 0.295E+03   0.253E+02 0.488E-01 -.310E+03   -.620E+00 -.517E-02 0.150E+02   0.331E-01 -.805E-02 0.334E-02
   0.247E+02 -.342E-01 -.295E+03   -.253E+02 0.488E-01 0.310E+03   0.620E+00 -.517E-02 -.150E+02   -.331E-01 -.805E-02 -.334E-02
   -.788E+01 -.190E-02 -.277E+03   0.930E+01 -.102E-01 0.289E+03   -.137E+01 0.591E-02 -.114E+02   -.400E-01 0.797E-02 0.459E-02
   0.788E+01 -.190E-02 0.277E+03   -.930E+01 -.102E-01 -.289E+03   0.137E+01 0.591E-02 0.114E+02   0.400E-01 0.797E-02 -.459E-02
   0.249E+02 -.842E-01 -.294E+03   -.256E+02 0.134E+00 0.309E+03   0.615E+00 -.204E-01 -.150E+02   0.559E-02 -.311E-01 -.194E-01
   -.249E+02 -.842E-01 0.294E+03   0.256E+02 0.134E+00 -.309E+03   -.615E+00 -.204E-01 0.150E+02   -.559E-02 -.311E-01 0.194E-01
   0.781E+01 0.114E+00 0.277E+03   -.919E+01 -.170E+00 -.288E+03   0.140E+01 0.308E-01 0.113E+02   -.673E-02 0.302E-01 0.214E-01
   -.781E+01 0.114E+00 -.277E+03   0.919E+01 -.170E+00 0.288E+03   -.140E+01 0.308E-01 -.113E+02   0.673E-02 0.302E-01 -.214E-01
   0.405E+02 -.292E+02 0.304E+03   -.451E+02 0.309E+02 -.320E+03   0.463E+01 -.171E+01 0.159E+02   -.521E-02 -.153E-01 -.290E-01
   -.405E+02 -.292E+02 -.304E+03   0.451E+02 0.309E+02 0.320E+03   -.463E+01 -.171E+01 -.159E+02   0.521E-02 -.153E-01 0.290E-01
   -.400E+02 -.293E+02 -.305E+03   0.446E+02 0.310E+02 0.320E+03   -.461E+01 -.172E+01 -.159E+02   -.259E-01 -.423E-03 -.175E-01
   0.400E+02 -.293E+02 0.305E+03   -.446E+02 0.310E+02 -.320E+03   0.461E+01 -.172E+01 0.159E+02   0.259E-01 -.423E-03 0.175E-01
   0.379E+02 -.289E+02 0.305E+03   -.423E+02 0.306E+02 -.321E+03   0.446E+01 -.167E+01 0.159E+02   -.414E-01 0.160E-01 -.257E-01
   -.379E+02 -.289E+02 -.305E+03   0.423E+02 0.306E+02 0.321E+03   -.446E+01 -.167E+01 -.159E+02   0.414E-01 0.160E-01 0.257E-01
   -.385E+02 -.291E+02 -.304E+03   0.430E+02 0.308E+02 0.320E+03   -.449E+01 -.170E+01 -.158E+02   0.358E-02 0.192E-02 -.255E-01
   0.385E+02 -.291E+02 0.304E+03   -.430E+02 0.308E+02 -.320E+03   0.449E+01 -.170E+01 0.158E+02   -.358E-02 0.192E-02 0.255E-01
   0.786E+01 0.235E+00 0.277E+03   -.928E+01 -.257E+00 -.288E+03   0.142E+01 0.271E-01 0.114E+02   0.666E-02 -.483E-02 -.192E-01
   -.786E+01 0.235E+00 -.277E+03   0.928E+01 -.257E+00 0.288E+03   -.142E+01 0.271E-01 -.114E+02   -.666E-02 -.483E-02 0.192E-01
   0.241E+02 -.179E+00 -.293E+03   -.245E+02 0.195E+00 0.308E+03   0.491E+00 -.212E-01 -.150E+02   -.182E-01 0.483E-02 0.270E-01
   -.241E+02 -.179E+00 0.293E+03   0.245E+02 0.195E+00 -.308E+03   -.491E+00 -.212E-01 0.150E+02   0.182E-01 0.483E-02 -.270E-01
   -.778E+01 0.177E+00 -.277E+03   0.915E+01 -.160E+00 0.288E+03   -.139E+01 0.482E-02 -.114E+02   0.189E-01 -.267E-01 -.898E-02
   0.778E+01 0.177E+00 0.277E+03   -.915E+01 -.160E+00 -.288E+03   0.139E+01 0.482E-02 0.114E+02   -.189E-01 -.267E-01 0.898E-02
   -.240E+02 -.204E+00 0.294E+03   0.246E+02 0.193E+00 -.309E+03   -.512E+00 -.113E-01 0.150E+02   -.200E-01 0.275E-01 0.115E-01
   0.240E+02 -.204E+00 -.294E+03   -.246E+02 0.193E+00 0.309E+03   0.512E+00 -.113E-01 -.150E+02   0.200E-01 0.275E-01 -.115E-01
   0.380E+02 0.288E+02 0.305E+03   -.424E+02 -.304E+02 -.321E+03   0.447E+01 0.166E+01 0.159E+02   -.354E-01 -.156E-01 -.259E-01
   -.380E+02 0.288E+02 -.305E+03   0.424E+02 -.304E+02 0.321E+03   -.447E+01 0.166E+01 -.159E+02   0.354E-01 -.156E-01 0.259E-01
   -.384E+02 0.291E+02 -.305E+03   0.429E+02 -.308E+02 0.320E+03   -.448E+01 0.170E+01 -.159E+02   -.154E-01 -.264E-03 -.111E-01
   0.384E+02 0.291E+02 0.305E+03   -.429E+02 -.308E+02 -.320E+03   0.448E+01 0.170E+01 0.159E+02   0.154E-01 -.264E-03 0.111E-01
 -----------------------------------------------------------------------------------------------
   -.164E-04 0.202E-01 0.411E-05   -.284E-13 -.146E-12 -.341E-12   0.000E+00 -.118E-01 0.178E-14   -.110E-11 0.513E-04 0.676E-12
 
 
 POSITION                                       TOTAL-FORCE (eV/Angst)
 -----------------------------------------------------------------------------------
      1.57942      5.60031      2.35502         0.010265      0.000776      0.011076
      4.76368      5.60031      7.06361        -0.010265      0.000776     -0.011076
      4.08114      1.40043      2.36669         0.002301     -0.002975      0.004282
      2.26195      1.40043      7.05194        -0.002301     -0.002975     -0.004282
      1.58351      2.79781      2.35897         0.000342      0.003969     -0.005008
      4.75959      2.79781      7.05967        -0.000342      0.003969      0.005008
      6.58227      5.60146      2.37592        -0.007630      0.000266      0.008690
     -0.23918      5.60146      7.04271         0.007630      0.000266     -0.008690
     -2.72984      4.20143      7.02911        -0.002354     -0.004343     -0.014384
      9.07294      4.20143      2.38952         0.002354     -0.004343      0.014384
      6.58002      2.80002      2.37690        -0.002952     -0.001306      0.005119
     -0.23692      2.80002      7.04173         0.002952     -0.001306     -0.005119
      0.00000      0.00600      0.00000         0.000000      0.007974      0.000000
     -1.15344      1.39932      9.34527         0.000046      0.002949      0.001550
      7.49653      1.39932      0.07336        -0.000046      0.002949     -0.001550
      3.83981      4.20011      9.36350         0.006834      0.000926      0.007013
      2.50328      4.20011      0.05513        -0.006834      0.000926     -0.007013
      0.00000      2.79216      0.00000         0.000000     -0.012140      0.000000
      4.99186      5.59308      0.02610         0.000000      0.009421      0.000000
      4.99186      2.80807      0.02610         0.000000     -0.012566      0.000000
      3.17155      5.59325      4.70932         0.000000     -0.017274      0.000000
      5.67711      1.39899      4.75614        -0.011137     -0.003747     -0.010296
      0.66598      1.39899      4.66249         0.011137     -0.003747      0.010296
      0.68211      4.19983      4.73886         0.002223      0.004715     -0.008537
      5.66098      4.19983      4.67977        -0.002223      0.004715      0.008537
      3.17155      2.80716      4.70932         0.000000      0.014235      0.000000
     -1.82031      0.00538      4.68322         0.000000      0.014580      0.000000
     -1.82031      2.79208      4.68322         0.000000     -0.012823      0.000000
      4.94509      0.04234      3.72946         0.004492      0.004423      0.005787
      1.39800      0.04234      5.68917        -0.004492      0.004423     -0.005787
      3.21862      0.04290      1.00512         0.003594     -0.000998      0.000094
      3.12448      0.04290      8.41351        -0.003594     -0.000998     -0.000094
      7.37494      1.39866      3.76369        -0.002110      0.001268      0.008819
     -1.03185      1.39866      5.65494         0.002110      0.001268     -0.008819
     -1.08756      4.19973      5.71625         0.003819      0.001617     -0.002878
      7.43065      4.19973      3.70238        -0.003819      0.001617      0.002878
      0.78995      1.39908      0.97190        -0.009861     -0.001352     -0.016557
      5.55314      1.39908      8.44674         0.009861     -0.001352      0.016557
      5.60863      4.19977      8.38563         0.008559      0.005451      0.011334
      0.73447      4.19977      1.03300        -0.008559      0.005451     -0.011334
      4.94546      2.75583      3.72937         0.000896     -0.005900      0.003682
      1.39764      2.75583      5.68926        -0.000896     -0.005900     -0.003682
      3.21829      2.75588      1.00576         0.001939     -0.001482     -0.002501
      3.12480      2.75588      8.41287        -0.001939     -0.001482      0.002501
     -0.05041      5.55655      3.71221         0.001364     -0.002470     -0.002786
      6.39350      5.55655      5.70642        -0.001364     -0.002470      0.002786
      8.21274      5.55698      1.02377        -0.000307     -0.003525      0.002067
     -1.86965      5.55698      8.39486         0.000307     -0.003525     -0.002067
      2.43116      1.39916      3.68332         0.004813      0.000716     -0.008098
      3.91193      1.39916      5.73531        -0.004813      0.000716      0.008098
      3.96577      4.20022      5.67528        -0.008502     -0.000229     -0.000886
      2.37733      4.20022      3.74335         0.008502     -0.000229      0.000886
      5.73117      1.39998      1.05312        -0.003637     -0.005028     -0.001617
      0.61193      1.39998      8.36551         0.003637     -0.005028      0.001617
      0.55788      4.20020      8.42606         0.002155      0.004967     -0.001670
      5.78521      4.20020      0.99257        -0.002155      0.004967      0.001670
     -0.05067      2.84297      3.71245         0.003507      0.003934     -0.003274
      6.39376      2.84297      5.70619        -0.003507      0.003934      0.003274
      8.21321      2.84338      1.02378        -0.006950      0.001674     -0.000978
     -1.87011      2.84338      8.39485         0.006950      0.001674      0.000978
 -----------------------------------------------------------------------------------
    total drift:                               -0.000016      0.008495      0.000004


--------------------------------------------------------------------------------------------------------



  FREE ENERGIE OF THE ION-ELECTRON SYSTEM (eV)
  ---------------------------------------------------
  free  energy   TOTEN  =      -364.3245373086 eV

  energy  without entropy=     -364.3228323195  energy(sigma->0) =     -364.32368481
 


--------------------------------------------------------------------------------------------------------


    POTLOK:  cpu time    0.1391: real time    0.1394


--------------------------------------------------------------------------------------------------------


 Quasi-Newton relaxation of ions (Broydens 2nd method)
  g(Force)  = 0.294E-03   g(Stress)= 0.147E-03

 Reset! Starting new Quasi-Newton update for ions 


--------------------------------------------------------------------------------------------------------


  
 reached required accuracy - stopping structural energy minimisation
     LOOP+:  cpu time   77.9829: real time   78.3905
    4ORBIT:  cpu time    0.0000: real time    0.0000

volume of typ            1:    17.8 %

volume of typ            2:    19.4 %

volume of typ            3:     9.9 %
 
total charge     
 
# of ion       s       p       d       tot
------------------------------------------
    1        2.078   0.253   0.092   2.422
    2        2.078   0.253   0.092   2.422
    3        2.080   0.252   0.095   2.427
    4        2.080   0.252   0.095   2.427
    5        2.078   0.253   0.092   2.422
    6        2.078   0.253   0.092   2.422
    7        2.078   0.253   0.092   2.422
    8        2.078   0.253   0.092   2.422
    9        2.081   0.252   0.095   2.427
   10        2.081   0.252   0.095   2.427
   11        2.078   0.253   0.092   2.422
   12        2.078   0.253   0.092   2.422
   13        0.263   0.347   7.861   8.471
   14        0.278   0.379   7.861   8.519
   15        0.278   0.379   7.861   8.519
   16        0.278   0.379   7.861   8.518
   17        0.278   0.379   7.861   8.518
   18        0.263   0.347   7.862   8.472
   19        0.263   0.346   7.861   8.471
   20        0.263   0.347   7.863   8.473
   21        0.263   0.347   7.862   8.471
   22        0.278   0.379   7.862   8.519
   23        0.278   0.379   7.862   8.519
   24        0.278   0.379   7.863   8.520
   25        0.278   0.379   7.863   8.520
   26        0.263   0.346   7.862   8.471
   27        0.263   0.348   7.860   8.471
   28        0.263   0.348   7.861   8.472
   29        1.263   2.778   0.006   4.047
   30        1.263   2.778   0.006   4.047
   31        1.263   2.778   0.006   4.048
   32        1.263   2.778   0.006   4.048
   33        1.263   2.779   0.006   4.049
   34        1.263   2.779   0.006   4.049
   35        1.257   2.797   0.006   4.059
   36        1.257   2.797   0.006   4.059
   37        1.263   2.780   0.006   4.049
   38        1.263   2.780   0.006   4.049
   39        1.257   2.797   0.006   4.059
   40        1.257   2.797   0.006   4.059
   41        1.263   2.779   0.006   4.048
   42        1.263   2.779   0.006   4.048
   43        1.263   2.779   0.006   4.048
   44        1.263   2.779   0.006   4.048
   45        1.263   2.779   0.006   4.048
   46        1.263   2.779   0.006   4.048
   47        1.263   2.779   0.006   4.048
   48        1.263   2.779   0.006   4.048
   49        1.257   2.797   0.006   4.059
   50        1.257   2.797   0.006   4.059
   51        1.263   2.780   0.006   4.049
   52        1.263   2.780   0.006   4.049
   53        1.257   2.797   0.006   4.059
   54        1.257   2.797   0.006   4.059
   55        1.263   2.780   0.006   4.049
   56        1.263   2.780   0.006   4.049
   57        1.263   2.779   0.006   4.048
   58        1.263   2.779   0.006   4.048
   59        1.263   2.779   0.006   4.048
   60        1.263   2.779   0.006   4.048
--------------------------------------------------
tot          69.63   97.91  127.10  294.64
 
magnetization (x)
 
# of ion       s       p       d       tot
------------------------------------------
    1        0.005   0.017  -0.001   0.021
    2        0.005   0.017  -0.001   0.021
    3        0.005   0.009  -0.000   0.014
    4        0.005   0.009  -0.000   0.014
    5        0.005   0.017  -0.001   0.021
    6        0.005   0.017  -0.001   0.021
    7        0.005   0.017  -0.001   0.021
    8        0.005   0.017  -0.001   0.021
    9        0.005   0.009  -0.000   0.014
   10        0.005   0.009  -0.000   0.014
   11        0.005   0.017  -0.001   0.021
   12        0.005   0.017  -0.001   0.021
   13        0.001  -0.000   0.666   0.667
   14        0.000  -0.000   0.436   0.436
   15        0.000  -0.000   0.436   0.436
   16        0.000  -0.000   0.439   0.439
   17        0.000  -0.000   0.439   0.439
   18        0.001  -0.000   0.666   0.667
   19        0.001  -0.000   0.671   0.672
   20        0.001  -0.000   0.671   0.672
   21        0.001  -0.000   0.670   0.671
   22        0.000  -0.000   0.435   0.436
   23        0.000  -0.000   0.435   0.436
   24        0.000  -0.000   0.439   0.439
   25        0.000  -0.000   0.439   0.439
   26        0.001  -0.000   0.671   0.672
   27        0.001  -0.000   0.662   0.663
   28        0.001  -0.000   0.661   0.662
   29        0.008   0.052   0.000   0.060
   30        0.008   0.052   0.000   0.060
   31        0.008   0.052   0.000   0.060
   32        0.008   0.052   0.000   0.060
   33        0.011   0.077   0.000   0.088
   34        0.011   0.077   0.000   0.088
   35        0.011   0.049   0.000   0.060
   36        0.011   0.049   0.000   0.060
   37        0.011   0.078   0.000   0.089
   38        0.011   0.078   0.000   0.089
   39        0.011   0.049   0.000   0.060
   40        0.011   0.049   0.000   0.060
   41        0.008   0.052   0.000   0.060
   42        0.008   0.052   0.000   0.060
   43        0.008   0.052   0.000   0.060
   44        0.008   0.052   0.000   0.060
   45        0.008   0.049   0.000   0.057
   46        0.008   0.049   0.000   0.057
   47        0.008   0.050   0.000   0.058
   48        0.008   0.050   0.000   0.058
   49        0.010   0.048   0.000   0.059
   50        0.010   0.048   0.000   0.059
   51        0.011   0.078   0.000   0.089
   52        0.011   0.078   0.000   0.089
   53        0.010   0.048   0.000   0.059
   54        0.010   0.048   0.000   0.059
   55        0.011   0.078   0.000   0.089
   56        0.011   0.078   0.000   0.089
   57        0.008   0.049   0.000   0.057
   58        0.008   0.049   0.000   0.057
   59        0.008   0.050   0.000   0.058
   60        0.008   0.050   0.000   0.058
--------------------------------------------------
tot           0.37    1.99    8.84   11.19
 

 total amount of memory used by VASP MPI-rank0   100503. kBytes
=======================================================================

   base      :      30000. kBytes
   nonlr-proj:      24592. kBytes
   fftplans  :       6149. kBytes
   grid      :      35266. kBytes
   one-center:        933. kBytes
   wavefun   :       3563. kBytes
 
  
  
 General timing and accounting informations for this job:
 ========================================================
  
                  Total CPU time used (sec):       83.776
                            User time (sec):       81.772
                          System time (sec):        2.005
                         Elapsed time (sec):       87.833
  
                   Maximum memory used (kb):      145636.
                   Average memory used (kb):           0.
  
                          Minor page faults:        35333
                          Major page faults:           50
                 Voluntary context switches:         1163
