 vasp.5.4.4.18Apr17-6-g9f103f2a35 (build May 12 2020 05:39:39) gamma-only       
  
 MD_VERSION_INFO: Compiled 2020-05-12T12:39:39-UTC in devlin.sd.materialsdesign.
 com:/home/medea2/data/build/wwolf/vasp-gpu5.4.4/13047/x86_64/src/src/build/gam 
 from svn 13047
 
 This VASP executable licensed from Materials Design, Inc.
 
 executed on                        Lin64 date 2023.03.07  03:44:16
 running on   16 total cores
 distrk:  each k-point on   16 cores,    1 groups
 distr:  one band on NCORES_PER_BAND=   1 cores,   16 groups


--------------------------------------------------------------------------------------------------------


 INCAR:
 POTCAR:    PAW_PBE Li_sv 10Sep2004               
 POTCAR:    PAW_PBE Ni 02Aug2007                  
 POTCAR:    PAW_PBE O 08Apr2002                   

 ----------------------------------------------------------------------------- 
|                                                                             |
|           W    W    AA    RRRRR   N    N  II  N    N   GGGG   !!!           |
|           W    W   A  A   R    R  NN   N  II  NN   N  G    G  !!!           |
|           W    W  A    A  R    R  N N  N  II  N N  N  G       !!!           |
|           W WW W  AAAAAA  RRRRR   N  N N  II  N  N N  G  GGG   !            |
|           WW  WW  A    A  R   R   N   NN  II  N   NN  G    G                |
|           W    W  A    A  R    R  N    N  II  N    N   GGGG   !!!           |
|                                                                             |
|      For optimal performance we recommend to set                            |
|        NCORE= 4 - approx SQRT( number of cores)                             |
|      NCORE specifies how many cores store one orbital (NPAR=cpu/NCORE).     |
|      This setting can  greatly improve the performance of VASP for DFT.     |
|      The default,   NCORE=1            might be grossly inefficient         |
|      on modern multi-core architectures or massively parallel machines.     |
|      Do your own testing !!!!                                               |
|      Unfortunately you need to use the default for GW and RPA calculations. |
|      (for HF NCORE is supported but not extensively tested yet)             |
|                                                                             |
 ----------------------------------------------------------------------------- 

 POTCAR:    PAW_PBE Li_sv 10Sep2004               
  local pseudopotential read in
  atomic valenz-charges read in
  non local Contribution for L=           0  read in
    real space projection operators read in
  non local Contribution for L=           0  read in
    real space projection operators read in
  non local Contribution for L=           1  read in
    real space projection operators read in
    PAW grid and wavefunctions read in
 
   number of l-projection  operators is LMAX  =           3
   number of lm-projection operators is LMMAX =           5
 
 POTCAR:    PAW_PBE Ni 02Aug2007                  
  local pseudopotential read in
  partial core-charges read in
  partial kinetic energy density read in
  atomic valenz-charges read in
  non local Contribution for L=           2  read in
    real space projection operators read in
  non local Contribution for L=           2  read in
    real space projection operators read in
  non local Contribution for L=           0  read in
    real space projection operators read in
  non local Contribution for L=           0  read in
    real space projection operators read in
  non local Contribution for L=           1  read in
    real space projection operators read in
  non local Contribution for L=           1  read in
    real space projection operators read in
    PAW grid and wavefunctions read in
 
   number of l-projection  operators is LMAX  =           6
   number of lm-projection operators is LMMAX =          18
 
 POTCAR:    PAW_PBE O 08Apr2002                   
  local pseudopotential read in
  partial core-charges read in
  partial kinetic energy density read in
  kinetic energy density of atom read in
  atomic valenz-charges read in
  non local Contribution for L=           0  read in
    real space projection operators read in
  non local Contribution for L=           0  read in
    real space projection operators read in
  non local Contribution for L=           1  read in
    real space projection operators read in
  non local Contribution for L=           1  read in
    real space projection operators read in
    PAW grid and wavefunctions read in
 
   number of l-projection  operators is LMAX  =           4
   number of lm-projection operators is LMMAX =           8
 
 Optimization of the real space projectors (new method)

 maximal supplied QI-value         = 22.11
 optimisation between [QCUT,QGAM] = [ 11.28, 22.77] = [ 35.61,145.23] Ry 
 Optimized for a Real-space Cutoff    1.10 Angstroem

   l    n(q)    QCUT    max X(q) W(low)/X(q) W(high)/X(q)  e(spline) 
   0      7    11.276    10.506    0.54E-04    0.58E-04    0.16E-07
   0      7    11.276     8.367    0.11E-03    0.14E-03    0.35E-07
   1      7    11.276     8.983    0.23E-03    0.43E-03    0.86E-07
 Optimization of the real space projectors (new method)

 maximal supplied QI-value         = 16.25
 optimisation between [QCUT,QGAM] = [ 11.38, 22.75] = [ 36.24,144.96] Ry 
 Optimized for a Real-space Cutoff    1.47 Angstroem

   l    n(q)    QCUT    max X(q) W(low)/X(q) W(high)/X(q)  e(spline) 
   2      9    11.376    60.317    0.17E-03    0.16E-04    0.16E-06
   2      9    11.376    55.921    0.17E-03    0.16E-04    0.17E-06
   0     10    11.376    51.690    0.45E-04    0.60E-04    0.21E-06
   0     10    11.376    30.015    0.37E-04    0.55E-04    0.19E-06
   1     10    11.376    18.849    0.83E-04    0.11E-03    0.92E-07
   1     10    11.376    14.624    0.69E-04    0.92E-04    0.82E-07
 Optimization of the real space projectors (new method)

 maximal supplied QI-value         = 24.76
 optimisation between [QCUT,QGAM] = [ 11.39, 22.77] = [ 36.31,145.25] Ry 
 Optimized for a Real-space Cutoff    1.10 Angstroem

   l    n(q)    QCUT    max X(q) W(low)/X(q) W(high)/X(q)  e(spline) 
   0      7    11.387    20.381    0.22E-03    0.48E-03    0.18E-06
   0      7    11.387    15.268    0.22E-03    0.52E-03    0.19E-06
   1      7    11.387     5.964    0.22E-03    0.73E-03    0.24E-06
   1      7    11.387     5.382    0.19E-03    0.60E-03    0.21E-06

 ----------------------------------------------------------------------------- 
|                                                                             |
|  ADVICE TO THIS USER RUNNING 'VASP/VAMP'   (HEAR YOUR MASTER'S VOICE ...):  |
|                                                                             |
|      You enforced a specific xc-type in the INCAR file,                     |
|      a different type was found on the POTCAR file                          |
|          I HOPE YOU KNOW, WHAT YOU ARE  DOING                               |
|                                                                             |
 ----------------------------------------------------------------------------- 

  PAW_PBE Li_sv 10Sep2004               :
 energy of atom  1       EATOM= -202.7858
 kinetic energy error for atom=    0.0143 (will be added to EATOM!!)
  PAW_PBE Ni 02Aug2007                  :
 energy of atom  2       EATOM=-1077.6739
 kinetic energy error for atom=    0.0030 (will be added to EATOM!!)
  PAW_PBE O 08Apr2002                   :
 energy of atom  3       EATOM= -432.3788
 kinetic energy error for atom=    0.0224 (will be added to EATOM!!)
 
 
 POSCAR: ce13123_1                               
  positions in direct lattice
  No initial velocities read in
 exchange correlation table for  LEXCH =       14
   RHO(1)=    0.500       N(1)  =     2000
   RHO(2)=  100.500       N(2)  =     4000
 


--------------------------------------------------------------------------------------------------------


 ion  position               nearest neighbor table
   1  0.250  0.250  0.501-  41 2.09  31 2.11  43 2.11  53 2.12  29 2.12  49 2.14  22 2.83  14 2.84

   2  0.250  0.750  0.499-  42 2.09  32 2.11  44 2.11  54 2.12  30 2.12  50 2.14  23 2.83  15 2.84

   3  0.750  0.750  0.499-  42 2.09  32 2.11  44 2.11  55 2.12  30 2.12  51 2.14  24 2.83  16 2.84

   4  0.750  0.250  0.501-  41 2.09  31 2.11  43 2.11  56 2.12  29 2.12  52 2.14  25 2.83  17 2.84

   5  0.500  0.250  0.251-  57 2.05  43 2.09  52 2.13  49 2.13  37 2.14  40 2.14  26 2.83
   6  0.500  0.750  0.749-  58 2.05  44 2.09  51 2.13  50 2.13  38 2.14  39 2.14  26 2.83
   7  0.000  0.249  0.750-  29 2.04  47 2.10  53 2.13  56 2.13  36 2.14  33 2.14  19 2.83
   8  0.000  0.751  0.250-  30 2.04  48 2.10  54 2.13  55 2.13  35 2.14  34 2.14  19 2.83
   9  0.250  0.250  0.001-  45 2.10  37 2.11  47 2.12  59 2.12  57 2.13  33 2.13  23 2.84
  10  0.250  0.750  0.999-  46 2.10  38 2.11  48 2.12  60 2.12  58 2.13  34 2.13  22 2.84
  11  0.750  0.750  0.999-  46 2.10  39 2.11  48 2.12  60 2.12  58 2.13  35 2.13  25 2.84
  12  0.750  0.250  0.001-  45 2.10  40 2.11  47 2.12  59 2.12  57 2.13  36 2.13  24 2.84
  13  0.000  0.000  0.000-  37 1.87  38 1.87  39 1.87  40 1.87  47 2.04  48 2.04  18 2.80  18 2.80
                            14 2.87  15 2.87  16 2.87  17 2.87
  14  0.250  0.000  0.250-  43 1.88  48 1.88  60 1.89  31 1.89  54 2.03  37 2.04  17 2.80  17 2.80
                             1 2.84  18 2.87  13 2.87  20 2.87  19 2.87
  15  0.250  1.000  0.750-  44 1.88  47 1.88  59 1.89  32 1.89  53 2.03  38 2.04  16 2.80  16 2.80
                             2 2.84  18 2.87  13 2.87  20 2.87  19 2.87
  16  0.750  1.000  0.750-  44 1.88  47 1.88  59 1.89  32 1.89  56 2.03  39 2.04  15 2.80  15 2.80
                             3 2.84  18 2.87  13 2.87  20 2.87  19 2.87
  17  0.750  0.000  0.250-  43 1.88  48 1.88  60 1.89  31 1.89  55 2.03  40 2.04  14 2.80  14 2.80
                             4 2.84  18 2.87  13 2.87  20 2.87  19 2.87
  18  0.500  0.000  0.000-  37 1.85  38 1.85  39 1.85  40 1.85  59 1.93  60 1.93  13 2.80  13 2.80
                            17 2.87  14 2.87  15 2.87  16 2.87
  19  0.000  0.000  0.500-  53 1.85  54 1.85  55 1.85  56 1.85  31 1.94  32 1.94  20 2.80  20 2.80
                             7 2.83   8 2.83  14 2.87  15 2.87  16 2.87  17 2.87
  20  0.500  0.000  0.500-  53 1.86  54 1.86  55 1.86  56 1.86  43 2.05  44 2.05  19 2.80  19 2.80
                            14 2.87  15 2.87  16 2.87  17 2.87
  21  0.000  0.500  0.500-  49 1.86  50 1.86  51 1.86  52 1.86  29 2.12  30 2.12  26 2.80  26 2.80
                            22 2.87  23 2.87  24 2.87  25 2.87
  22  0.250  0.499  0.750-  29 1.87  58 1.87  46 1.90  41 1.90  50 2.02  33 2.03  25 2.79  25 2.80
                             1 2.83  10 2.84  27 2.87  21 2.87  28 2.87  26 2.87
  23  0.250  0.501  0.250-  30 1.87  57 1.87  45 1.90  42 1.90  49 2.02  34 2.03  24 2.79  24 2.80
                             2 2.83   9 2.84  27 2.87  21 2.87  28 2.87  26 2.87
  24  0.750  0.501  0.250-  30 1.87  57 1.87  45 1.90  42 1.90  52 2.02  35 2.03  23 2.79  23 2.80
                             3 2.83  12 2.84  27 2.87  21 2.87  28 2.87  26 2.87
  25  0.750  0.499  0.750-  29 1.87  58 1.87  46 1.90  41 1.90  51 2.02  36 2.03  22 2.79  22 2.80
                             4 2.83  11 2.84  27 2.87  21 2.87  28 2.87  26 2.87
  26  0.500  0.500  0.500-  49 1.86  50 1.86  51 1.86  52 1.86  41 1.91  42 1.91  21 2.80  21 2.80
                             5 2.83   6 2.83  25 2.87  22 2.87  23 2.87  24 2.87
  27  0.000  0.500  0.000-  33 1.86  34 1.86  35 1.86  36 1.86  45 1.91  46 1.91  28 2.80  28 2.80
                            22 2.87  23 2.87  24 2.87  25 2.87
  28  0.500  0.500  0.000-  33 1.86  34 1.86  35 1.86  36 1.86  57 2.11  58 2.11  27 2.80  27 2.80
                            22 2.87  23 2.87  24 2.87  25 2.87
  29  0.000  0.388  0.644-  22 1.87  25 1.87   7 2.04   4 2.12   1 2.12  21 2.12
  30  0.000  0.612  0.356-  23 1.87  24 1.87   8 2.04   3 2.12   2 2.12  21 2.12
  31  0.000  0.103  0.370-  14 1.89  17 1.89  19 1.94   4 2.11   1 2.11
  32  0.000  0.897  0.630-  15 1.89  16 1.89  19 1.94   3 2.11   2 2.11
  33  0.250  0.395  0.890-  27 1.86  28 1.86  22 2.03   9 2.13   7 2.14
  34  0.250  0.605  0.110-  27 1.86  28 1.86  23 2.03  10 2.13   8 2.14
  35  0.750  0.605  0.110-  27 1.86  28 1.86  24 2.03  11 2.13   8 2.14
  36  0.750  0.395  0.890-  27 1.86  28 1.86  25 2.03  12 2.13   7 2.14
  37  0.252  0.106  0.110-  18 1.85  13 1.87  14 2.04   9 2.11   5 2.14
  38  0.252  0.894  0.890-  18 1.85  13 1.87  15 2.04  10 2.11   6 2.14
  39  0.748  0.894  0.890-  18 1.85  13 1.87  16 2.04  11 2.11   6 2.14
  40  0.748  0.106  0.110-  18 1.85  13 1.87  17 2.04  12 2.11   5 2.14
  41  0.500  0.396  0.627-  22 1.90  25 1.90  26 1.91   4 2.09   1 2.09
  42  0.500  0.604  0.373-  23 1.90  24 1.90  26 1.91   3 2.09   2 2.09
  43  0.500  0.110  0.363-  14 1.88  17 1.88  20 2.05   5 2.09   1 2.11   4 2.11
  44  0.500  0.890  0.637-  15 1.88  16 1.88  20 2.05   6 2.09   2 2.11   3 2.11
  45  0.000  0.397  0.127-  23 1.90  24 1.90  27 1.91  12 2.10   9 2.10
  46  0.000  0.603  0.873-  22 1.90  25 1.90  27 1.91  11 2.10  10 2.10
  47  0.000  0.109  0.863-  15 1.88  16 1.88  13 2.04   7 2.10  12 2.12   9 2.12
  48  0.000  0.891  0.137-  14 1.88  17 1.88  13 2.04   8 2.10  11 2.12  10 2.12
  49  0.250  0.396  0.389-  26 1.86  21 1.86  23 2.02   5 2.13   1 2.14
  50  0.250  0.604  0.611-  26 1.86  21 1.86  22 2.02   6 2.13   2 2.14
  51  0.750  0.604  0.611-  26 1.86  21 1.86  25 2.02   6 2.13   3 2.14
  52  0.750  0.396  0.389-  26 1.86  21 1.86  24 2.02   5 2.13   4 2.14
  53  0.249  0.105  0.611-  19 1.85  20 1.86  15 2.03   1 2.12   7 2.13
  54  0.249  0.895  0.389-  19 1.85  20 1.86  14 2.03   2 2.12   8 2.13
  55  0.751  0.895  0.389-  19 1.85  20 1.86  17 2.03   3 2.12   8 2.13
  56  0.751  0.105  0.611-  19 1.85  20 1.86  16 2.03   4 2.12   7 2.13
  57  0.500  0.389  0.143-  23 1.87  24 1.87   5 2.05  28 2.11  12 2.13   9 2.13
  58  0.500  0.611  0.857-  22 1.87  25 1.87   6 2.05  28 2.11  11 2.13  10 2.13
  59  0.500  0.102  0.869-  15 1.89  16 1.89  18 1.93  12 2.12   9 2.12
  60  0.500  0.898  0.131-  14 1.89  17 1.89  18 1.93  11 2.12  10 2.12
 
  LATTYP: Found a simple monoclinic cell.
 ALAT       =    11.3591200086
 B/A-ratio  =     0.4922578440
 C/A-ratio  =     1.6695235087
 COS(beta)  =    -0.8999412393
  
  Lattice vectors:
  
 A1 = (  -6.3618669791,   0.0000000000,  -9.4104333539)
 A2 = (   0.0000000000,  -5.5916159247,   0.0000000000)
 A3 = (   2.7083880542,   0.0000000000,  18.7699224097)


Analysis of symmetry for initial positions (statically):
=====================================================================
 Subroutine PRICEL returns:
 Original cell was already a primitive cell.
 

 Routine SETGRP: Setting up the symmetry group for a 
 simple monoclinic supercell.


 Subroutine GETGRP returns: Found  4 space group operations
 (whereof  4 operations were pure point group operations)
 out of a pool of  4 trial point group operations.


The static configuration has the point symmetry C_2h.


Analysis of symmetry for dynamics (positions and initial velocities):
=====================================================================
 Subroutine PRICEL returns:
 Original cell was already a primitive cell.
 

 Routine SETGRP: Setting up the symmetry group for a 
 simple monoclinic supercell.


 Subroutine GETGRP returns: Found  4 space group operations
 (whereof  4 operations were pure point group operations)
 out of a pool of  4 trial point group operations.


The dynamic configuration has the point symmetry C_2h.


Analysis of structural, dynamic, and magnetic symmetry:
=====================================================================
 Subroutine PRICEL returns:
 Original cell was already a primitive cell.
 

 Routine SETGRP: Setting up the symmetry group for a 
 simple monoclinic supercell.


 Subroutine GETGRP returns: Found  4 space group operations
 (whereof  4 operations were pure point group operations)
 out of a pool of  4 trial point group operations.


The magnetic configuration has the point symmetry C_2h.


 Subroutine INISYM returns: Found  4 space group operations
 (whereof  4 operations are pure point group operations),
 and found     1 'primitive' translations

 
 
 KPOINTS: Automatic mesh                          

Automatic generation of k-mesh.
Space group operators:
 irot       det(A)        alpha          n_x          n_y          n_z        tau_x        tau_y        tau_z
    1     1.000000     0.000000     1.000000     0.000000     0.000000     0.000000     0.000000     0.000000
    2    -1.000000     0.000000     1.000000     0.000000     0.000000     0.000000     0.000000     0.000000
    3     1.000000   180.000000     0.000000     1.000000     0.000000     0.000000     0.000000     0.000000
    4    -1.000000   180.000000     0.000000     1.000000     0.000000     0.000000     0.000000     0.000000
 
 Subroutine IBZKPT returns following result:
 ===========================================
 
 Found      1 irreducible k-points:
 
 Following reciprocal coordinates:
            Coordinates               Weight
  0.000000  0.000000  0.000000      1.000000
 
 Following cartesian coordinates:
            Coordinates               Weight
  0.000000  0.000000  0.000000      1.000000
 


--------------------------------------------------------------------------------------------------------




 Dimension of arrays:
   k-points           NKPTS =      1   k-points in BZ     NKDIM =      1   number of bands    NBANDS=    256
   number of dos      NEDOS =    301   number of ions     NIONS =     60
   non local maximal  LDIM  =      6   non local SUM 2l+1 LMDIM =     18
   total plane-waves  NPLWV = 268800
   max r-space proj   IRMAX =   6921   max aug-charges    IRDMAX=  16788
   dimension x,y,z NGX =    42 NGY =   80 NGZ =   80
   dimension x,y,z NGXF=    84 NGYF=  160 NGZF=  160
   support grid    NGXF=    84 NGYF=  160 NGZF=  160
   ions per type =              12  16  32
   NGX,Y,Z   is equivalent  to a cutoff of  12.49, 13.24, 13.28 a.u.
   NGXF,Y,Z  is equivalent  to a cutoff of  24.97, 26.47, 26.56 a.u.

 SYSTEM =  unknown system                          
 POSCAR =  ce13123_1                               

 Startparameter for this run:
   NWRITE =      1    write-flag & timer
   PREC   = accura    normal or accurate (medium, high low for compatibility)
   ISTART =      0    job   : 0-new  1-cont  2-samecut
   ICHARG =      2    charge: 1-file 2-atom 10-const
   ISPIN  =      2    spin polarized calculation?
   LNONCOLLINEAR =      F non collinear calculations
   LSORBIT =      F    spin-orbit coupling
   INIWAV =      1    electr: 0-lowe 1-rand  2-diag
   LASPH  =      F    aspherical Exc in radial PAW
   METAGGA=      F    non-selfconsistent MetaGGA calc.

 Electronic Relaxation 1
   ENCUT  =  500.0 eV  36.75 Ry    6.06 a.u.  10.19 18.32 18.26*2*pi/ulx,y,z
   ENINI  =  500.0     initial cutoff
   ENAUG  =  628.9 eV  augmentation charge cutoff
   NELM   =     80;   NELMIN=  2; NELMDL= -5     # of ELM steps 
   EDIFF  = 0.1E-04   stopping-criterion for ELM
   LREAL  =      T    real-space projection
   NLSPLINE    = F    spline interpolate recip. space projectors
   LCOMPAT=      F    compatible to vasp.4.4
   GGA_COMPAT  = T    GGA compatible to vasp.4.4-vasp.4.6
   LMAXPAW     = -100 max onsite density
   LMAXMIX     =    2 max onsite mixed and CHGCAR
   VOSKOWN=      1    Vosko Wilk Nusair interpolation
   ROPT   =   -0.00025  -0.00025  -0.00025
 Ionic relaxation
   EDIFFG = -.2E-01   stopping-criterion for IOM
   NSW    =     20    number of steps for IOM
   NBLOCK =      1;   KBLOCK =     20    inner block; outer block 
   IBRION =      1    ionic relax: 0-MD 1-quasi-New 2-CG
   NFREE  =      0    steps in history (QN), initial steepest desc. (CG)
   ISIF   =      3    stress and relaxation
   IWAVPR =     11    prediction:  0-non 1-charg 2-wave 3-comb
   ISYM   =      2    0-nonsym 1-usesym 2-fastsym
   LCORR  =      T    Harris-Foulkes like correction to forces

   POTIM  = 0.5000    time-step for ionic-motion
   TEIN   =    0.0    initial temperature
   TEBEG  =    0.0;   TEEND  =   0.0 temperature during run
   SMASS  =  -3.00    Nose mass-parameter (am)
   estimated Nose-frequenzy (Omega)   =  0.10E-29 period in steps =****** mass=  -0.715E-27a.u.
   SCALEE = 1.0000    scale energy and forces
   NPACO  =    256;   APACO  = 16.0  distance and # of slots for P.C.
   PSTRESS=    0.0 pullay stress

  Mass of Ions in am
   POMASS =   7.01 58.69 16.00
  Ionic Valenz
   ZVAL   =   3.00 10.00  6.00
  Atomic Wigner-Seitz radii
   RWIGS  =   1.23  1.15  0.73
  virtual crystal weights 
   VCA    =   1.00  1.00  1.00
   NELECT =     388.0000    total number of electrons
   NUPDOWN=      -1.0000    fix difference up-down

 DOS related values:
   EMIN   =  10.00;   EMAX   =-10.00  energy-range for DOS
   EFERMI =   0.00
   ISMEAR =     0;   SIGMA  =   0.05  broadening in eV -4-tet -1-fermi 0-gaus

 Electronic relaxation 2 (details)
   IALGO  =     38    algorithm
   LDIAG  =      T    sub-space diagonalisation (order eigenvalues)
   LSUBROT=      F    optimize rotation matrix (better conditioning)
   TURBO    =      0    0=normal 1=particle mesh
   IRESTART =      0    0=no restart 2=restart with 2 vectors
   NREBOOT  =      0    no. of reboots
   NMIN     =      0    reboot dimension
   EREF     =   0.00    reference energy to select bands
   IMIX   =      4    mixing-type and parameters
     AMIX     =   0.40;   BMIX     =  1.00
     AMIX_MAG =   1.60;   BMIX_MAG =  1.00
     AMIN     =   0.10
     WC   =   100.;   INIMIX=   1;  MIXPRE=   1;  MAXMIX= -45

 Intra band minimization:
   WEIMIN = 0.0010     energy-eigenvalue tresh-hold
   EBREAK =  0.98E-08  absolut break condition
   DEPER  =   0.30     relativ break condition  

   TIME   =   0.40     timestep for ELM

  volume/ion in A,a.u.               =       8.75        59.07
  Fermi-wavevector in a.u.,A,eV,Ry     =   1.479948  2.796696 29.800105  2.190246
  Thomas-Fermi vector in A             =   2.594043
 
 Write flags
   LWAVE        =      F    write WAVECAR
   LDOWNSAMPLE  =      F    k-point downsampling of WAVECAR
   LCHARG       =      T    write CHGCAR
   LVTOT        =      F    write LOCPOT, total local potential
   LVHAR        =      F    write LOCPOT, Hartree potential only
   LELF         =      F    write electronic localiz. function (ELF)
   LORBIT       =      0    0 simple, 1 ext, 2 COOP (PROOUT), +10 PAW based schemes


 Dipole corrections
   LMONO  =      F    monopole corrections only (constant potential shift)
   LDIPOL =      F    correct potential (dipole corrections)
   IDIPOL =      0    1-x, 2-y, 3-z, 4-all directions 
   EPSILON=  1.0000000 bulk dielectric constant

 Exchange correlation treatment:
   GGA     =    PS    GGA type
   LEXCH   =    14    internal setting for exchange type
   VOSKOWN=      1    Vosko Wilk Nusair interpolation
   LHFCALC =     F    Hartree Fock is set to
   LHFONE  =     F    Hartree Fock one center treatment
   AEXX    =    0.0000 exact exchange contribution

 Linear response parameters
   LEPSILON=     F    determine dielectric tensor
   LRPA    =     F    only Hartree local field effects (RPA)
   LNABLA  =     F    use nabla operator in PAW spheres
   LVEL    =     F    velocity operator in full k-point grid
   LINTERFAST=   F  fast interpolation
   KINTER  =     0    interpolate to denser k-point grid
   CSHIFT  =0.1000    complex shift for real part using Kramers Kronig
   OMEGAMAX=  -1.0    maximum frequency
   DEG_THRESHOLD= 0.2000000E-02 threshold for treating states as degnerate
   RTIME   =   -0.100 relaxation time in fs
  (WPLASMAI=    0.000 imaginary part of plasma frequency in eV, 0.658/RTIME)
   DFIELD  = 0.0000000 0.0000000 0.0000000 field for delta impulse in time
 
 Orbital magnetization related:
   ORBITALMAG=     F  switch on orbital magnetization
   LCHIMAG   =     F  perturbation theory with respect to B field
   DQ        =  0.001000  dq finite difference perturbation B field
   LLRAUG    =     F  two centre corrections for induced B field



--------------------------------------------------------------------------------------------------------


 quasi-Newton-method for relaxation of ions
 charge density and potential will be updated during run
 spin polarized calculation
 Variant of blocked Davidson
 Davidson routine will perform the subspace rotation
 perform sub-space diagonalisation
    after iterative eigenvector-optimisation
 modified Broyden-mixing scheme, WC =      100.0
 initial mixing is a Kerker type mixing with AMIX =  0.4000 and BMIX =      1.0000
 Hartree-type preconditioning will be used
 using additional bands           62
 real space projection scheme for non local part
 use partial core corrections
 calculate Harris-corrections to forces 
   (improved forces if not selfconsistent)
 use gradient corrections 
 use of overlap-Matrix (Vanderbilt PP)
 Gauss-broadening in eV      SIGMA  =   0.05


--------------------------------------------------------------------------------------------------------


  energy-cutoff  :      500.00
  volume of cell :      525.19
      direct lattice vectors                 reciprocal lattice vectors
     0.000000000  5.591615925  0.000000000     0.000000000  0.178839179  0.000000000
    -3.653478925  0.000000000  9.359489056    -0.000542395  0.000000000  0.106631715
    10.015345904  0.000000000  0.050944298     0.099648917  0.000000000  0.038897980

  length of vectors
     5.591615925 10.047285387 10.015475470     0.178839179  0.106633094  0.106971769


 
 k-points in units of 2pi/SCALE and weight: Automatic mesh                          
   0.00000000  0.00000000  0.00000000       1.000
 
 k-points in reciprocal lattice and weights: Automatic mesh                          
   0.00000000  0.00000000  0.00000000       1.000
 
 position of ions in fractional coordinates (direct lattice) 
   0.24958912  0.25000509  0.50074082
   0.24958912  0.74999491  0.49925918
   0.75041088  0.74999491  0.49925918
   0.75041088  0.25000509  0.50074082
   0.50000000  0.25002423  0.25123706
   0.50000000  0.74997577  0.74876294
   0.00000000  0.24883988  0.75002603
   0.00000000  0.75116012  0.24997397
   0.25009797  0.24989176  0.00095401
   0.25009797  0.75010824  0.99904599
   0.74990203  0.75010824  0.99904599
   0.74990203  0.24989176  0.00095401
   0.00000000  0.00000000  0.00000000
   0.25004626  0.00037991  0.25010652
   0.25004626  0.99962009  0.74989348
   0.74995374  0.99962009  0.74989348
   0.74995374  0.00037991  0.25010652
   0.50000000  0.00000000  0.00000000
   0.00000000  0.00000000  0.50000000
   0.50000000  0.00000000  0.50000000
   0.00000000  0.50000000  0.50000000
   0.24987909  0.49946518  0.74983533
   0.24987909  0.50053482  0.25016467
   0.75012091  0.50053482  0.25016467
   0.75012091  0.49946518  0.74983533
   0.50000000  0.50000000  0.50000000
   0.00000000  0.50000000  0.00000000
   0.50000000  0.50000000  0.00000000
   0.00000000  0.38794502  0.64394979
   0.00000000  0.61205498  0.35605021
   0.00000000  0.10315559  0.36962892
   0.00000000  0.89684441  0.63037108
   0.24975780  0.39511412  0.88978061
   0.24975780  0.60488588  0.11021939
   0.75024220  0.60488588  0.11021939
   0.75024220  0.39511412  0.88978061
   0.25154425  0.10565287  0.11016051
   0.25154425  0.89434713  0.88983949
   0.74845575  0.89434713  0.88983949
   0.74845575  0.10565287  0.11016051
   0.50000000  0.39640809  0.62699491
   0.50000000  0.60359191  0.37300509
   0.50000000  0.10962161  0.36259162
   0.50000000  0.89037839  0.63740838
   0.00000000  0.39731615  0.12747014
   0.00000000  0.60268385  0.87252986
   0.00000000  0.10854755  0.86277314
   0.00000000  0.89145245  0.13722686
   0.25024132  0.39566741  0.38898555
   0.25024132  0.60433259  0.61101445
   0.74975868  0.60433259  0.61101445
   0.74975868  0.39566741  0.38898555
   0.24865406  0.10514052  0.61051399
   0.24865406  0.89485948  0.38948601
   0.75134594  0.89485948  0.38948601
   0.75134594  0.10514052  0.61051399
   0.50000000  0.38947127  0.14337286
   0.50000000  0.61052873  0.85662714
   0.50000000  0.10223744  0.86935921
   0.50000000  0.89776256  0.13064079
 
 position of ions in cartesian coordinates  (Angst):
   4.10170419  1.39560650  2.36542979
   2.26016279  1.39560650  7.04500356
   2.26016279  4.19600943  7.04500356
   4.10170419  4.19600943  2.36542979
   1.60276780  2.79580796  2.35289814
   4.75909917  2.79580796  7.05753521
   6.60263887  0.00000000  2.36722368
  -0.24077189  0.00000000  7.04320967
  -0.90341954  1.39845179  2.33890779
   7.26528652  1.39845179  7.07152556
   7.26528652  4.19316413  7.07152556
  -0.90341954  4.19316413  2.33890779
   0.00000000  0.00000000  0.00000000
   2.50351532  1.39816265  0.01629726
   3.85835166  1.39816265  9.39413609
   3.85835166  4.19345328  9.39413609
   2.50351532  4.19345328  0.01629726
   0.00000000  2.79580796  0.00000000
   5.00767295  0.00000000  0.02547215
   5.00767295  2.79580796  0.02547215
   3.18093349  0.00000000  4.70521668
   5.68507469  1.39722790  4.71293872
   0.67679229  1.39722790  4.69749463
   0.67679229  4.19438803  4.69749463
   5.68507469  4.19438803  4.71293872
   3.18093349  2.79580796  4.70521668
  -1.82673946  0.00000000  4.67974453
  -1.82673946  2.79580796  4.67974453
   5.03203094  0.00000000  3.66377274
   1.32983604  0.00000000  5.74666061
   3.32508472  0.00000000  0.98431410
   3.03678226  0.00000000  8.42611925
   7.46791948  1.39654969  3.74339553
  -1.10605250  1.39654969  5.66703782
  -1.10605250  4.19506623  5.66703782
   7.46791948  4.19506623  3.74339553
   0.71729508  1.40653883  0.99446893
   5.64457190  1.40653883  8.41596442
   5.64457190  4.18507709  8.41596442
   0.71729508  4.18507709  0.99446893
   4.83130230  2.79580796  3.74211900
   1.53056468  2.79580796  5.66831436
   3.23098025  2.79580796  1.04447423
   3.13088672  2.79580796  8.36595912
  -0.17492864  0.00000000  3.72517003
   6.53679562  0.00000000  5.68526332
   8.24439525  0.00000000  1.05990298
  -1.88252827  0.00000000  8.35053038
   2.45026229  1.39925335  3.72306139
   3.91160469  1.39925335  5.68737196
   3.91160469  4.19236257  5.68737196
   2.45026229  4.19236257  3.72306139
   5.73038012  1.39037800  1.01516375
   0.63148686  1.39037800  8.39526960
   0.63148686  4.20123792  8.39526960
   5.73038012  4.20123792  1.01516375
   0.01300371  2.79580796  3.65255612
   6.34886327  2.79580796  5.75787724
   8.33341087  2.79580796  1.00117910
  -1.97154389  2.79580796  8.40925426
 


--------------------------------------------------------------------------------------------------------


 use serial FFT for orbitals x direction half grid
 k-point  1 :   0.0000 0.0000 0.0000  plane waves:    6658

 maximum and minimum number of plane-waves per node :      6658     6658

 maximum number of plane-waves:      6658
 maximum index in each direction: 
   IXMAX=   10   IYMAX=   18   IZMAX=   18
   IXMIN=    0   IYMIN=  -18   IZMIN=  -18

 The following grids will avoid any aliasing or wrap around errors in the Hartre
 e energy
  - symmetry arguments have not been applied
  - exchange correlation energies might require even more grid points
  - we recommend to set PREC=Normal or Accurate and rely on VASP defaults
 NGX is ok and might be reduce to    42
 NGY is ok and might be reduce to    80
 NGZ is ok and might be reduce to    80

 serial   3D FFT for wavefunctions
 parallel 3D FFT for charge:
    minimum data exchange during FFTs selected (reduces bandwidth)


 total amount of memory used by VASP MPI-rank0   100460. kBytes
=======================================================================

   base      :      30000. kBytes
   nonlr-proj:      24541. kBytes
   fftplans  :       6149. kBytes
   grid      :      35266. kBytes
   one-center:        933. kBytes
   wavefun   :       3571. kBytes
 
     INWAV:  cpu time    0.0000: real time    0.0000
 Broyden mixing: mesh for mixing (old mesh)
   NGX = 21   NGY = 37   NGZ = 37
  (NGX  = 84   NGY  =160   NGZ  =160)
  gives a total of  28749 points

 initial charge density was supplied:
 charge density of overlapping atoms calculated
 number of electron     388.0000000 magnetization      40.0000000
 keeping initial charge density in first step


--------------------------------------------------------------------------------------------------------


 Maximum index for non-local projection operator         6675
 Maximum index for augmentation-charges         1584 (set IRDMAX)


--------------------------------------------------------------------------------------------------------


 First call to EWALD:  gamma=   0.220
 Maximum number of real-space cells 4x 2x 2
 Maximum number of reciprocal cells 2x 3x 3

    FEWALD:  cpu time    0.0038: real time    0.0039


--------------------------------------- Iteration      1(   1)  ---------------------------------------


    POTLOK:  cpu time    0.1559: real time    0.1586
    SETDIJ:  cpu time    0.0181: real time    0.0182
     EDDAV:  cpu time    1.4604: real time    1.4804
    --------------------------------------------
      LOOP:  cpu time    1.6349: real time    1.6576

 eigenvalue-minimisations  :  1056
 total energy-change (2. order) : 0.6807524E+04  (-0.1724655E+05)
 number of electron     388.0000000 magnetization      40.0000000
 augmentation part      388.0000000 magnetization      40.0000000

 Free energy of the ion-electron system (eV)
  ---------------------------------------------------
  alpha Z        PSCENC =      1218.36584638
  Ewald energy   TEWEN  =    -23749.84682876
  -Hartree energ DENC   =    -10432.52313695
  -exchange      EXHF   =         0.00000000
  -V(xc)+E(xc)   XCENC  =      1583.25760200
  PAW double counting   =     27420.82707004   -28719.22785117
  entropy T*S    EENTRO =        -0.00992142
  eigenvalues    EBANDS =      6060.80049525
  atomic energy  EATOM  =     33425.88044021
  Solvation  Ediel_sol  =         0.00000000
  ---------------------------------------------------
  free energy    TOTEN  =      6807.52371560 eV

  energy without entropy =     6807.53363702  energy(sigma->0) =     6807.52867631


--------------------------------------------------------------------------------------------------------




--------------------------------------- Iteration      1(   2)  ---------------------------------------


     EDDAV:  cpu time    1.4499: real time    1.4534
    --------------------------------------------
      LOOP:  cpu time    1.4498: real time    1.4532

 eigenvalue-minimisations  :  1056
 total energy-change (2. order) :-0.5454902E+04  (-0.4923369E+04)
 number of electron     388.0000000 magnetization      40.0000000
 augmentation part      388.0000000 magnetization      40.0000000

 Free energy of the ion-electron system (eV)
  ---------------------------------------------------
  alpha Z        PSCENC =      1218.36584638
  Ewald energy   TEWEN  =    -23749.84682876
  -Hartree energ DENC   =    -10432.52313695
  -exchange      EXHF   =         0.00000000
  -V(xc)+E(xc)   XCENC  =      1583.25760200
  PAW double counting   =     27420.82707004   -28719.22785117
  entropy T*S    EENTRO =        -0.00113611
  eigenvalues    EBANDS =       605.89007325
  atomic energy  EATOM  =     33425.88044021
  Solvation  Ediel_sol  =         0.00000000
  ---------------------------------------------------
  free energy    TOTEN  =      1352.62207891 eV

  energy without entropy =     1352.62321502  energy(sigma->0) =     1352.62264696


--------------------------------------------------------------------------------------------------------




--------------------------------------- Iteration      1(   3)  ---------------------------------------


     EDDAV:  cpu time    1.5699: real time    1.5736
    --------------------------------------------
      LOOP:  cpu time    1.5699: real time    1.5737

 eigenvalue-minimisations  :  1184
 total energy-change (2. order) :-0.1555316E+04  (-0.1279490E+04)
 number of electron     388.0000000 magnetization      40.0000000
 augmentation part      388.0000000 magnetization      40.0000000

 Free energy of the ion-electron system (eV)
  ---------------------------------------------------
  alpha Z        PSCENC =      1218.36584638
  Ewald energy   TEWEN  =    -23749.84682876
  -Hartree energ DENC   =    -10432.52313695
  -exchange      EXHF   =         0.00000000
  -V(xc)+E(xc)   XCENC  =      1583.25760200
  PAW double counting   =     27420.82707004   -28719.22785117
  entropy T*S    EENTRO =        -0.08230533
  eigenvalues    EBANDS =      -949.34461833
  atomic energy  EATOM  =     33425.88044021
  Solvation  Ediel_sol  =         0.00000000
  ---------------------------------------------------
  free energy    TOTEN  =      -202.69378189 eV

  energy without entropy =     -202.61147656  energy(sigma->0) =     -202.65262923


--------------------------------------------------------------------------------------------------------




--------------------------------------- Iteration      1(   4)  ---------------------------------------


     EDDAV:  cpu time    1.6595: real time    1.6635
    --------------------------------------------
      LOOP:  cpu time    1.6595: real time    1.6635

 eigenvalue-minimisations  :  1280
 total energy-change (2. order) :-0.2568001E+03  (-0.2487591E+03)
 number of electron     388.0000000 magnetization      40.0000000
 augmentation part      388.0000000 magnetization      40.0000000

 Free energy of the ion-electron system (eV)
  ---------------------------------------------------
  alpha Z        PSCENC =      1218.36584638
  Ewald energy   TEWEN  =    -23749.84682876
  -Hartree energ DENC   =    -10432.52313695
  -exchange      EXHF   =         0.00000000
  -V(xc)+E(xc)   XCENC  =      1583.25760200
  PAW double counting   =     27420.82707004   -28719.22785117
  entropy T*S    EENTRO =        -0.13335449
  eigenvalues    EBANDS =     -1206.09364985
  atomic energy  EATOM  =     33425.88044021
  Solvation  Ediel_sol  =         0.00000000
  ---------------------------------------------------
  free energy    TOTEN  =      -459.49386257 eV

  energy without entropy =     -459.36050809  energy(sigma->0) =     -459.42718533


--------------------------------------------------------------------------------------------------------




--------------------------------------- Iteration      1(   5)  ---------------------------------------


     EDDAV:  cpu time    2.0542: real time    2.0591
    CHARGE:  cpu time    0.1147: real time    0.1150
    MIXING:  cpu time    0.0026: real time    0.0026
    --------------------------------------------
      LOOP:  cpu time    2.1714: real time    2.1765

 eigenvalue-minimisations  :  1712
 total energy-change (2. order) :-0.1346952E+02  (-0.1334491E+02)
 number of electron     387.9999698 magnetization      42.4035101
 augmentation part      117.4970565 magnetization      31.5867743

 Broyden mixing:
  rms(total) = 0.11193E+02    rms(broyden)= 0.11192E+02
  rms(prec ) = 0.13696E+02
  weight for this iteration     100.00

 Free energy of the ion-electron system (eV)
  ---------------------------------------------------
  alpha Z        PSCENC =      1218.36584638
  Ewald energy   TEWEN  =    -23749.84682876
  -Hartree energ DENC   =    -10432.52313695
  -exchange      EXHF   =         0.00000000
  -V(xc)+E(xc)   XCENC  =      1583.25760200
  PAW double counting   =     27420.82707004   -28719.22785117
  entropy T*S    EENTRO =        -0.13546733
  eigenvalues    EBANDS =     -1219.56105803
  atomic energy  EATOM  =     33425.88044021
  Solvation  Ediel_sol  =         0.00000000
  ---------------------------------------------------
  free energy    TOTEN  =      -472.96338359 eV

  energy without entropy =     -472.82791626  energy(sigma->0) =     -472.89564993


--------------------------------------------------------------------------------------------------------




--------------------------------------- Iteration      1(   6)  ---------------------------------------


    POTLOK:  cpu time    0.1227: real time    0.1230
    SETDIJ:  cpu time    0.0173: real time    0.0173
     EDDAV:  cpu time    1.7640: real time    1.7682
    CHARGE:  cpu time    0.1144: real time    0.1147
    MIXING:  cpu time    0.0026: real time    0.0026
    --------------------------------------------
      LOOP:  cpu time    2.0210: real time    2.0258

 eigenvalue-minimisations  :  1408
 total energy-change (2. order) :-0.1594487E+02  (-0.1157684E+03)
 number of electron     387.9999698 magnetization      36.3523345
 augmentation part      145.2820128 magnetization      33.4633788

 Broyden mixing:
  rms(total) = 0.18042E+02    rms(broyden)= 0.18041E+02
  rms(prec ) = 0.19740E+02
  weight for this iteration     100.00

 eigenvalues of (default mixing * dielectric matrix)
  average eigenvalue GAMMA=   0.2618
  0.2618

 Free energy of the ion-electron system (eV)
  ---------------------------------------------------
  alpha Z        PSCENC =      1218.36584638
  Ewald energy   TEWEN  =    -23749.84682876
  -Hartree energ DENC   =     -9967.27287615
  -exchange      EXHF   =         0.00000000
  -V(xc)+E(xc)   XCENC  =      1597.36937305
  PAW double counting   =     30144.56153154   -31279.22321862
  entropy T*S    EENTRO =        -0.04986813
  eigenvalues    EBANDS =     -1878.69265561
  atomic energy  EATOM  =     33425.88044021
  Solvation  Ediel_sol  =         0.00000000
  ---------------------------------------------------
  free energy    TOTEN  =      -488.90825607 eV

  energy without entropy =     -488.85838794  energy(sigma->0) =     -488.88332201


--------------------------------------------------------------------------------------------------------




--------------------------------------- Iteration      1(   7)  ---------------------------------------


    POTLOK:  cpu time    0.1226: real time    0.1229
    SETDIJ:  cpu time    0.0177: real time    0.0177
     EDDAV:  cpu time    1.7200: real time    1.7241
    CHARGE:  cpu time    0.1119: real time    0.1122
    MIXING:  cpu time    0.0028: real time    0.0028
    --------------------------------------------
      LOOP:  cpu time    1.9750: real time    1.9797

 eigenvalue-minimisations  :  1376
 total energy-change (2. order) : 0.1183590E+03  (-0.2789185E+02)
 number of electron     387.9999685 magnetization      26.1977889
 augmentation part      133.7951462 magnetization      23.8349044

 Broyden mixing:
  rms(total) = 0.55750E+01    rms(broyden)= 0.55747E+01
  rms(prec ) = 0.63161E+01
  weight for this iteration     100.00

 eigenvalues of (default mixing * dielectric matrix)
  average eigenvalue GAMMA=   0.5885
  0.5885  0.5885

 Free energy of the ion-electron system (eV)
  ---------------------------------------------------
  alpha Z        PSCENC =      1218.36584638
  Ewald energy   TEWEN  =    -23749.84682876
  -Hartree energ DENC   =    -10153.22713840
  -exchange      EXHF   =         0.00000000
  -V(xc)+E(xc)   XCENC  =      1583.52428902
  PAW double counting   =     31433.99756237   -32692.90329751
  entropy T*S    EENTRO =        -0.01896779
  eigenvalues    EBANDS =     -1436.32117736
  atomic energy  EATOM  =     33425.88044021
  Solvation  Ediel_sol  =         0.00000000
  ---------------------------------------------------
  free energy    TOTEN  =      -370.54927183 eV

  energy without entropy =     -370.53030404  energy(sigma->0) =     -370.53978793


--------------------------------------------------------------------------------------------------------




--------------------------------------- Iteration      1(   8)  ---------------------------------------


    POTLOK:  cpu time    0.1216: real time    0.1219
    SETDIJ:  cpu time    0.0181: real time    0.0182
     EDDAV:  cpu time    1.7976: real time    1.8019
    CHARGE:  cpu time    0.1115: real time    0.1118
    MIXING:  cpu time    0.0028: real time    0.0028
    --------------------------------------------
      LOOP:  cpu time    2.0516: real time    2.0564

 eigenvalue-minimisations  :  1456
 total energy-change (2. order) :-0.6706253E+01  (-0.9606389E+01)
 number of electron     387.9999677 magnetization      24.2576858
 augmentation part      126.4386736 magnetization      20.7324862

 Broyden mixing:
  rms(total) = 0.87204E+01    rms(broyden)= 0.87201E+01
  rms(prec ) = 0.11853E+02
  weight for this iteration     100.00

 eigenvalues of (default mixing * dielectric matrix)
  average eigenvalue GAMMA=   0.4920
  0.6401  0.6401  0.1958

 Free energy of the ion-electron system (eV)
  ---------------------------------------------------
  alpha Z        PSCENC =      1218.36584638
  Ewald energy   TEWEN  =    -23749.84682876
  -Hartree energ DENC   =    -10162.90730591
  -exchange      EXHF   =         0.00000000
  -V(xc)+E(xc)   XCENC  =      1574.59037145
  PAW double counting   =     32752.66110303   -34068.78843364
  entropy T*S    EENTRO =        -0.05217726
  eigenvalues    EBANDS =     -1367.15854033
  atomic energy  EATOM  =     33425.88044021
  Solvation  Ediel_sol  =         0.00000000
  ---------------------------------------------------
  free energy    TOTEN  =      -377.25552482 eV

  energy without entropy =     -377.20334756  energy(sigma->0) =     -377.22943619


--------------------------------------------------------------------------------------------------------




--------------------------------------- Iteration      1(   9)  ---------------------------------------


    POTLOK:  cpu time    0.1238: real time    0.1241
    SETDIJ:  cpu time    0.0176: real time    0.0177
     EDDAV:  cpu time    1.7533: real time    1.7575
    CHARGE:  cpu time    0.1118: real time    0.1121
    MIXING:  cpu time    0.0029: real time    0.0029
    --------------------------------------------
      LOOP:  cpu time    2.0094: real time    2.0142

 eigenvalue-minimisations  :  1408
 total energy-change (2. order) : 0.1071144E+02  (-0.2067687E+02)
 number of electron     387.9999664 magnetization      16.6965475
 augmentation part      128.1512885 magnetization      14.8128635

 Broyden mixing:
  rms(total) = 0.36206E+01    rms(broyden)= 0.36199E+01
  rms(prec ) = 0.45323E+01
  weight for this iteration     100.00

 eigenvalues of (default mixing * dielectric matrix)
  average eigenvalue GAMMA=   0.5543
  0.9447  0.7271  0.4431  0.1021

 Free energy of the ion-electron system (eV)
  ---------------------------------------------------
  alpha Z        PSCENC =      1218.36584638
  Ewald energy   TEWEN  =    -23749.84682876
  -Hartree energ DENC   =    -10151.91208957
  -exchange      EXHF   =         0.00000000
  -V(xc)+E(xc)   XCENC  =      1573.43685526
  PAW double counting   =     33051.60250703   -34373.04247449
  entropy T*S    EENTRO =        -0.02986754
  eigenvalues    EBANDS =     -1360.99846894
  atomic energy  EATOM  =     33425.88044021
  Solvation  Ediel_sol  =         0.00000000
  ---------------------------------------------------
  free energy    TOTEN  =      -366.54408042 eV

  energy without entropy =     -366.51421288  energy(sigma->0) =     -366.52914665


--------------------------------------------------------------------------------------------------------




--------------------------------------- Iteration      1(  10)  ---------------------------------------


    POTLOK:  cpu time    0.1218: real time    0.1221
    SETDIJ:  cpu time    0.0175: real time    0.0175
     EDDAV:  cpu time    1.6806: real time    1.6846
    CHARGE:  cpu time    0.1133: real time    0.1136
    MIXING:  cpu time    0.0031: real time    0.0031
    --------------------------------------------
      LOOP:  cpu time    1.9363: real time    1.9409

 eigenvalue-minimisations  :  1328
 total energy-change (2. order) :-0.4580998E+00  (-0.3350956E+01)
 number of electron     387.9999669 magnetization      10.7640283
 augmentation part      129.8908628 magnetization       8.2761346

 Broyden mixing:
  rms(total) = 0.37117E+01    rms(broyden)= 0.37111E+01
  rms(prec ) = 0.46542E+01
  weight for this iteration     100.00

 eigenvalues of (default mixing * dielectric matrix)
  average eigenvalue GAMMA=   0.5758
  1.4586  0.5414  0.5414  0.2335  0.1040

 Free energy of the ion-electron system (eV)
  ---------------------------------------------------
  alpha Z        PSCENC =      1218.36584638
  Ewald energy   TEWEN  =    -23749.84682876
  -Hartree energ DENC   =    -10114.77962076
  -exchange      EXHF   =         0.00000000
  -V(xc)+E(xc)   XCENC  =      1571.37875765
  PAW double counting   =     34077.97982466   -35407.27757898
  entropy T*S    EENTRO =        -0.03866428
  eigenvalues    EBANDS =     -1388.66435631
  atomic energy  EATOM  =     33425.88044021
  Solvation  Ediel_sol  =         0.00000000
  ---------------------------------------------------
  free energy    TOTEN  =      -367.00218017 eV

  energy without entropy =     -366.96351589  energy(sigma->0) =     -366.98284803


--------------------------------------------------------------------------------------------------------




--------------------------------------- Iteration      1(  11)  ---------------------------------------


    POTLOK:  cpu time    0.1216: real time    0.1219
    SETDIJ:  cpu time    0.0179: real time    0.0179
     EDDAV:  cpu time    1.6787: real time    1.6827
    CHARGE:  cpu time    0.1148: real time    0.1151
    MIXING:  cpu time    0.0032: real time    0.0032
    --------------------------------------------
      LOOP:  cpu time    1.9361: real time    1.9407

 eigenvalue-minimisations  :  1344
 total energy-change (2. order) : 0.1610159E+01  (-0.3468627E+01)
 number of electron     387.9999667 magnetization       8.1282043
 augmentation part      130.1736670 magnetization       6.1583020

 Broyden mixing:
  rms(total) = 0.21517E+01    rms(broyden)= 0.21508E+01
  rms(prec ) = 0.30525E+01
  weight for this iteration     100.00

 eigenvalues of (default mixing * dielectric matrix)
  average eigenvalue GAMMA=   0.5897
  1.7325  0.5430  0.4900  0.4900  0.1055  0.1770

 Free energy of the ion-electron system (eV)
  ---------------------------------------------------
  alpha Z        PSCENC =      1218.36584638
  Ewald energy   TEWEN  =    -23749.84682876
  -Hartree energ DENC   =    -10111.90688903
  -exchange      EXHF   =         0.00000000
  -V(xc)+E(xc)   XCENC  =      1570.88341863
  PAW double counting   =     34967.05970855   -36309.60933564
  entropy T*S    EENTRO =        -0.07254046
  eigenvalues    EBANDS =     -1376.14584087
  atomic energy  EATOM  =     33425.88044021
  Solvation  Ediel_sol  =         0.00000000
  ---------------------------------------------------
  free energy    TOTEN  =      -365.39202098 eV

  energy without entropy =     -365.31948052  energy(sigma->0) =     -365.35575075


--------------------------------------------------------------------------------------------------------




--------------------------------------- Iteration      1(  12)  ---------------------------------------


    POTLOK:  cpu time    0.1217: real time    0.1220
    SETDIJ:  cpu time    0.0176: real time    0.0177
     EDDAV:  cpu time    1.5746: real time    1.5784
    CHARGE:  cpu time    0.1133: real time    0.1135
    MIXING:  cpu time    0.0033: real time    0.0033
    --------------------------------------------
      LOOP:  cpu time    1.8305: real time    1.8349

 eigenvalue-minimisations  :  1232
 total energy-change (2. order) : 0.2725717E+00  (-0.1867625E+01)
 number of electron     387.9999666 magnetization       7.2997152
 augmentation part      129.3515613 magnetization       5.5443147

 Broyden mixing:
  rms(total) = 0.22180E+01    rms(broyden)= 0.22170E+01
  rms(prec ) = 0.31425E+01
  weight for this iteration     100.00

 eigenvalues of (default mixing * dielectric matrix)
  average eigenvalue GAMMA=   0.5500
  1.7865  0.5307  0.4931  0.4931  0.3119  0.1047  0.1301

 Free energy of the ion-electron system (eV)
  ---------------------------------------------------
  alpha Z        PSCENC =      1218.36584638
  Ewald energy   TEWEN  =    -23749.84682876
  -Hartree energ DENC   =    -10128.21547759
  -exchange      EXHF   =         0.00000000
  -V(xc)+E(xc)   XCENC  =      1571.17620809
  PAW double counting   =     35365.15903689   -36718.44152828
  entropy T*S    EENTRO =        -0.04378462
  eigenvalues    EBANDS =     -1349.15336164
  atomic energy  EATOM  =     33425.88044021
  Solvation  Ediel_sol  =         0.00000000
  ---------------------------------------------------
  free energy    TOTEN  =      -365.11944932 eV

  energy without entropy =     -365.07566470  energy(sigma->0) =     -365.09755701


--------------------------------------------------------------------------------------------------------




--------------------------------------- Iteration      1(  13)  ---------------------------------------


    POTLOK:  cpu time    0.1221: real time    0.1224
    SETDIJ:  cpu time    0.0175: real time    0.0176
     EDDAV:  cpu time    1.6943: real time    1.6983
    CHARGE:  cpu time    0.1131: real time    0.1134
    MIXING:  cpu time    0.0036: real time    0.0036
    --------------------------------------------
      LOOP:  cpu time    1.9507: real time    1.9553

 eigenvalue-minimisations  :  1360
 total energy-change (2. order) : 0.1686190E+00  (-0.1969934E+01)
 number of electron     387.9999662 magnetization       6.1902858
 augmentation part      129.2568964 magnetization       5.2932779

 Broyden mixing:
  rms(total) = 0.17866E+01    rms(broyden)= 0.17857E+01
  rms(prec ) = 0.23142E+01
  weight for this iteration     100.00

 eigenvalues of (default mixing * dielectric matrix)
  average eigenvalue GAMMA=   0.5391
  1.8955  0.5008  0.5008  0.5231  0.5231  0.1585  0.1054  0.1054

 Free energy of the ion-electron system (eV)
  ---------------------------------------------------
  alpha Z        PSCENC =      1218.36584638
  Ewald energy   TEWEN  =    -23749.84682876
  -Hartree energ DENC   =    -10131.79243862
  -exchange      EXHF   =         0.00000000
  -V(xc)+E(xc)   XCENC  =      1571.27170130
  PAW double counting   =     35467.73007625   -36822.79557236
  entropy T*S    EENTRO =        -0.02658968
  eigenvalues    EBANDS =     -1343.73746505
  atomic energy  EATOM  =     33425.88044021
  Solvation  Ediel_sol  =         0.00000000
  ---------------------------------------------------
  free energy    TOTEN  =      -364.95083032 eV

  energy without entropy =     -364.92424064  energy(sigma->0) =     -364.93753548


--------------------------------------------------------------------------------------------------------




--------------------------------------- Iteration      1(  14)  ---------------------------------------


    POTLOK:  cpu time    0.1224: real time    0.1227
    SETDIJ:  cpu time    0.0179: real time    0.0179
     EDDAV:  cpu time    1.8012: real time    1.8055
    CHARGE:  cpu time    0.1138: real time    0.1141
    MIXING:  cpu time    0.0036: real time    0.0036
    --------------------------------------------
      LOOP:  cpu time    2.0589: real time    2.0638

 eigenvalue-minimisations  :  1456
 total energy-change (2. order) : 0.7760741E+00  (-0.6719923E+00)
 number of electron     387.9999664 magnetization       5.1828629
 augmentation part      129.2213474 magnetization       3.0053091

 Broyden mixing:
  rms(total) = 0.13325E+01    rms(broyden)= 0.13320E+01
  rms(prec ) = 0.16115E+01
  weight for this iteration     100.00

 eigenvalues of (default mixing * dielectric matrix)
  average eigenvalue GAMMA=   0.5437
  2.0398  0.6768  0.6768  0.4738  0.4738  0.2016  0.1335  0.1047  0.1125

 Free energy of the ion-electron system (eV)
  ---------------------------------------------------
  alpha Z        PSCENC =      1218.36584638
  Ewald energy   TEWEN  =    -23749.84682876
  -Hartree energ DENC   =    -10134.60414771
  -exchange      EXHF   =         0.00000000
  -V(xc)+E(xc)   XCENC  =      1571.32991792
  PAW double counting   =     35589.56061012   -36945.75573120
  entropy T*S    EENTRO =        -0.05542841
  eigenvalues    EBANDS =     -1339.04943478
  atomic energy  EATOM  =     33425.88044021
  Solvation  Ediel_sol  =         0.00000000
  ---------------------------------------------------
  free energy    TOTEN  =      -364.17475621 eV

  energy without entropy =     -364.11932780  energy(sigma->0) =     -364.14704201


--------------------------------------------------------------------------------------------------------




--------------------------------------- Iteration      1(  15)  ---------------------------------------


    POTLOK:  cpu time    0.1216: real time    0.1219
    SETDIJ:  cpu time    0.0184: real time    0.0184
     EDDAV:  cpu time    1.6919: real time    1.6959
    CHARGE:  cpu time    0.1132: real time    0.1135
    MIXING:  cpu time    0.0037: real time    0.0037
    --------------------------------------------
      LOOP:  cpu time    1.9487: real time    1.9533

 eigenvalue-minimisations  :  1360
 total energy-change (2. order) : 0.1380201E+00  (-0.1941262E+00)
 number of electron     387.9999664 magnetization       5.3355375
 augmentation part      129.0790959 magnetization       3.3750021

 Broyden mixing:
  rms(total) = 0.94311E+00    rms(broyden)= 0.94277E+00
  rms(prec ) = 0.11918E+01
  weight for this iteration     100.00

 eigenvalues of (default mixing * dielectric matrix)
  average eigenvalue GAMMA=   0.5310
  2.0018  0.7495  0.7495  0.4799  0.4799  0.2940  0.2056  0.1384  0.1055  0.1055

 Free energy of the ion-electron system (eV)
  ---------------------------------------------------
  alpha Z        PSCENC =      1218.36584638
  Ewald energy   TEWEN  =    -23749.84682876
  -Hartree energ DENC   =    -10138.95713746
  -exchange      EXHF   =         0.00000000
  -V(xc)+E(xc)   XCENC  =      1571.41890241
  PAW double counting   =     35768.19203472   -37126.59846582
  entropy T*S    EENTRO =        -0.07074647
  eigenvalues    EBANDS =     -1332.42078134
  atomic energy  EATOM  =     33425.88044021
  Solvation  Ediel_sol  =         0.00000000
  ---------------------------------------------------
  free energy    TOTEN  =      -364.03673612 eV

  energy without entropy =     -363.96598965  energy(sigma->0) =     -364.00136289


--------------------------------------------------------------------------------------------------------




--------------------------------------- Iteration      1(  16)  ---------------------------------------


    POTLOK:  cpu time    0.1225: real time    0.1228
    SETDIJ:  cpu time    0.0186: real time    0.0187
     EDDAV:  cpu time    1.6952: real time    1.6992
    CHARGE:  cpu time    0.1157: real time    0.1159
    MIXING:  cpu time    0.0041: real time    0.0041
    --------------------------------------------
      LOOP:  cpu time    1.9560: real time    1.9607

 eigenvalue-minimisations  :  1344
 total energy-change (2. order) :-0.9795092E-01  (-0.1286353E+00)
 number of electron     387.9999664 magnetization       5.8087828
 augmentation part      129.0077636 magnetization       3.7281420

 Broyden mixing:
  rms(total) = 0.94272E+00    rms(broyden)= 0.94226E+00
  rms(prec ) = 0.12285E+01
  weight for this iteration     100.00

 eigenvalues of (default mixing * dielectric matrix)
  average eigenvalue GAMMA=   0.5209
  1.9908  0.8365  0.8365  0.4948  0.4948  0.3885  0.2316  0.1433  0.1130  0.1052
  0.0953

 Free energy of the ion-electron system (eV)
  ---------------------------------------------------
  alpha Z        PSCENC =      1218.36584638
  Ewald energy   TEWEN  =    -23749.84682876
  -Hartree energ DENC   =    -10140.45311142
  -exchange      EXHF   =         0.00000000
  -V(xc)+E(xc)   XCENC  =      1571.48936007
  PAW double counting   =     35783.57219841   -37141.79195154
  entropy T*S    EENTRO =        -0.06552642
  eigenvalues    EBANDS =     -1331.28511397
  atomic energy  EATOM  =     33425.88044021
  Solvation  Ediel_sol  =         0.00000000
  ---------------------------------------------------
  free energy    TOTEN  =      -364.13468704 eV

  energy without entropy =     -364.06916062  energy(sigma->0) =     -364.10192383


--------------------------------------------------------------------------------------------------------




--------------------------------------- Iteration      1(  17)  ---------------------------------------


    POTLOK:  cpu time    0.1217: real time    0.1220
    SETDIJ:  cpu time    0.0174: real time    0.0174
     EDDAV:  cpu time    1.7094: real time    1.7135
    CHARGE:  cpu time    0.1142: real time    0.1144
    MIXING:  cpu time    0.0042: real time    0.0042
    --------------------------------------------
      LOOP:  cpu time    1.9669: real time    1.9715

 eigenvalue-minimisations  :  1360
 total energy-change (2. order) : 0.1018383E-01  (-0.5639765E-01)
 number of electron     387.9999664 magnetization       5.8933132
 augmentation part      128.9239085 magnetization       3.7403607

 Broyden mixing:
  rms(total) = 0.67558E+00    rms(broyden)= 0.67529E+00
  rms(prec ) = 0.81755E+00
  weight for this iteration     100.00

 eigenvalues of (default mixing * dielectric matrix)
  average eigenvalue GAMMA=   0.5515
  2.0671  1.0007  1.0007  0.5443  0.5443  0.4163  0.4163  0.1886  0.1334  0.1057
  0.1090  0.0919

 Free energy of the ion-electron system (eV)
  ---------------------------------------------------
  alpha Z        PSCENC =      1218.36584638
  Ewald energy   TEWEN  =    -23749.84682876
  -Hartree energ DENC   =    -10142.84417043
  -exchange      EXHF   =         0.00000000
  -V(xc)+E(xc)   XCENC  =      1571.64708860
  PAW double counting   =     35782.83061815   -37140.55004845
  entropy T*S    EENTRO =        -0.06997518
  eigenvalues    EBANDS =     -1329.53747375
  atomic energy  EATOM  =     33425.88044021
  Solvation  Ediel_sol  =         0.00000000
  ---------------------------------------------------
  free energy    TOTEN  =      -364.12450321 eV

  energy without entropy =     -364.05452803  energy(sigma->0) =     -364.08951562


--------------------------------------------------------------------------------------------------------




--------------------------------------- Iteration      1(  18)  ---------------------------------------


    POTLOK:  cpu time    0.1216: real time    0.1219
    SETDIJ:  cpu time    0.0176: real time    0.0176
     EDDAV:  cpu time    1.6697: real time    1.6736
    CHARGE:  cpu time    0.1211: real time    0.1214
    MIXING:  cpu time    0.0045: real time    0.0045
    --------------------------------------------
      LOOP:  cpu time    1.9344: real time    1.9390

 eigenvalue-minimisations  :  1328
 total energy-change (2. order) :-0.8780003E-01  (-0.1250157E+00)
 number of electron     387.9999666 magnetization       6.1472930
 augmentation part      128.9659699 magnetization       3.8317457

 Broyden mixing:
  rms(total) = 0.72161E+00    rms(broyden)= 0.72142E+00
  rms(prec ) = 0.89742E+00
  weight for this iteration     100.00

 eigenvalues of (default mixing * dielectric matrix)
  average eigenvalue GAMMA=   0.5400
  2.0845  1.0869  1.0869  0.5609  0.5609  0.4319  0.4319  0.1976  0.1366  0.1366
  0.1066  0.1097  0.0888

 Free energy of the ion-electron system (eV)
  ---------------------------------------------------
  alpha Z        PSCENC =      1218.36584638
  Ewald energy   TEWEN  =    -23749.84682876
  -Hartree energ DENC   =    -10143.24033593
  -exchange      EXHF   =         0.00000000
  -V(xc)+E(xc)   XCENC  =      1571.77615202
  PAW double counting   =     35850.43173860   -37207.86907734
  entropy T*S    EENTRO =        -0.06737222
  eigenvalues    EBANDS =     -1329.64286622
  atomic energy  EATOM  =     33425.88044021
  Solvation  Ediel_sol  =         0.00000000
  ---------------------------------------------------
  free energy    TOTEN  =      -364.21230324 eV

  energy without entropy =     -364.14493102  energy(sigma->0) =     -364.17861713


--------------------------------------------------------------------------------------------------------




--------------------------------------- Iteration      1(  19)  ---------------------------------------


    POTLOK:  cpu time    0.1213: real time    0.1216
    SETDIJ:  cpu time    0.0182: real time    0.0183
     EDDAV:  cpu time    1.7273: real time    1.7314
    CHARGE:  cpu time    0.1126: real time    0.1129
    MIXING:  cpu time    0.0045: real time    0.0045
    --------------------------------------------
      LOOP:  cpu time    1.9839: real time    1.9886

 eigenvalue-minimisations  :  1392
 total energy-change (2. order) : 0.4301958E-01  (-0.4686255E-01)
 number of electron     387.9999667 magnetization       6.1758038
 augmentation part      129.0088731 magnetization       3.7328205

 Broyden mixing:
  rms(total) = 0.55103E+00    rms(broyden)= 0.55092E+00
  rms(prec ) = 0.58891E+00
  weight for this iteration     100.00

 eigenvalues of (default mixing * dielectric matrix)
  average eigenvalue GAMMA=   0.5152
  2.0973  1.0776  1.0776  0.5586  0.5586  0.4378  0.4378  0.1827  0.1986  0.1483
  0.1329  0.1065  0.1088  0.0890

 Free energy of the ion-electron system (eV)
  ---------------------------------------------------
  alpha Z        PSCENC =      1218.36584638
  Ewald energy   TEWEN  =    -23749.84682876
  -Hartree energ DENC   =    -10143.67612557
  -exchange      EXHF   =         0.00000000
  -V(xc)+E(xc)   XCENC  =      1571.94552362
  PAW double counting   =     35914.82096000   -37271.86496693
  entropy T*S    EENTRO =        -0.03958374
  eigenvalues    EBANDS =     -1329.75454888
  atomic energy  EATOM  =     33425.88044021
  Solvation  Ediel_sol  =         0.00000000
  ---------------------------------------------------
  free energy    TOTEN  =      -364.16928366 eV

  energy without entropy =     -364.12969992  energy(sigma->0) =     -364.14949179


--------------------------------------------------------------------------------------------------------




--------------------------------------- Iteration      1(  20)  ---------------------------------------


    POTLOK:  cpu time    0.1215: real time    0.1218
    SETDIJ:  cpu time    0.0175: real time    0.0176
     EDDAV:  cpu time    1.7480: real time    1.7521
    CHARGE:  cpu time    0.1150: real time    0.1153
    MIXING:  cpu time    0.0049: real time    0.0049
    --------------------------------------------
      LOOP:  cpu time    2.0069: real time    2.0117

 eigenvalue-minimisations  :  1408
 total energy-change (2. order) :-0.2031817E-02  (-0.5089842E-02)
 number of electron     387.9999667 magnetization       6.2232502
 augmentation part      128.9967130 magnetization       3.7885323

 Broyden mixing:
  rms(total) = 0.57697E+00    rms(broyden)= 0.57696E+00
  rms(prec ) = 0.61227E+00
  weight for this iteration     100.00

 eigenvalues of (default mixing * dielectric matrix)
  average eigenvalue GAMMA=   0.5263
  1.9483  1.2143  1.2143  0.5971  0.5971  0.4683  0.4683  0.2916  0.3240  0.1918
  0.1468  0.1295  0.1068  0.1076  0.0888

 Free energy of the ion-electron system (eV)
  ---------------------------------------------------
  alpha Z        PSCENC =      1218.36584638
  Ewald energy   TEWEN  =    -23749.84682876
  -Hartree energ DENC   =    -10143.72118733
  -exchange      EXHF   =         0.00000000
  -V(xc)+E(xc)   XCENC  =      1571.95289220
  PAW double counting   =     35914.82848991   -37271.78929130
  entropy T*S    EENTRO =        -0.03348090
  eigenvalues    EBANDS =     -1329.80819589
  atomic energy  EATOM  =     33425.88044021
  Solvation  Ediel_sol  =         0.00000000
  ---------------------------------------------------
  free energy    TOTEN  =      -364.17131548 eV

  energy without entropy =     -364.13783458  energy(sigma->0) =     -364.15457503


--------------------------------------------------------------------------------------------------------




--------------------------------------- Iteration      1(  21)  ---------------------------------------


    POTLOK:  cpu time    0.1214: real time    0.1216
    SETDIJ:  cpu time    0.0182: real time    0.0182
     EDDAV:  cpu time    1.7179: real time    1.7220
    CHARGE:  cpu time    0.1139: real time    0.1142
    MIXING:  cpu time    0.0051: real time    0.0051
    --------------------------------------------
      LOOP:  cpu time    1.9764: real time    1.9811

 eigenvalue-minimisations  :  1376
 total energy-change (2. order) : 0.1388313E-01  (-0.1237754E-01)
 number of electron     387.9999667 magnetization       6.6032777
 augmentation part      128.9759467 magnetization       4.1108457

 Broyden mixing:
  rms(total) = 0.61519E+00    rms(broyden)= 0.61514E+00
  rms(prec ) = 0.69604E+00
  weight for this iteration     100.00

 eigenvalues of (default mixing * dielectric matrix)
  average eigenvalue GAMMA=   0.5286
  1.7884  1.3646  1.3646  0.4106  0.6092  0.6092  0.4720  0.4720  0.3478  0.2618
  0.1883  0.1395  0.1267  0.1071  0.1071  0.0885

 Free energy of the ion-electron system (eV)
  ---------------------------------------------------
  alpha Z        PSCENC =      1218.36584638
  Ewald energy   TEWEN  =    -23749.84682876
  -Hartree energ DENC   =    -10146.31652802
  -exchange      EXHF   =         0.00000000
  -V(xc)+E(xc)   XCENC  =      1572.03285988
  PAW double counting   =     35916.59073393   -37273.36887210
  entropy T*S    EENTRO =        -0.04280234
  eigenvalues    EBANDS =     -1327.45228154
  atomic energy  EATOM  =     33425.88044021
  Solvation  Ediel_sol  =         0.00000000
  ---------------------------------------------------
  free energy    TOTEN  =      -364.15743235 eV

  energy without entropy =     -364.11463001  energy(sigma->0) =     -364.13603118


--------------------------------------------------------------------------------------------------------




--------------------------------------- Iteration      1(  22)  ---------------------------------------


    POTLOK:  cpu time    0.1228: real time    0.1230
    SETDIJ:  cpu time    0.0176: real time    0.0177
     EDDAV:  cpu time    1.8030: real time    1.8073
    CHARGE:  cpu time    0.1205: real time    0.1208
    MIXING:  cpu time    0.0053: real time    0.0053
    --------------------------------------------
      LOOP:  cpu time    2.0692: real time    2.0741

 eigenvalue-minimisations  :  1456
 total energy-change (2. order) :-0.2269358E-01  (-0.6847559E-02)
 number of electron     387.9999667 magnetization       6.8557107
 augmentation part      128.9478528 magnetization       4.1453751

 Broyden mixing:
  rms(total) = 0.63278E+00    rms(broyden)= 0.63273E+00
  rms(prec ) = 0.72087E+00
  weight for this iteration     100.00

 eigenvalues of (default mixing * dielectric matrix)
  average eigenvalue GAMMA=   0.5219
  1.8380  1.4444  1.4444  0.4422  0.5753  0.5753  0.4544  0.4544  0.3565  0.3565
  0.1884  0.1660  0.1455  0.1282  0.1072  0.1072  0.0886

 Free energy of the ion-electron system (eV)
  ---------------------------------------------------
  alpha Z        PSCENC =      1218.36584638
  Ewald energy   TEWEN  =    -23749.84682876
  -Hartree energ DENC   =    -10147.65825948
  -exchange      EXHF   =         0.00000000
  -V(xc)+E(xc)   XCENC  =      1572.11047728
  PAW double counting   =     35897.02369064   -37253.38345728
  entropy T*S    EENTRO =        -0.05125221
  eigenvalues    EBANDS =     -1326.62078271
  atomic energy  EATOM  =     33425.88044021
  Solvation  Ediel_sol  =         0.00000000
  ---------------------------------------------------
  free energy    TOTEN  =      -364.18012593 eV

  energy without entropy =     -364.12887372  energy(sigma->0) =     -364.15449983


--------------------------------------------------------------------------------------------------------




--------------------------------------- Iteration      1(  23)  ---------------------------------------


    POTLOK:  cpu time    0.1225: real time    0.1228
    SETDIJ:  cpu time    0.0177: real time    0.0178
     EDDAV:  cpu time    1.5756: real time    1.5794
    CHARGE:  cpu time    0.1129: real time    0.1132
    MIXING:  cpu time    0.0052: real time    0.0052
    --------------------------------------------
      LOOP:  cpu time    1.8340: real time    1.8383

 eigenvalue-minimisations  :  1232
 total energy-change (2. order) :-0.1492480E-01  (-0.1128899E-01)
 number of electron     387.9999667 magnetization       6.9413173
 augmentation part      128.9486384 magnetization       4.0408176

 Broyden mixing:
  rms(total) = 0.62506E+00    rms(broyden)= 0.62503E+00
  rms(prec ) = 0.71206E+00
  weight for this iteration     100.00

 eigenvalues of (default mixing * dielectric matrix)
  average eigenvalue GAMMA=   0.4960
  1.8311  1.4540  1.4540  0.4494  0.5715  0.5715  0.4496  0.4496  0.3303  0.3303
  0.1854  0.1581  0.1581  0.1313  0.1091  0.1057  0.0883  0.1008

 Free energy of the ion-electron system (eV)
  ---------------------------------------------------
  alpha Z        PSCENC =      1218.36584638
  Ewald energy   TEWEN  =    -23749.84682876
  -Hartree energ DENC   =    -10147.71847367
  -exchange      EXHF   =         0.00000000
  -V(xc)+E(xc)   XCENC  =      1572.12536566
  PAW double counting   =     35907.18008284   -37263.44235638
  entropy T*S    EENTRO =        -0.03913255
  eigenvalues    EBANDS =     -1326.69999446
  atomic energy  EATOM  =     33425.88044021
  Solvation  Ediel_sol  =         0.00000000
  ---------------------------------------------------
  free energy    TOTEN  =      -364.19505073 eV

  energy without entropy =     -364.15591818  energy(sigma->0) =     -364.17548445


--------------------------------------------------------------------------------------------------------




--------------------------------------- Iteration      1(  24)  ---------------------------------------


    POTLOK:  cpu time    0.1215: real time    0.1218
    SETDIJ:  cpu time    0.0175: real time    0.0175
     EDDAV:  cpu time    1.7070: real time    1.7111
    CHARGE:  cpu time    0.1150: real time    0.1153
    MIXING:  cpu time    0.0054: real time    0.0054
    --------------------------------------------
      LOOP:  cpu time    1.9664: real time    1.9711

 eigenvalue-minimisations  :  1360
 total energy-change (2. order) :-0.8142084E-02  (-0.9634435E-03)
 number of electron     387.9999667 magnetization       6.7776750
 augmentation part      128.9523048 magnetization       3.7846793

 Broyden mixing:
  rms(total) = 0.63825E+00    rms(broyden)= 0.63824E+00
  rms(prec ) = 0.71767E+00
  weight for this iteration     100.00

 eigenvalues of (default mixing * dielectric matrix)
  average eigenvalue GAMMA=   0.4977
  1.8528  1.4480  1.4480  0.4441  0.5571  0.5571  0.4370  0.4370  0.4290  0.4290
  0.2314  0.2482  0.1954  0.1762  0.1370  0.1256  0.1071  0.1071  0.0886

 Free energy of the ion-electron system (eV)
  ---------------------------------------------------
  alpha Z        PSCENC =      1218.36584638
  Ewald energy   TEWEN  =    -23749.84682876
  -Hartree energ DENC   =    -10147.38352200
  -exchange      EXHF   =         0.00000000
  -V(xc)+E(xc)   XCENC  =      1572.12297615
  PAW double counting   =     35908.68354568   -37264.90222366
  entropy T*S    EENTRO =        -0.03067239
  eigenvalues    EBANDS =     -1327.09275443
  atomic energy  EATOM  =     33425.88044021
  Solvation  Ediel_sol  =         0.00000000
  ---------------------------------------------------
  free energy    TOTEN  =      -364.20319281 eV

  energy without entropy =     -364.17252042  energy(sigma->0) =     -364.18785662


--------------------------------------------------------------------------------------------------------




--------------------------------------- Iteration      1(  25)  ---------------------------------------


    POTLOK:  cpu time    0.1232: real time    0.1235
    SETDIJ:  cpu time    0.0180: real time    0.0180
     EDDAV:  cpu time    1.7762: real time    1.7804
    CHARGE:  cpu time    0.1134: real time    0.1137
    MIXING:  cpu time    0.0056: real time    0.0056
    --------------------------------------------
      LOOP:  cpu time    2.0364: real time    2.0412

 eigenvalue-minimisations  :  1424
 total energy-change (2. order) : 0.1112114E-01  (-0.7396561E-03)
 number of electron     387.9999667 magnetization       6.7660433
 augmentation part      128.9507970 magnetization       3.8025420

 Broyden mixing:
  rms(total) = 0.66639E+00    rms(broyden)= 0.66639E+00
  rms(prec ) = 0.75330E+00
  weight for this iteration     100.00

 eigenvalues of (default mixing * dielectric matrix)
  average eigenvalue GAMMA=   0.5182
  1.8444  1.4274  1.4274  0.5575  0.5575  0.4691  0.5656  0.5656  0.4975  0.4975
  0.4068  0.4068  0.2186  0.1888  0.1675  0.1376  0.1261  0.1071  0.1071  0.0886

 Free energy of the ion-electron system (eV)
  ---------------------------------------------------
  alpha Z        PSCENC =      1218.36584638
  Ewald energy   TEWEN  =    -23749.84682876
  -Hartree energ DENC   =    -10147.89359705
  -exchange      EXHF   =         0.00000000
  -V(xc)+E(xc)   XCENC  =      1572.11913798
  PAW double counting   =     35912.50959921   -37268.75437394
  entropy T*S    EENTRO =        -0.03478392
  eigenvalues    EBANDS =     -1326.53751179
  atomic energy  EATOM  =     33425.88044021
  Solvation  Ediel_sol  =         0.00000000
  ---------------------------------------------------
  free energy    TOTEN  =      -364.19207167 eV

  energy without entropy =     -364.15728775  energy(sigma->0) =     -364.17467971


--------------------------------------------------------------------------------------------------------




--------------------------------------- Iteration      1(  26)  ---------------------------------------


    POTLOK:  cpu time    0.1231: real time    0.1234
    SETDIJ:  cpu time    0.0177: real time    0.0177
     EDDAV:  cpu time    1.6431: real time    1.6470
    CHARGE:  cpu time    0.1146: real time    0.1148
    MIXING:  cpu time    0.0058: real time    0.0058
    --------------------------------------------
      LOOP:  cpu time    1.9042: real time    1.9087

 eigenvalue-minimisations  :  1296
 total energy-change (2. order) : 0.3898291E-03  (-0.1699730E-03)
 number of electron     387.9999667 magnetization       6.7640427
 augmentation part      128.9489772 magnetization       3.8054707

 Broyden mixing:
  rms(total) = 0.66374E+00    rms(broyden)= 0.66374E+00
  rms(prec ) = 0.75120E+00
  weight for this iteration     100.00

 eigenvalues of (default mixing * dielectric matrix)
  average eigenvalue GAMMA=   0.4994
  1.8393  1.4150  1.4150  0.5725  0.5725  0.4711  0.5612  0.5612  0.5084  0.5084
  0.4131  0.4131  0.2252  0.1898  0.1692  0.1374  0.1259  0.1071  0.1071  0.0886
  0.0871

 Free energy of the ion-electron system (eV)
  ---------------------------------------------------
  alpha Z        PSCENC =      1218.36584638
  Ewald energy   TEWEN  =    -23749.84682876
  -Hartree energ DENC   =    -10147.94076015
  -exchange      EXHF   =         0.00000000
  -V(xc)+E(xc)   XCENC  =      1572.11914847
  PAW double counting   =     35912.60462867   -37268.85584083
  entropy T*S    EENTRO =        -0.03575685
  eigenvalues    EBANDS =     -1326.48255899
  atomic energy  EATOM  =     33425.88044021
  Solvation  Ediel_sol  =         0.00000000
  ---------------------------------------------------
  free energy    TOTEN  =      -364.19168184 eV

  energy without entropy =     -364.15592499  energy(sigma->0) =     -364.17380342


--------------------------------------------------------------------------------------------------------




--------------------------------------- Iteration      1(  27)  ---------------------------------------


[...]
   0.116E-12 0.630E-14 0.195E-13   -.126E-11 -.519E-13 -.227E-12   0.000E+00 0.000E+00 0.155E-24   -.152E-12 -.145E-12 0.665E-12
   0.287E+00 0.564E-01 -.665E+00   -.276E+00 -.405E-01 0.664E+00   -.117E-01 -.106E-01 -.362E-02   -.686E-03 -.181E-02 -.721E-03
   -.287E+00 0.564E-01 0.665E+00   0.276E+00 -.405E-01 -.664E+00   0.117E-01 -.106E-01 0.362E-02   0.686E-03 -.181E-02 0.721E-03
   -.287E+00 -.564E-01 0.665E+00   0.276E+00 0.405E-01 -.664E+00   0.117E-01 0.106E-01 0.362E-02   0.686E-03 0.181E-02 0.721E-03
   0.287E+00 -.564E-01 -.665E+00   -.276E+00 0.405E-01 0.664E+00   -.117E-01 0.106E-01 -.362E-02   -.686E-03 0.181E-02 -.721E-03
   -.149E-10 0.964E-12 -.163E-11   -.350E-11 0.633E-13 -.161E-11   0.000E+00 0.000E+00 0.174E-25   -.101E-12 0.141E-12 0.603E-12
   -.108E-12 0.115E-14 0.120E-12   0.106E-11 0.110E-12 -.577E-12   -.207E-24 0.000E+00 0.108E-24   -.123E-12 -.224E-13 0.173E-11
   -.758E-12 0.957E-12 -.162E-11   0.147E-11 0.844E-13 -.803E-12   0.000E+00 0.000E+00 -.743E-25   -.162E-12 0.108E-13 0.172E-11
   -.332E-12 -.250E-13 -.201E-12   -.137E-11 -.111E-12 -.129E-12   0.000E+00 0.000E+00 -.162E-24   0.127E-11 0.185E-12 -.127E-11
   0.457E+00 -.293E+00 0.581E+00   -.482E+00 0.279E+00 -.588E+00   0.987E-02 0.943E-02 0.712E-02   0.436E-02 0.464E-02 0.138E-02
   -.457E+00 -.293E+00 -.581E+00   0.482E+00 0.279E+00 0.588E+00   -.987E-02 0.943E-02 -.712E-02   -.436E-02 0.464E-02 -.138E-02
   -.457E+00 0.293E+00 -.581E+00   0.482E+00 -.279E+00 0.588E+00   -.987E-02 -.943E-02 -.712E-02   -.436E-02 -.464E-02 -.138E-02
   0.457E+00 0.293E+00 0.581E+00   -.482E+00 -.279E+00 -.588E+00   0.987E-02 -.943E-02 0.712E-02   0.436E-02 -.464E-02 0.138E-02
   -.343E-11 0.876E-12 0.371E-11   -.344E-11 -.567E-13 -.154E-11   0.000E+00 0.000E+00 -.355E-25   0.127E-11 -.210E-12 -.119E-11
   -.387E-12 -.169E-16 -.163E-12   0.894E-12 0.116E-12 -.384E-12   0.000E+00 0.000E+00 -.937E-25   -.141E-11 0.175E-13 -.726E-12
   -.264E-11 0.910E-12 -.303E-11   0.151E-11 0.524E-13 -.732E-12   0.000E+00 0.000E+00 0.116E-24   -.147E-11 -.331E-13 -.724E-12
   0.268E+02 -.589E-13 0.267E+03   -.301E+02 -.339E-13 -.279E+03   0.324E+01 0.000E+00 0.120E+02   0.290E-02 -.512E-12 0.240E-02
   -.268E+02 0.384E-13 -.267E+03   0.301E+02 -.228E-13 0.279E+03   -.324E+01 0.000E+00 -.120E+02   -.290E-02 0.424E-12 -.240E-02
   0.364E+02 0.194E-13 -.300E+03   -.382E+02 0.499E-13 0.315E+03   0.181E+01 0.000E+00 -.151E+02   0.259E-02 -.882E-13 0.639E-03
   -.364E+02 -.698E-13 0.300E+03   0.382E+02 0.649E-13 -.315E+03   -.181E+01 0.000E+00 0.151E+02   -.259E-02 0.156E-12 -.639E-03
   0.409E+02 -.405E+02 0.306E+03   -.456E+02 0.430E+02 -.323E+03   0.468E+01 -.247E+01 0.161E+02   0.603E-03 0.814E-03 0.357E-02
   -.409E+02 -.405E+02 -.306E+03   0.456E+02 0.430E+02 0.323E+03   -.468E+01 -.247E+01 -.161E+02   -.603E-03 0.814E-03 -.357E-02
   -.409E+02 0.405E+02 -.306E+03   0.456E+02 -.430E+02 0.323E+03   -.468E+01 0.247E+01 -.161E+02   -.603E-03 -.814E-03 -.357E-02
   0.409E+02 0.405E+02 0.306E+03   -.456E+02 -.430E+02 -.323E+03   0.468E+01 0.247E+01 0.161E+02   0.603E-03 -.814E-03 0.357E-02
   -.436E+02 0.378E+02 -.306E+03   0.484E+02 -.404E+02 0.322E+03   -.479E+01 0.257E+01 -.160E+02   -.945E-03 -.131E-02 0.230E-02
   0.436E+02 0.378E+02 0.306E+03   -.484E+02 -.404E+02 -.322E+03   0.479E+01 0.257E+01 0.160E+02   0.945E-03 -.131E-02 -.230E-02
   0.436E+02 -.378E+02 0.306E+03   -.484E+02 0.404E+02 -.322E+03   0.479E+01 -.257E+01 0.160E+02   0.945E-03 0.131E-02 -.230E-02
   -.436E+02 -.378E+02 -.306E+03   0.484E+02 0.404E+02 0.322E+03   -.479E+01 -.257E+01 -.160E+02   -.945E-03 0.131E-02 0.230E-02
   -.410E+02 0.167E-12 0.298E+03   0.436E+02 -.746E-13 -.313E+03   -.254E+01 0.000E+00 0.147E+02   -.838E-03 0.502E-12 0.460E-02
   0.410E+02 0.741E-13 -.298E+03   -.436E+02 -.987E-14 0.313E+03   0.254E+01 0.000E+00 -.147E+02   0.838E-03 -.454E-12 -.460E-02
   -.153E+02 0.118E-12 -.268E+03   0.180E+02 -.533E-13 0.279E+03   -.278E+01 0.000E+00 -.113E+02   -.324E-03 0.509E-13 0.316E-02
   0.153E+02 0.209E-12 0.268E+03   -.180E+02 -.103E-12 -.279E+03   0.278E+01 0.000E+00 0.113E+02   0.324E-03 -.140E-12 -.316E-02
   -.423E+02 0.622E-13 0.299E+03   0.450E+02 0.715E-13 -.314E+03   -.265E+01 0.000E+00 0.148E+02   -.141E-02 0.138E-12 0.200E-02
   0.423E+02 -.526E-13 -.299E+03   -.450E+02 0.404E-13 0.314E+03   0.265E+01 0.000E+00 -.148E+02   0.141E-02 -.226E-12 -.200E-02
   -.143E+02 -.986E-13 -.269E+03   0.170E+02 0.421E-13 0.280E+03   -.266E+01 0.000E+00 -.113E+02   0.110E-02 -.204E-14 0.338E-02
   0.143E+02 0.151E-13 0.269E+03   -.170E+02 0.706E-13 -.280E+03   0.266E+01 0.000E+00 0.113E+02   -.110E-02 -.134E-12 -.338E-02
   0.419E+02 0.406E+02 0.306E+03   -.466E+02 -.431E+02 -.322E+03   0.473E+01 0.249E+01 0.161E+02   -.131E-02 0.803E-02 0.103E-02
   -.419E+02 0.406E+02 -.306E+03   0.466E+02 -.431E+02 0.322E+03   -.473E+01 0.249E+01 -.161E+02   0.131E-02 0.803E-02 -.103E-02
   -.419E+02 -.406E+02 -.306E+03   0.466E+02 0.431E+02 0.322E+03   -.473E+01 -.249E+01 -.161E+02   0.131E-02 -.803E-02 -.103E-02
   0.419E+02 -.406E+02 0.306E+03   -.466E+02 0.431E+02 -.322E+03   0.473E+01 -.249E+01 0.161E+02   -.131E-02 -.803E-02 0.103E-02
   -.441E+02 -.382E+02 -.305E+03   0.488E+02 0.408E+02 0.321E+03   -.479E+01 -.259E+01 -.160E+02   -.757E-03 -.342E-02 0.204E-02
   0.441E+02 -.382E+02 0.305E+03   -.488E+02 0.408E+02 -.321E+03   0.479E+01 -.259E+01 0.160E+02   0.757E-03 -.342E-02 -.204E-02
   0.441E+02 0.382E+02 0.305E+03   -.488E+02 -.408E+02 -.321E+03   0.479E+01 0.259E+01 0.160E+02   0.757E-03 0.342E-02 -.204E-02
   -.441E+02 0.382E+02 -.305E+03   0.488E+02 -.408E+02 0.321E+03   -.479E+01 0.259E+01 -.160E+02   -.757E-03 0.342E-02 0.204E-02
   0.251E+02 0.575E-13 0.269E+03   -.282E+02 -.552E-13 -.281E+03   0.312E+01 0.000E+00 0.120E+02   -.206E-02 -.992E-13 0.423E-02
   -.251E+02 0.160E-12 -.269E+03   0.282E+02 -.606E-14 0.281E+03   -.312E+01 0.000E+00 -.120E+02   0.206E-02 0.189E-12 -.423E-02
   0.368E+02 0.189E-12 -.301E+03   -.387E+02 -.456E-13 0.316E+03   0.189E+01 0.000E+00 -.151E+02   0.662E-03 -.475E-13 0.446E-02
   -.368E+02 0.881E-13 0.301E+03   0.387E+02 -.292E-13 -.316E+03   -.189E+01 0.000E+00 0.151E+02   -.662E-03 0.171E-12 -.446E-02
 -----------------------------------------------------------------------------------------------
   0.987E-11 0.242E-10 0.360E-10   0.298E-12 -.179E-12 -.114E-12   -.266E-14 0.000E+00 0.533E-14   -.129E-11 -.450E-12 -.644E-12
 
 
 POSITION                                       TOTAL-FORCE (eV/Angst)
 -----------------------------------------------------------------------------------
      4.10148      1.39583      2.36715         0.001891      0.002129     -0.000045
      2.25996      1.39583      7.04887        -0.001891      0.002129      0.000045
      2.25996      4.19564      7.04887        -0.001891     -0.002129      0.000045
      4.10148      4.19564      2.36715         0.001891     -0.002129     -0.000045
      1.60255      2.79574      2.35015        -0.000808      0.000000     -0.005898
      4.75889      2.79574      7.06587         0.000808      0.000000      0.005898
      6.60682      0.00000      2.36772         0.006346      0.000000      0.004266
     -0.24538      0.00000      7.04831        -0.006346      0.000000     -0.004266
     -0.90297      1.39871      2.34053        -0.001227     -0.000005      0.000998
      7.26441      1.39871      7.07550         0.001227     -0.000005     -0.000998
      7.26441      4.19276      7.07550         0.001227      0.000005     -0.000998
     -0.90297      4.19276      2.34053        -0.001227      0.000005      0.000998
     -0.00000      0.00000      0.00000         0.000000      0.000000      0.000000
      2.50257      1.39791      0.01658        -0.001651      0.003601     -0.005983
      3.85886      1.39791      9.39945         0.001651      0.003601      0.005983
      3.85886      4.19356      9.39945         0.001651     -0.003601      0.005983
      2.50257      4.19356      0.01658        -0.001651     -0.003601     -0.005983
     -0.00000      2.79574      0.00000         0.000000      0.000000      0.000000
      5.00579      0.00000      0.02653         0.000000      0.000000      0.000000
      5.00579      2.79574      0.02653         0.000000      0.000000      0.000000
      3.18072      0.00000      4.70801         0.000000      0.000000      0.000000
      5.68471      1.39775      4.71689        -0.010136      0.000328      0.001827
      0.67672      1.39775      4.69913         0.010136      0.000328     -0.001827
      0.67672      4.19372      4.69913         0.010136     -0.000328     -0.001827
      5.68471      4.19372      4.71689        -0.010136     -0.000328      0.001827
      3.18072      2.79574      4.70801         0.000000      0.000000      0.000000
     -1.82507      0.00000      4.68148         0.000000      0.000000      0.000000
     -1.82507      2.79574      4.68148         0.000000      0.000000      0.000000
      5.01983      0.00000      3.67776        -0.013597      0.000000      0.009711
      1.34161      0.00000      5.73826         0.013597      0.000000     -0.009711
      3.32357      0.00000      0.98455        -0.002480      0.000000     -0.000915
      3.03787      0.00000      8.43148         0.002480      0.000000      0.000915
      7.46504      1.39609      3.74686         0.001564     -0.002165      0.002329
     -1.10360      1.39609      5.66917        -0.001564     -0.002165     -0.002329
     -1.10360      4.19538      5.66917        -0.001564      0.002165     -0.002329
      7.46504      4.19538      3.74686         0.001564      0.002165      0.002329
      0.71760      1.40576      0.99534         0.000515      0.000747     -0.002947
      5.64384      1.40576      8.42068        -0.000515      0.000747      0.002947
      5.64384      4.18571      8.42068        -0.000515     -0.000747      0.002947
      0.71760      4.18571      0.99534         0.000515     -0.000747     -0.002947
      4.83214      2.79574      3.74365         0.006141      0.000000      0.007584
      1.52930      2.79574      5.67238        -0.006141      0.000000     -0.007584
      3.23030      2.79574      1.04335        -0.001530      0.000000     -0.004195
      3.13114      2.79574      8.37267         0.001530      0.000000      0.004195
     -0.17282      0.00000      3.72389         0.005796      0.000000     -0.002517
      6.53426      0.00000      5.69213        -0.005796      0.000000      0.002517
      8.23952      0.00000      1.06177        -0.004770      0.000000      0.002487
     -1.87808      0.00000      8.35426         0.004770      0.000000     -0.002487
      2.45408      1.39892      3.72514         0.003989      0.005496     -0.005720
      3.90736      1.39892      5.69088        -0.003989      0.005496      0.005720
      3.90736      4.19255      5.69088        -0.003989     -0.005496      0.005720
      2.45408      4.19255      3.72514         0.003989     -0.005496     -0.005720
      5.72763      1.39046      1.01837        -0.003801     -0.001330     -0.000576
      0.63380      1.39046      8.39766         0.003801     -0.001330      0.000576
      0.63380      4.20102      8.39766         0.003801      0.001330      0.000576
      5.72763      4.20102      1.01837        -0.003801      0.001330     -0.000576
      0.00947      2.79574      3.66181        -0.015049      0.000000     -0.003659
      6.35197      2.79574      5.75421         0.015049      0.000000      0.003659
      8.32894      2.79574      1.00561        -0.004545      0.000000     -0.000339
     -1.96750      2.79574      8.41041         0.004545      0.000000      0.000339
 -----------------------------------------------------------------------------------
    total drift:                                0.000000      0.000000      0.000000


--------------------------------------------------------------------------------------------------------



  FREE ENERGIE OF THE ION-ELECTRON SYSTEM (eV)
  ---------------------------------------------------
  free  energy   TOTEN  =      -364.2790142643 eV

  energy  without entropy=     -364.2777910804  energy(sigma->0) =     -364.27840267
 
 d Force = 0.5724169E-03[ 0.366E-03, 0.779E-03]  d Energy = 0.5520487E-03 0.204E-04
 d Force =-0.8564111E+00[-0.864E+00,-0.849E+00]  d Ewald  =-0.2491419E+01 0.164E+01


--------------------------------------------------------------------------------------------------------


    POTLOK:  cpu time    0.1466: real time    0.1470


--------------------------------------------------------------------------------------------------------


 Quasi-Newton relaxation of ions (Broydens 2nd method)
  g(Force)  = 0.135E-03   g(Stress)= 0.191E-05

 retain information from N=  2 steps
 eigenvalues of (default step * inverse Hessian matrix)
  average eigenvalue of G=   1.4763
 eigenvalue spectrum of G is  1.2871  1.6655


--------------------------------------------------------------------------------------------------------


  
 reached required accuracy - stopping structural energy minimisation
     LOOP+:  cpu time   36.3686: real time   36.5225
    4ORBIT:  cpu time    0.0000: real time    0.0000

volume of typ            1:    17.8 %

volume of typ            2:    19.4 %

volume of typ            3:     9.9 %
 
total charge     
 
# of ion       s       p       d       tot
------------------------------------------
    1        2.078   0.254   0.092   2.425
    2        2.078   0.254   0.092   2.425
    3        2.078   0.254   0.092   2.425
    4        2.078   0.254   0.092   2.425
    5        2.082   0.247   0.094   2.423
    6        2.082   0.247   0.094   2.423
    7        2.082   0.248   0.094   2.424
    8        2.082   0.248   0.094   2.424
    9        2.078   0.254   0.092   2.424
   10        2.078   0.254   0.092   2.424
   11        2.078   0.254   0.092   2.424
   12        2.078   0.254   0.092   2.424
   13        0.267   0.358   7.861   8.487
   14        0.261   0.343   7.864   8.468
   15        0.261   0.343   7.864   8.468
   16        0.261   0.343   7.864   8.468
   17        0.261   0.343   7.864   8.468
   18        0.293   0.410   7.863   8.566
   19        0.292   0.409   7.863   8.565
   20        0.267   0.357   7.862   8.486
   21        0.265   0.350   7.888   8.503
   22        0.262   0.345   7.861   8.468
   23        0.262   0.345   7.861   8.468
   24        0.262   0.345   7.861   8.468
   25        0.262   0.345   7.861   8.468
   26        0.295   0.416   7.858   8.569
   27        0.296   0.417   7.858   8.570
   28        0.265   0.351   7.886   8.502
   29        1.258   2.794   0.006   4.058
   30        1.258   2.794   0.006   4.058
   31        1.262   2.782   0.006   4.050
   32        1.262   2.782   0.006   4.050
   33        1.264   2.775   0.007   4.046
   34        1.264   2.775   0.007   4.046
   35        1.264   2.775   0.007   4.046
   36        1.264   2.775   0.007   4.046
   37        1.264   2.777   0.006   4.047
   38        1.264   2.777   0.006   4.047
   39        1.264   2.777   0.006   4.047
   40        1.264   2.777   0.006   4.047
   41        1.262   2.782   0.006   4.050
   42        1.262   2.782   0.006   4.050
   43        1.257   2.796   0.006   4.059
   44        1.257   2.796   0.006   4.059
   45        1.262   2.782   0.006   4.050
   46        1.262   2.782   0.006   4.050
   47        1.257   2.796   0.006   4.059
   48        1.257   2.796   0.006   4.059
   49        1.264   2.775   0.007   4.046
   50        1.264   2.775   0.007   4.046
   51        1.264   2.775   0.007   4.046
   52        1.264   2.775   0.007   4.046
   53        1.264   2.777   0.006   4.047
   54        1.264   2.777   0.006   4.047
   55        1.264   2.777   0.006   4.047
   56        1.264   2.777   0.006   4.047
   57        1.258   2.794   0.006   4.058
   58        1.258   2.794   0.006   4.058
   59        1.262   2.781   0.006   4.050
   60        1.262   2.781   0.006   4.050
--------------------------------------------------
tot          69.67   97.88  127.15  294.69
 
magnetization (x)
 
# of ion       s       p       d       tot
------------------------------------------
    1        0.005   0.017  -0.001   0.021
    2        0.005   0.017  -0.001   0.021
    3        0.005   0.017  -0.001   0.021
    4        0.005   0.017  -0.001   0.021
    5        0.001   0.008  -0.000   0.010
    6        0.001   0.008  -0.000   0.010
    7        0.001   0.008  -0.000   0.009
    8        0.001   0.008  -0.000   0.009
    9        0.005   0.017  -0.001   0.022
   10        0.005   0.017  -0.001   0.022
   11        0.005   0.017  -0.001   0.022
   12        0.005   0.017  -0.001   0.022
   13        0.001  -0.000   0.460   0.461
   14        0.001  -0.000   0.699   0.701
   15        0.001  -0.000   0.699   0.701
   16        0.001  -0.000   0.699   0.701
   17        0.001  -0.000   0.699   0.701
   18       -0.001  -0.000   0.238   0.237
   19       -0.001  -0.000   0.241   0.240
   20        0.002  -0.000   0.473   0.474
   21        0.000  -0.000   0.110   0.110
   22        0.002  -0.000   0.680   0.682
   23        0.002  -0.000   0.680   0.682
   24        0.002  -0.000   0.680   0.682
   25        0.002  -0.000   0.680   0.682
   26       -0.001  -0.000   0.138   0.137
   27       -0.001  -0.000   0.136   0.135
   28        0.000  -0.000   0.117   0.117
   29        0.007   0.025   0.000   0.032
   30        0.007   0.025   0.000   0.032
   31        0.009   0.043   0.000   0.052
   32        0.009   0.043   0.000   0.052
   33        0.006   0.043   0.000   0.049
   34        0.006   0.043   0.000   0.049
   35        0.006   0.043   0.000   0.049
   36        0.006   0.043   0.000   0.049
   37        0.007   0.052   0.000   0.059
   38        0.007   0.052   0.000   0.059
   39        0.007   0.052   0.000   0.059
   40        0.007   0.052   0.000   0.059
   41        0.009   0.046   0.000   0.056
   42        0.009   0.046   0.000   0.056
   43        0.011   0.066   0.000   0.077
   44        0.011   0.066   0.000   0.077
   45        0.009   0.046   0.000   0.055
   46        0.009   0.046   0.000   0.055
   47        0.011   0.063   0.000   0.075
   48        0.011   0.063   0.000   0.075
   49        0.006   0.043   0.000   0.049
   50        0.006   0.043   0.000   0.049
   51        0.006   0.043   0.000   0.049
   52        0.006   0.043   0.000   0.049
   53        0.007   0.052   0.000   0.059
   54        0.007   0.052   0.000   0.059
   55        0.007   0.052   0.000   0.059
   56        0.007   0.052   0.000   0.059
   57        0.007   0.025   0.000   0.032
   58        0.007   0.025   0.000   0.032
   59        0.009   0.042   0.000   0.052
   60        0.009   0.042   0.000   0.052
--------------------------------------------------
tot           0.30    1.64    7.43    9.37
 

 total amount of memory used by VASP MPI-rank0   100460. kBytes
=======================================================================

   base      :      30000. kBytes
   nonlr-proj:      24541. kBytes
   fftplans  :       6149. kBytes
   grid      :      35266. kBytes
   one-center:        933. kBytes
   wavefun   :       3571. kBytes
 
  
  
 General timing and accounting informations for this job:
 ========================================================
  
                  Total CPU time used (sec):      252.074
                            User time (sec):      249.263
                          System time (sec):        2.810
                         Elapsed time (sec):      256.841
  
                   Maximum memory used (kb):      150248.
                   Average memory used (kb):           0.
  
                          Minor page faults:        37590
                          Major page faults:           49
                 Voluntary context switches:         1226
