 vasp.5.4.4.18Apr17-6-g9f103f2a35 (build May 12 2020 05:39:39) gamma-only       
  
 MD_VERSION_INFO: Compiled 2020-05-12T12:39:39-UTC in devlin.sd.materialsdesign.
 com:/home/medea2/data/build/wwolf/vasp-gpu5.4.4/13047/x86_64/src/src/build/gam 
 from svn 13047
 
 This VASP executable licensed from Materials Design, Inc.
 
 executed on                        Lin64 date 2023.03.07  03:47:16
 running on   16 total cores
 distrk:  each k-point on   16 cores,    1 groups
 distr:  one band on NCORES_PER_BAND=   1 cores,   16 groups


--------------------------------------------------------------------------------------------------------


 INCAR:
 POTCAR:    PAW_PBE Li_sv 10Sep2004               
 POTCAR:    PAW_PBE Ni 02Aug2007                  
 POTCAR:    PAW_PBE O 08Apr2002                   

 ----------------------------------------------------------------------------- 
|                                                                             |
|           W    W    AA    RRRRR   N    N  II  N    N   GGGG   !!!           |
|           W    W   A  A   R    R  NN   N  II  NN   N  G    G  !!!           |
|           W    W  A    A  R    R  N N  N  II  N N  N  G       !!!           |
|           W WW W  AAAAAA  RRRRR   N  N N  II  N  N N  G  GGG   !            |
|           WW  WW  A    A  R   R   N   NN  II  N   NN  G    G                |
|           W    W  A    A  R    R  N    N  II  N    N   GGGG   !!!           |
|                                                                             |
|      For optimal performance we recommend to set                            |
|        NCORE= 4 - approx SQRT( number of cores)                             |
|      NCORE specifies how many cores store one orbital (NPAR=cpu/NCORE).     |
|      This setting can  greatly improve the performance of VASP for DFT.     |
|      The default,   NCORE=1            might be grossly inefficient         |
|      on modern multi-core architectures or massively parallel machines.     |
|      Do your own testing !!!!                                               |
|      Unfortunately you need to use the default for GW and RPA calculations. |
|      (for HF NCORE is supported but not extensively tested yet)             |
|                                                                             |
 ----------------------------------------------------------------------------- 

 POTCAR:    PAW_PBE Li_sv 10Sep2004               
  local pseudopotential read in
  atomic valenz-charges read in
  non local Contribution for L=           0  read in
    real space projection operators read in
  non local Contribution for L=           0  read in
    real space projection operators read in
  non local Contribution for L=           1  read in
    real space projection operators read in
    PAW grid and wavefunctions read in
 
   number of l-projection  operators is LMAX  =           3
   number of lm-projection operators is LMMAX =           5
 
 POTCAR:    PAW_PBE Ni 02Aug2007                  
  local pseudopotential read in
  partial core-charges read in
  partial kinetic energy density read in
  atomic valenz-charges read in
  non local Contribution for L=           2  read in
    real space projection operators read in
  non local Contribution for L=           2  read in
    real space projection operators read in
  non local Contribution for L=           0  read in
    real space projection operators read in
  non local Contribution for L=           0  read in
    real space projection operators read in
  non local Contribution for L=           1  read in
    real space projection operators read in
  non local Contribution for L=           1  read in
    real space projection operators read in
    PAW grid and wavefunctions read in
 
   number of l-projection  operators is LMAX  =           6
   number of lm-projection operators is LMMAX =          18
 
 POTCAR:    PAW_PBE O 08Apr2002                   
  local pseudopotential read in
  partial core-charges read in
  partial kinetic energy density read in
  kinetic energy density of atom read in
  atomic valenz-charges read in
  non local Contribution for L=           0  read in
    real space projection operators read in
  non local Contribution for L=           0  read in
    real space projection operators read in
  non local Contribution for L=           1  read in
    real space projection operators read in
  non local Contribution for L=           1  read in
    real space projection operators read in
    PAW grid and wavefunctions read in
 
   number of l-projection  operators is LMAX  =           4
   number of lm-projection operators is LMMAX =           8
 
 Optimization of the real space projectors (new method)

 maximal supplied QI-value         = 22.11
 optimisation between [QCUT,QGAM] = [ 11.28, 22.77] = [ 35.61,145.23] Ry 
 Optimized for a Real-space Cutoff    1.10 Angstroem

   l    n(q)    QCUT    max X(q) W(low)/X(q) W(high)/X(q)  e(spline) 
   0      7    11.276    10.506    0.54E-04    0.58E-04    0.16E-07
   0      7    11.276     8.367    0.11E-03    0.14E-03    0.35E-07
   1      7    11.276     8.983    0.23E-03    0.43E-03    0.86E-07
 Optimization of the real space projectors (new method)

 maximal supplied QI-value         = 16.25
 optimisation between [QCUT,QGAM] = [ 11.38, 22.75] = [ 36.24,144.96] Ry 
 Optimized for a Real-space Cutoff    1.47 Angstroem

   l    n(q)    QCUT    max X(q) W(low)/X(q) W(high)/X(q)  e(spline) 
   2      9    11.376    60.317    0.17E-03    0.16E-04    0.16E-06
   2      9    11.376    55.921    0.17E-03    0.16E-04    0.17E-06
   0     10    11.376    51.690    0.45E-04    0.60E-04    0.21E-06
   0     10    11.376    30.015    0.37E-04    0.55E-04    0.19E-06
   1     10    11.376    18.849    0.83E-04    0.11E-03    0.92E-07
   1     10    11.376    14.624    0.69E-04    0.92E-04    0.82E-07
 Optimization of the real space projectors (new method)

 maximal supplied QI-value         = 24.76
 optimisation between [QCUT,QGAM] = [ 11.39, 22.77] = [ 36.31,145.25] Ry 
 Optimized for a Real-space Cutoff    1.10 Angstroem

   l    n(q)    QCUT    max X(q) W(low)/X(q) W(high)/X(q)  e(spline) 
   0      7    11.387    20.381    0.22E-03    0.48E-03    0.18E-06
   0      7    11.387    15.268    0.22E-03    0.52E-03    0.19E-06
   1      7    11.387     5.964    0.22E-03    0.73E-03    0.24E-06
   1      7    11.387     5.382    0.19E-03    0.60E-03    0.21E-06

 ----------------------------------------------------------------------------- 
|                                                                             |
|  ADVICE TO THIS USER RUNNING 'VASP/VAMP'   (HEAR YOUR MASTER'S VOICE ...):  |
|                                                                             |
|      You enforced a specific xc-type in the INCAR file,                     |
|      a different type was found on the POTCAR file                          |
|          I HOPE YOU KNOW, WHAT YOU ARE  DOING                               |
|                                                                             |
 ----------------------------------------------------------------------------- 

  PAW_PBE Li_sv 10Sep2004               :
 energy of atom  1       EATOM= -202.7858
 kinetic energy error for atom=    0.0143 (will be added to EATOM!!)
  PAW_PBE Ni 02Aug2007                  :
 energy of atom  2       EATOM=-1077.6739
 kinetic energy error for atom=    0.0030 (will be added to EATOM!!)
  PAW_PBE O 08Apr2002                   :
 energy of atom  3       EATOM= -432.3788
 kinetic energy error for atom=    0.0224 (will be added to EATOM!!)
 
 
 POSCAR: ce11824_1                               
  positions in direct lattice
  No initial velocities read in
 exchange correlation table for  LEXCH =       14
   RHO(1)=    0.500       N(1)  =     2000
   RHO(2)=  100.500       N(2)  =     4000
 


--------------------------------------------------------------------------------------------------------


 ion  position               nearest neighbor table
   1  0.999  0.250  0.251-  24 2.11  42 2.13  45 2.13  33 2.14  30 2.14  38 2.17
   2  0.249  0.751  0.499-  35 2.13  25 2.13  23 2.13  37 2.14  47 2.15  43 2.18
   3  0.501  0.251  0.249-  50 2.11  30 2.13  33 2.14  36 2.14  42 2.14  45 2.14
   4  0.996  0.249  0.750-  22 2.10  40 2.12  49 2.13  29 2.13  46 2.15  26 2.15
   5  0.255  0.749  0.000-  53 2.12  51 2.14  27 2.14  39 2.15  41 2.16  31 2.17
   6  0.999  0.004  0.003-  32 1.84  31 1.85  33 1.86  30 1.87  41 1.94  40 1.96  11 2.77  11 2.79
                            10 2.79   7 2.80   9 2.83   8 2.84
   7  0.250  0.998  0.249-  53 1.84  41 1.84  24 1.84  36 1.85  30 1.91  47 1.93  10 2.78  10 2.78
                             6 2.80  11 2.81  12 2.82  13 2.84
   8  0.251  0.998  0.749-  37 1.84  52 1.84  25 1.84  40 1.84  46 1.90  31 1.94   9 2.77   9 2.78
                            13 2.79  12 2.81  11 2.82   6 2.84
   9  0.750  0.995  0.747-  52 1.84  40 1.84  37 1.86  25 1.86  32 1.90  49 1.91   8 2.77  13 2.78
                             8 2.78  12 2.80  11 2.82   6 2.83
  10  0.750  0.995  0.247-  24 1.84  36 1.84  53 1.86  41 1.86  48 1.90  33 1.92   7 2.78   7 2.78
                             6 2.79  11 2.80  12 2.82  13 2.84
  11  0.501  0.003  0.002-  32 1.84  31 1.85  33 1.86  30 1.88  52 1.93  53 1.95   6 2.77   6 2.79
                            10 2.80   7 2.81   9 2.82   8 2.82
  12  0.999  0.002  0.501-  49 1.84  48 1.84  47 1.85  46 1.85  25 1.94  24 1.98  13 2.77  13 2.79
                             9 2.80   8 2.81  10 2.82   7 2.82
  13  0.501  0.006  0.504-  48 1.84  47 1.85  49 1.85  46 1.87  37 1.93  36 1.97  12 2.77   9 2.78
                            12 2.79   8 2.79   7 2.84  10 2.84
  14  0.999  0.496  0.498-  44 1.84  43 1.85  45 1.85  42 1.87  23 1.98  22 2.00  19 2.77  19 2.79
                            17 2.80  16 2.81  18 2.83  15 2.83
  15  0.251  0.500  0.751-  51 1.83  22 1.84  34 1.85  39 1.85  26 1.91  43 1.95  18 2.77  18 2.78
                            21 2.79  20 2.79  14 2.83  19 2.83
  16  0.251  0.504  0.252-  23 1.83  50 1.84  35 1.84  38 1.85  42 1.91  27 1.94  17 2.77  17 2.78
                            19 2.80  14 2.81  21 2.83  20 2.83
  17  0.750  0.507  0.253-  50 1.84  38 1.85  23 1.85  35 1.87  28 1.90  45 1.92  16 2.77  16 2.78
                            19 2.79  14 2.80  20 2.83  21 2.83
  18  0.750  0.503  0.753-  22 1.84  34 1.85  51 1.85  39 1.87  44 1.91  29 1.91  15 2.77  15 2.78
                            21 2.78  20 2.79  14 2.83  19 2.83
  19  0.501  0.497  0.498-  44 1.84  43 1.84  45 1.86  42 1.88  34 1.91  35 1.92  14 2.77  14 2.79
                            17 2.79  16 2.80  18 2.83  15 2.83
  20  0.999  0.498  0.998-  29 1.84  28 1.84  27 1.85  26 1.85  39 1.89  38 1.94  21 2.77  18 2.79
                            21 2.79  15 2.79  17 2.83  16 2.83
  21  0.501  0.494  0.997-  28 1.84  27 1.85  29 1.85  26 1.86  51 1.94  50 1.97  20 2.77  18 2.78
                            20 2.79  15 2.79  16 2.83  17 2.83
  22  0.998  0.400  0.646-  18 1.84  15 1.84  14 2.00   4 2.10
  23  0.005  0.604  0.363-  16 1.83  17 1.85  14 1.98   2 2.13
  24  0.998  0.098  0.355-  10 1.84   7 1.84  12 1.98   1 2.11
  25  0.005  0.898  0.636-   8 1.84   9 1.86  12 1.94   2 2.13
  26  0.246  0.398  0.884-  20 1.85  21 1.86  15 1.91   4 2.15
  27  0.253  0.596  0.108-  21 1.85  20 1.85  16 1.94   5 2.14
  28  0.748  0.595  0.109-  21 1.84  20 1.84  17 1.90
  29  0.754  0.399  0.884-  20 1.84  21 1.85  18 1.91   4 2.13
  30  0.251  0.103  0.119-   6 1.87  11 1.88   7 1.91   3 2.13   1 2.14
  31  0.249  0.904  0.892-  11 1.85   6 1.85   8 1.94   5 2.17
  32  0.751  0.906  0.890-  11 1.84   6 1.84   9 1.90
  33  0.750  0.102  0.118-   6 1.86  11 1.86  10 1.92   3 2.14   1 2.14
  34  0.502  0.404  0.639-  18 1.85  15 1.85  19 1.91
  35  0.496  0.603  0.368-  16 1.84  17 1.87  19 1.92   2 2.13
  36  0.502  0.098  0.356-  10 1.84   7 1.85  13 1.97   3 2.14
  37  0.496  0.899  0.635-   8 1.84   9 1.86  13 1.93   2 2.14
  38  0.998  0.405  0.142-  17 1.85  16 1.85  20 1.94   1 2.17
  39  0.005  0.600  0.867-  15 1.85  18 1.87  20 1.89   5 2.15
  40  0.998  0.098  0.856-   9 1.84   8 1.84   6 1.96   4 2.12
  41  0.005  0.898  0.135-   7 1.84  10 1.86   6 1.94   5 2.16
  42  0.249  0.397  0.381-  14 1.87  19 1.88  16 1.91   1 2.13   3 2.14
  43  0.250  0.595  0.608-  19 1.84  14 1.85  15 1.95   2 2.18
  44  0.750  0.594  0.610-  19 1.84  14 1.84  18 1.91
  45  0.751  0.398  0.382-  14 1.85  19 1.86  17 1.92   1 2.13   3 2.14
  46  0.245  0.101  0.617-  12 1.85  13 1.87   8 1.90   4 2.15
  47  0.253  0.905  0.392-  13 1.85  12 1.85   7 1.93   2 2.15
  48  0.747  0.906  0.390-  12 1.84  13 1.84  10 1.90
  49  0.755  0.099  0.617-  12 1.84  13 1.85   9 1.91   4 2.13
  50  0.503  0.403  0.146-  17 1.84  16 1.84  21 1.97   3 2.11
  51  0.496  0.600  0.863-  15 1.83  18 1.85  21 1.94   5 2.14
  52  0.503  0.096  0.858-   9 1.84   8 1.84  11 1.93
  53  0.496  0.898  0.136-   7 1.84  10 1.86  11 1.95   5 2.12
 
  LATTYP: Found a triclinic cell.
 ALAT       =    14.7997279155
 B/A-ratio  =     0.3752756937
 C/A-ratio  =     0.7817798265
 COS(alpha) =     0.0001265581
 COS(beta)  =     0.3676934893
 COS(gamma) =     0.7505545890
  
  Lattice vectors:
  
 A1 = (  -9.7787327243,  11.1079893537,  -0.1445863011)
 A2 = (  -0.0000017657,   5.5539781439,  -0.0004330680)
 A3 = (  -6.2943120666,   0.0007053006,  -9.7082188767)


Analysis of symmetry for initial positions (statically):
=====================================================================
 Subroutine PRICEL returns:
 Original cell was already a primitive cell.
 

 Routine SETGRP: Setting up the symmetry group for a 
 triclinic supercell.


 Subroutine GETGRP returns: Found  1 space group operations
 (whereof  1 operations were pure point group operations)
 out of a pool of  2 trial point group operations.


The static configuration has the point symmetry C_1 .


Analysis of symmetry for dynamics (positions and initial velocities):
=====================================================================
 Subroutine PRICEL returns:
 Original cell was already a primitive cell.
 

 Routine SETGRP: Setting up the symmetry group for a 
 triclinic supercell.


 Subroutine GETGRP returns: Found  1 space group operations
 (whereof  1 operations were pure point group operations)
 out of a pool of  2 trial point group operations.


The dynamic configuration has the point symmetry C_1 .


Analysis of structural, dynamic, and magnetic symmetry:
=====================================================================
 Subroutine PRICEL returns:
 Original cell was already a primitive cell.
 

 Routine SETGRP: Setting up the symmetry group for a 
 triclinic supercell.


 Subroutine GETGRP returns: Found  1 space group operations
 (whereof  1 operations were pure point group operations)
 out of a pool of  2 trial point group operations.


The magnetic configuration has the point symmetry C_1 .


 Subroutine INISYM returns: Found  1 space group operations
 (whereof  1 operations are pure point group operations),
 and found     1 'primitive' translations

 
 
 KPOINTS: Automatic mesh                          

Automatic generation of k-mesh.
Space group operators:
 irot       det(A)        alpha          n_x          n_y          n_z        tau_x        tau_y        tau_z
    1     1.000000     0.000000     1.000000     0.000000     0.000000     0.000000     0.000000     0.000000
 
 Subroutine IBZKPT returns following result:
 ===========================================
 
 Found      1 irreducible k-points:
 
 Following reciprocal coordinates:
            Coordinates               Weight
  0.000000  0.000000  0.000000      1.000000
 
 Following cartesian coordinates:
            Coordinates               Weight
  0.000000  0.000000  0.000000      1.000000
 


--------------------------------------------------------------------------------------------------------




 Dimension of arrays:
   k-points           NKPTS =      1   k-points in BZ     NKDIM =      1   number of bands    NBANDS=    240
   number of dos      NEDOS =    301   number of ions     NIONS =     53
   non local maximal  LDIM  =      6   non local SUM 2l+1 LMDIM =     18
   total plane-waves  NPLWV = 241920
   max r-space proj   IRMAX =   6269   max aug-charges    IRDMAX=  15214
   dimension x,y,z NGX =    42 NGY =   80 NGZ =   72
   dimension x,y,z NGXF=    84 NGYF=  160 NGZF=  144
   support grid    NGXF=    84 NGYF=  160 NGZF=  144
   ions per type =               5  16  32
   NGX,Y,Z   is equivalent  to a cutoff of  12.57, 13.07, 12.24 a.u.
   NGXF,Y,Z  is equivalent  to a cutoff of  25.14, 26.13, 24.48 a.u.

 SYSTEM =  unknown system                          
 POSCAR =  ce11824_1                               

 Startparameter for this run:
   NWRITE =      1    write-flag & timer
   PREC   = accura    normal or accurate (medium, high low for compatibility)
   ISTART =      0    job   : 0-new  1-cont  2-samecut
   ICHARG =      2    charge: 1-file 2-atom 10-const
   ISPIN  =      2    spin polarized calculation?
   LNONCOLLINEAR =      F non collinear calculations
   LSORBIT =      F    spin-orbit coupling
   INIWAV =      1    electr: 0-lowe 1-rand  2-diag
   LASPH  =      F    aspherical Exc in radial PAW
   METAGGA=      F    non-selfconsistent MetaGGA calc.

 Electronic Relaxation 1
   ENCUT  =  500.0 eV  36.75 Ry    6.06 a.u.  10.13 18.56 17.83*2*pi/ulx,y,z
   ENINI  =  500.0     initial cutoff
   ENAUG  =  628.9 eV  augmentation charge cutoff
   NELM   =     80;   NELMIN=  2; NELMDL= -5     # of ELM steps 
   EDIFF  = 0.1E-04   stopping-criterion for ELM
   LREAL  =      T    real-space projection
   NLSPLINE    = F    spline interpolate recip. space projectors
   LCOMPAT=      F    compatible to vasp.4.4
   GGA_COMPAT  = T    GGA compatible to vasp.4.4-vasp.4.6
   LMAXPAW     = -100 max onsite density
   LMAXMIX     =    2 max onsite mixed and CHGCAR
   VOSKOWN=      1    Vosko Wilk Nusair interpolation
   ROPT   =   -0.00025  -0.00025  -0.00025
 Ionic relaxation
   EDIFFG = -.2E-01   stopping-criterion for IOM
   NSW    =     20    number of steps for IOM
   NBLOCK =      1;   KBLOCK =     20    inner block; outer block 
   IBRION =      1    ionic relax: 0-MD 1-quasi-New 2-CG
   NFREE  =      0    steps in history (QN), initial steepest desc. (CG)
   ISIF   =      3    stress and relaxation
   IWAVPR =     11    prediction:  0-non 1-charg 2-wave 3-comb
   ISYM   =      2    0-nonsym 1-usesym 2-fastsym
   LCORR  =      T    Harris-Foulkes like correction to forces

   POTIM  = 0.5000    time-step for ionic-motion
   TEIN   =    0.0    initial temperature
   TEBEG  =    0.0;   TEEND  =   0.0 temperature during run
   SMASS  =  -3.00    Nose mass-parameter (am)
   estimated Nose-frequenzy (Omega)   =  0.10E-29 period in steps =****** mass=  -0.705E-27a.u.
   SCALEE = 1.0000    scale energy and forces
   NPACO  =    256;   APACO  = 16.0  distance and # of slots for P.C.
   PSTRESS=    0.0 pullay stress

  Mass of Ions in am
   POMASS =   7.01 58.69 16.00
  Ionic Valenz
   ZVAL   =   3.00 10.00  6.00
  Atomic Wigner-Seitz radii
   RWIGS  =   1.23  1.15  0.73
  virtual crystal weights 
   VCA    =   1.00  1.00  1.00
   NELECT =     367.0000    total number of electrons
   NUPDOWN=      -1.0000    fix difference up-down

 DOS related values:
   EMIN   =  10.00;   EMAX   =-10.00  energy-range for DOS
   EFERMI =   0.00
   ISMEAR =     0;   SIGMA  =   0.05  broadening in eV -4-tet -1-fermi 0-gaus

 Electronic relaxation 2 (details)
   IALGO  =     38    algorithm
   LDIAG  =      T    sub-space diagonalisation (order eigenvalues)
   LSUBROT=      F    optimize rotation matrix (better conditioning)
   TURBO    =      0    0=normal 1=particle mesh
   IRESTART =      0    0=no restart 2=restart with 2 vectors
   NREBOOT  =      0    no. of reboots
   NMIN     =      0    reboot dimension
   EREF     =   0.00    reference energy to select bands
   IMIX   =      4    mixing-type and parameters
     AMIX     =   0.40;   BMIX     =  1.00
     AMIX_MAG =   1.60;   BMIX_MAG =  1.00
     AMIN     =   0.10
     WC   =   100.;   INIMIX=   1;  MIXPRE=   1;  MAXMIX= -45

 Intra band minimization:
   WEIMIN = 0.0010     energy-eigenvalue tresh-hold
   EBREAK =  0.10E-07  absolut break condition
   DEPER  =   0.30     relativ break condition  

   TIME   =   0.40     timestep for ELM

  volume/ion in A,a.u.               =       9.85        66.49
  Fermi-wavevector in a.u.,A,eV,Ry     =   1.455484  2.750467 28.823054  2.118435
  Thomas-Fermi vector in A             =   2.572514
 
 Write flags
   LWAVE        =      F    write WAVECAR
   LDOWNSAMPLE  =      F    k-point downsampling of WAVECAR
   LCHARG       =      T    write CHGCAR
   LVTOT        =      F    write LOCPOT, total local potential
   LVHAR        =      F    write LOCPOT, Hartree potential only
   LELF         =      F    write electronic localiz. function (ELF)
   LORBIT       =      0    0 simple, 1 ext, 2 COOP (PROOUT), +10 PAW based schemes


 Dipole corrections
   LMONO  =      F    monopole corrections only (constant potential shift)
   LDIPOL =      F    correct potential (dipole corrections)
   IDIPOL =      0    1-x, 2-y, 3-z, 4-all directions 
   EPSILON=  1.0000000 bulk dielectric constant

 Exchange correlation treatment:
   GGA     =    PS    GGA type
   LEXCH   =    14    internal setting for exchange type
   VOSKOWN=      1    Vosko Wilk Nusair interpolation
   LHFCALC =     F    Hartree Fock is set to
   LHFONE  =     F    Hartree Fock one center treatment
   AEXX    =    0.0000 exact exchange contribution

 Linear response parameters
   LEPSILON=     F    determine dielectric tensor
   LRPA    =     F    only Hartree local field effects (RPA)
   LNABLA  =     F    use nabla operator in PAW spheres
   LVEL    =     F    velocity operator in full k-point grid
   LINTERFAST=   F  fast interpolation
   KINTER  =     0    interpolate to denser k-point grid
   CSHIFT  =0.1000    complex shift for real part using Kramers Kronig
   OMEGAMAX=  -1.0    maximum frequency
   DEG_THRESHOLD= 0.2000000E-02 threshold for treating states as degnerate
   RTIME   =   -0.100 relaxation time in fs
  (WPLASMAI=    0.000 imaginary part of plasma frequency in eV, 0.658/RTIME)
   DFIELD  = 0.0000000 0.0000000 0.0000000 field for delta impulse in time
 
 Orbital magnetization related:
   ORBITALMAG=     F  switch on orbital magnetization
   LCHIMAG   =     F  perturbation theory with respect to B field
   DQ        =  0.001000  dq finite difference perturbation B field
   LLRAUG    =     F  two centre corrections for induced B field



--------------------------------------------------------------------------------------------------------


 quasi-Newton-method for relaxation of ions
 charge density and potential will be updated during run
 spin polarized calculation
 Variant of blocked Davidson
 Davidson routine will perform the subspace rotation
 perform sub-space diagonalisation
    after iterative eigenvector-optimisation
 modified Broyden-mixing scheme, WC =      100.0
 initial mixing is a Kerker type mixing with AMIX =  0.4000 and BMIX =      1.0000
 Hartree-type preconditioning will be used
 using additional bands           56
 real space projection scheme for non local part
 use partial core corrections
 calculate Harris-corrections to forces 
   (improved forces if not selfconsistent)
 use gradient corrections 
 use of overlap-Matrix (Vanderbilt PP)
 Gauss-broadening in eV      SIGMA  =   0.05


--------------------------------------------------------------------------------------------------------


  energy-cutoff  :      500.00
  volume of cell :      522.24
      direct lattice vectors                 reciprocal lattice vectors
    -0.000001766  5.553978144 -0.000433068     0.000000421  0.180051124  0.000012808
    -3.484417126 -0.000672235  9.564498712    -0.001528459  0.000008109  0.103996482
     9.778729193 -0.000033066  0.143720165     0.101718147  0.000002922  0.037056668

  length of vectors
     5.553978161 10.179430179  9.779785280     0.180051124  0.104007713  0.108257924


 
 k-points in units of 2pi/SCALE and weight: Automatic mesh                          
   0.00000000  0.00000000  0.00000000       1.000
 
 k-points in reciprocal lattice and weights: Automatic mesh                          
   0.00000000  0.00000000  0.00000000       1.000
 
 position of ions in fractional coordinates (direct lattice) 
   0.99884736  0.25027621  0.25146726
   0.24915654  0.75111356  0.49926784
   0.50108123  0.25065778  0.24925085
   0.99608703  0.24932865  0.75037716
   0.25524798  0.74917067  0.00034287
   0.99919973  0.00406373  0.00292677
   0.25021485  0.99764544  0.24873345
   0.25094461  0.99844919  0.74869682
   0.74971454  0.99523729  0.74728320
   0.74990785  0.99452652  0.24715767
   0.50107130  0.00348882  0.00151403
   0.99904534  0.00161068  0.50114940
   0.50096217  0.00561629  0.50392094
   0.99910305  0.49590586  0.49802043
   0.25063049  0.50005484  0.75146916
   0.25063859  0.50371687  0.25180398
   0.75008880  0.50696213  0.25335164
   0.74965984  0.50322406  0.75281857
   0.50085292  0.49678297  0.49787186
   0.99928130  0.49826614  0.99824571
   0.50112843  0.49440080  0.99692990
   0.99785968  0.40002387  0.64630216
   0.00513715  0.60383989  0.36296410
   0.99763972  0.09833856  0.35516034
   0.00491923  0.89775440  0.63578223
   0.24641829  0.39820782  0.88377297
   0.25255803  0.59613919  0.10752022
   0.74773535  0.59491435  0.10910215
   0.75378624  0.39947051  0.88396520
   0.25059674  0.10346948  0.11916976
   0.24934259  0.90411921  0.89222677
   0.75087320  0.90553780  0.89020624
   0.74976833  0.10223913  0.11824244
   0.50232293  0.40428300  0.63874881
   0.49575572  0.60250433  0.36789033
   0.50243695  0.09810735  0.35606299
   0.49584407  0.89925227  0.63488611
   0.99796631  0.40454616  0.14215489
   0.00475483  0.60024375  0.86742838
   0.99813210  0.09760372  0.85626950
   0.00479651  0.89770319  0.13544556
   0.24929315  0.39721434  0.38074801
   0.24992849  0.59515957  0.60823149
   0.75021651  0.59378960  0.61022974
   0.75067321  0.39847466  0.38163892
   0.24499944  0.10058438  0.61733748
   0.25317009  0.90458042  0.39174184
   0.74698594  0.90583977  0.39016668
   0.75477416  0.09933338  0.61711119
   0.50268058  0.40251575  0.14611097
   0.49584109  0.59958652  0.86326369
   0.50272603  0.09591780  0.85793408
   0.49551500  0.89806118  0.13551146
 
 position of ions in cartesian coordinates  (Angst):
   1.58696176  5.54739985  2.42947484
   2.26501161  1.38328854  7.25567163
   1.56395942  2.78281746  2.43302138
   6.46896826  5.53205317  2.49211651
  -2.60707073  1.41713807  7.16538065
   0.01445860  5.54953063  0.03885545
  -1.04391625  1.38900893  9.57761818
   3.84228955  1.39304493  9.65716015
   3.83965686  4.16320443  9.62602077
  -1.04845864  4.16429508  9.54734440
   0.00264790  2.78293665  0.03336941
   4.89499022  5.54865833  0.08699797
   4.90813603  2.78231250  0.12592365
   3.14206228  5.54864667  4.81423386
   5.60601332  1.39163526  4.89066660
   0.70716280  1.39169431  4.85388012
   0.71098823  4.16562763  4.88492554
   5.60816507  4.16323119  4.92095643
   3.13755412  2.78137575  4.82281740
   8.02540563  5.54961854  4.90870114
   8.02600802  2.78289103  4.87175772
   4.92616201  5.54180057  3.91848230
   1.44529758  0.02811369  5.82758889
   3.13036246  5.54079135  0.99117069
   3.08899144  0.02669677  8.67794340
   7.25465396  1.36830489  3.93556746
  -1.02578694  1.40229748  5.71711596
  -1.00605069  4.15250226  5.70541389
   7.25213309  4.18621454  3.94745236
   0.80479754  1.39173532  1.00665228
   5.57451506  1.38420601  8.77557002
   5.54981300  4.16969517  8.78863053
   0.80001570  4.16412428  0.99453515
   4.83746014  2.78959768  3.95834778
   1.49812263  2.75299924  5.81531045
   3.13999574  2.79044611  0.98930346
   3.07500845  2.75328163  8.69192838
  -0.01951516  5.54240642  3.88927956
   6.39084761  0.02597603  5.86569546
   8.03313372  5.54350994  1.05616159
  -1.80348693  0.02603177  8.60554519
   2.33917079  1.38428910  3.85376925
   3.87394639  1.38767717  5.77970983
   3.89825940  4.16626676  5.76667729
   2.34349039  4.16894211  3.86573449
   5.68629767  1.36063351  1.05065692
   0.67880141  1.40548010  8.70804982
   0.65900938  4.14812175  8.71965464
   5.68844295  4.19191201  1.03843844
   0.02624595  2.79160154  3.87064277
   6.35241143  2.75345897  5.85859817
   8.05528652  2.79203654  1.04049039
  -1.80409076  2.75147129  8.60876614
 


--------------------------------------------------------------------------------------------------------


 use serial FFT for orbitals x direction half grid
 k-point  1 :   0.0000 0.0000 0.0000  plane waves:    6621

 maximum and minimum number of plane-waves per node :      6621     6621

 maximum number of plane-waves:      6621
 maximum index in each direction: 
   IXMAX=   10   IYMAX=   18   IZMAX=   17
   IXMIN=    0   IYMIN=  -18   IZMIN=  -17

 The following grids will avoid any aliasing or wrap around errors in the Hartre
 e energy
  - symmetry arguments have not been applied
  - exchange correlation energies might require even more grid points
  - we recommend to set PREC=Normal or Accurate and rely on VASP defaults
 NGX is ok and might be reduce to    42
 NGY is ok and might be reduce to    80
 NGZ is ok and might be reduce to    70

 serial   3D FFT for wavefunctions
 parallel 3D FFT for charge:
    minimum data exchange during FFTs selected (reduces bandwidth)


 total amount of memory used by VASP MPI-rank0    92886. kBytes
=======================================================================

   base      :      30000. kBytes
   nonlr-proj:      21437. kBytes
   fftplans  :       5544. kBytes
   grid      :      31764. kBytes
   one-center:        824. kBytes
   wavefun   :       3317. kBytes
 
     INWAV:  cpu time    0.0000: real time    0.0000
 Broyden mixing: mesh for mixing (old mesh)
   NGX = 21   NGY = 37   NGZ = 35
  (NGX  = 84   NGY  =160   NGZ  =144)
  gives a total of  27195 points

 initial charge density was supplied:
 charge density of overlapping atoms calculated
 number of electron     367.0000000 magnetization      40.0000000
 keeping initial charge density in first step


--------------------------------------------------------------------------------------------------------


 Maximum index for non-local projection operator         6062
 Maximum index for augmentation-charges         1428 (set IRDMAX)


--------------------------------------------------------------------------------------------------------


 First call to EWALD:  gamma=   0.220
 Maximum number of real-space cells 4x 2x 2
 Maximum number of reciprocal cells 2x 3x 3

    FEWALD:  cpu time    0.0041: real time    0.0041


--------------------------------------- Iteration      1(   1)  ---------------------------------------


    POTLOK:  cpu time    0.1645: real time    0.1692
    SETDIJ:  cpu time    0.0204: real time    0.0205
     EDDAV:  cpu time    1.5845: real time    1.6520
    --------------------------------------------
      LOOP:  cpu time    1.7700: real time    1.8422

 eigenvalue-minimisations  :   960
 total energy-change (2. order) : 0.6554474E+04  (-0.1647108E+05)
 number of electron     367.0000000 magnetization      40.0000000
 augmentation part      367.0000000 magnetization      40.0000000

 Free energy of the ion-electron system (eV)
  ---------------------------------------------------
  alpha Z        PSCENC =      1121.19354838
  Ewald energy   TEWEN  =    -20553.09298325
  -Hartree energ DENC   =    -12165.75000526
  -exchange      EXHF   =         0.00000000
  -V(xc)+E(xc)   XCENC  =      1489.93176065
  PAW double counting   =     26862.62074115   -28054.42107421
  entropy T*S    EENTRO =        -0.01112270
  eigenvalues    EBANDS =      5835.24401794
  atomic energy  EATOM  =     32018.75905649
  Solvation  Ediel_sol  =         0.00000000
  ---------------------------------------------------
  free energy    TOTEN  =      6554.47393920 eV

  energy without entropy =     6554.48506190  energy(sigma->0) =     6554.47950055


--------------------------------------------------------------------------------------------------------




--------------------------------------- Iteration      1(   2)  ---------------------------------------


     EDDAV:  cpu time    1.6565: real time    1.6604
    --------------------------------------------
      LOOP:  cpu time    1.6563: real time    1.6602

 eigenvalue-minimisations  :  1040
 total energy-change (2. order) :-0.5281929E+04  (-0.4792081E+04)
 number of electron     367.0000000 magnetization      40.0000000
 augmentation part      367.0000000 magnetization      40.0000000

 Free energy of the ion-electron system (eV)
  ---------------------------------------------------
  alpha Z        PSCENC =      1121.19354838
  Ewald energy   TEWEN  =    -20553.09298325
  -Hartree energ DENC   =    -12165.75000526
  -exchange      EXHF   =         0.00000000
  -V(xc)+E(xc)   XCENC  =      1489.93176065
  PAW double counting   =     26862.62074115   -28054.42107421
  entropy T*S    EENTRO =        -0.00115734
  eigenvalues    EBANDS =       553.30463864
  atomic energy  EATOM  =     32018.75905649
  Solvation  Ediel_sol  =         0.00000000
  ---------------------------------------------------
  free energy    TOTEN  =      1272.54452526 eV

  energy without entropy =     1272.54568260  energy(sigma->0) =     1272.54510393


--------------------------------------------------------------------------------------------------------




--------------------------------------- Iteration      1(   3)  ---------------------------------------


     EDDAV:  cpu time    1.7518: real time    1.7560
    --------------------------------------------
      LOOP:  cpu time    1.7519: real time    1.7561

 eigenvalue-minimisations  :  1088
 total energy-change (2. order) :-0.1479784E+04  (-0.1225085E+04)
 number of electron     367.0000000 magnetization      40.0000000
 augmentation part      367.0000000 magnetization      40.0000000

 Free energy of the ion-electron system (eV)
  ---------------------------------------------------
  alpha Z        PSCENC =      1121.19354838
  Ewald energy   TEWEN  =    -20553.09298325
  -Hartree energ DENC   =    -12165.75000526
  -exchange      EXHF   =         0.00000000
  -V(xc)+E(xc)   XCENC  =      1489.93176065
  PAW double counting   =     26862.62074115   -28054.42107421
  entropy T*S    EENTRO =        -0.08177878
  eigenvalues    EBANDS =      -926.39841342
  atomic energy  EATOM  =     32018.75905649
  Solvation  Ediel_sol  =         0.00000000
  ---------------------------------------------------
  free energy    TOTEN  =      -207.23914824 eV

  energy without entropy =     -207.15736946  energy(sigma->0) =     -207.19825885


--------------------------------------------------------------------------------------------------------




--------------------------------------- Iteration      1(   4)  ---------------------------------------


     EDDAV:  cpu time    1.8354: real time    1.8398
    --------------------------------------------
      LOOP:  cpu time    1.8354: real time    1.8398

 eigenvalue-minimisations  :  1152
 total energy-change (2. order) :-0.2216031E+03  (-0.2154361E+03)
 number of electron     367.0000000 magnetization      40.0000000
 augmentation part      367.0000000 magnetization      40.0000000

 Free energy of the ion-electron system (eV)
  ---------------------------------------------------
  alpha Z        PSCENC =      1121.19354838
  Ewald energy   TEWEN  =    -20553.09298325
  -Hartree energ DENC   =    -12165.75000526
  -exchange      EXHF   =         0.00000000
  -V(xc)+E(xc)   XCENC  =      1489.93176065
  PAW double counting   =     26862.62074115   -28054.42107421
  entropy T*S    EENTRO =        -0.15080266
  eigenvalues    EBANDS =     -1147.93251007
  atomic energy  EATOM  =     32018.75905649
  Solvation  Ediel_sol  =         0.00000000
  ---------------------------------------------------
  free energy    TOTEN  =      -428.84226877 eV

  energy without entropy =     -428.69146611  energy(sigma->0) =     -428.76686744


--------------------------------------------------------------------------------------------------------




--------------------------------------- Iteration      1(   5)  ---------------------------------------


     EDDAV:  cpu time    1.9074: real time    1.9119
    CHARGE:  cpu time    0.0997: real time    0.0999
    MIXING:  cpu time    0.0033: real time    0.0072
    --------------------------------------------
      LOOP:  cpu time    2.0100: real time    2.0186

 eigenvalue-minimisations  :  1360
 total energy-change (2. order) :-0.9181308E+01  (-0.9104420E+01)
 number of electron     366.9999849 magnetization      37.9443149
 augmentation part      107.8606106 magnetization      29.6084464

 Broyden mixing:
  rms(total) = 0.11906E+02    rms(broyden)= 0.11905E+02
  rms(prec ) = 0.14488E+02
  weight for this iteration     100.00

 Free energy of the ion-electron system (eV)
  ---------------------------------------------------
  alpha Z        PSCENC =      1121.19354838
  Ewald energy   TEWEN  =    -20553.09298325
  -Hartree energ DENC   =    -12165.75000526
  -exchange      EXHF   =         0.00000000
  -V(xc)+E(xc)   XCENC  =      1489.93176065
  PAW double counting   =     26862.62074115   -28054.42107421
  entropy T*S    EENTRO =        -0.15092933
  eigenvalues    EBANDS =     -1157.11369123
  atomic energy  EATOM  =     32018.75905649
  Solvation  Ediel_sol  =         0.00000000
  ---------------------------------------------------
  free energy    TOTEN  =      -438.02357660 eV

  energy without entropy =     -437.87264727  energy(sigma->0) =     -437.94811193


--------------------------------------------------------------------------------------------------------




--------------------------------------- Iteration      1(   6)  ---------------------------------------


    POTLOK:  cpu time    0.1398: real time    0.1401
    SETDIJ:  cpu time    0.0219: real time    0.0219
     EDDAV:  cpu time    2.1760: real time    2.1811
    CHARGE:  cpu time    0.1039: real time    0.1042
    MIXING:  cpu time    0.0033: real time    0.0033
    --------------------------------------------
      LOOP:  cpu time    2.4448: real time    2.4506

 eigenvalue-minimisations  :  1456
 total energy-change (2. order) :-0.7203407E+02  (-0.1351123E+03)
 number of electron     366.9999812 magnetization      33.5830277
 augmentation part      138.7748774 magnetization      29.9756629

 Broyden mixing:
  rms(total) = 0.21435E+02    rms(broyden)= 0.21435E+02
  rms(prec ) = 0.23601E+02
  weight for this iteration     100.00

 eigenvalues of (default mixing * dielectric matrix)
  average eigenvalue GAMMA=   0.1945
  0.1945

 Free energy of the ion-electron system (eV)
  ---------------------------------------------------
  alpha Z        PSCENC =      1121.19354838
  Ewald energy   TEWEN  =    -20553.09298325
  -Hartree energ DENC   =    -11616.44299031
  -exchange      EXHF   =         0.00000000
  -V(xc)+E(xc)   XCENC  =      1492.96417821
  PAW double counting   =     29788.78578005   -30803.75250905
  entropy T*S    EENTRO =        -0.04111925
  eigenvalues    EBANDS =     -1958.43060378
  atomic energy  EATOM  =     32018.75905649
  Solvation  Ediel_sol  =         0.00000000
  ---------------------------------------------------
  free energy    TOTEN  =      -510.05764249 eV

  energy without entropy =     -510.01652323  energy(sigma->0) =     -510.03708286


--------------------------------------------------------------------------------------------------------




--------------------------------------- Iteration      1(   7)  ---------------------------------------


    POTLOK:  cpu time    0.1422: real time    0.1425
    SETDIJ:  cpu time    0.0218: real time    0.0219
     EDDAV:  cpu time    2.0335: real time    2.0383
    CHARGE:  cpu time    0.1025: real time    0.1028
    MIXING:  cpu time    0.0033: real time    0.0033
    --------------------------------------------
      LOOP:  cpu time    2.3034: real time    2.3089

 eigenvalue-minimisations  :  1360
 total energy-change (2. order) : 0.1413421E+03  (-0.3301357E+02)
 number of electron     366.9999816 magnetization      24.9828082
 augmentation part      129.8936263 magnetization      23.9405180

 Broyden mixing:
  rms(total) = 0.80783E+01    rms(broyden)= 0.80774E+01
  rms(prec ) = 0.95745E+01
  weight for this iteration     100.00

 eigenvalues of (default mixing * dielectric matrix)
  average eigenvalue GAMMA=   0.5270
  0.5270  0.5270

 Free energy of the ion-electron system (eV)
  ---------------------------------------------------
  alpha Z        PSCENC =      1121.19354838
  Ewald energy   TEWEN  =    -20553.09298325
  -Hartree energ DENC   =    -11798.86963558
  -exchange      EXHF   =         0.00000000
  -V(xc)+E(xc)   XCENC  =      1486.69474823
  PAW double counting   =     30949.76660238   -32073.58232027
  entropy T*S    EENTRO =        -0.00885695
  eigenvalues    EBANDS =     -1519.57573230
  atomic energy  EATOM  =     32018.75905649
  Solvation  Ediel_sol  =         0.00000000
  ---------------------------------------------------
  free energy    TOTEN  =      -368.71557286 eV

  energy without entropy =     -368.70671591  energy(sigma->0) =     -368.71114438


--------------------------------------------------------------------------------------------------------




--------------------------------------- Iteration      1(   8)  ---------------------------------------


    POTLOK:  cpu time    0.1413: real time    0.1417
    SETDIJ:  cpu time    0.0215: real time    0.0215
     EDDAV:  cpu time    2.1846: real time    2.1898
    CHARGE:  cpu time    0.1035: real time    0.1037
    MIXING:  cpu time    0.0034: real time    0.0034
    --------------------------------------------
      LOOP:  cpu time    2.4544: real time    2.4602

 eigenvalue-minimisations  :  1488
 total energy-change (2. order) : 0.2679584E+02  (-0.1860807E+02)
 number of electron     366.9999833 magnetization      20.5664115
 augmentation part      119.6257005 magnetization      18.6394344

 Broyden mixing:
  rms(total) = 0.61453E+01    rms(broyden)= 0.61437E+01
  rms(prec ) = 0.83291E+01
  weight for this iteration     100.00

 eigenvalues of (default mixing * dielectric matrix)
  average eigenvalue GAMMA=   0.5014
  0.6039  0.6039  0.2965

 Free energy of the ion-electron system (eV)
  ---------------------------------------------------
  alpha Z        PSCENC =      1121.19354838
  Ewald energy   TEWEN  =    -20553.09298325
  -Hartree energ DENC   =    -11892.16746508
  -exchange      EXHF   =         0.00000000
  -V(xc)+E(xc)   XCENC  =      1479.91206615
  PAW double counting   =     32192.11842385   -33404.20935849
  entropy T*S    EENTRO =        -0.04175934
  eigenvalues    EBANDS =     -1304.39125775
  atomic energy  EATOM  =     32018.75905649
  Solvation  Ediel_sol  =         0.00000000
  ---------------------------------------------------
  free energy    TOTEN  =      -341.91972903 eV

  energy without entropy =     -341.87796969  energy(sigma->0) =     -341.89884936


--------------------------------------------------------------------------------------------------------




--------------------------------------- Iteration      1(   9)  ---------------------------------------


    POTLOK:  cpu time    0.1424: real time    0.1427
    SETDIJ:  cpu time    0.0215: real time    0.0216
     EDDAV:  cpu time    1.8572: real time    1.8616
    CHARGE:  cpu time    0.1038: real time    0.1041
    MIXING:  cpu time    0.0036: real time    0.0036
    --------------------------------------------
      LOOP:  cpu time    2.1285: real time    2.1335

 eigenvalue-minimisations  :  1216
 total energy-change (2. order) :-0.1549127E+02  (-0.2481363E+02)
 number of electron     366.9999819 magnetization      17.7927888
 augmentation part      117.9914620 magnetization      15.4717530

 Broyden mixing:
  rms(total) = 0.94000E+01    rms(broyden)= 0.93995E+01
  rms(prec ) = 0.12408E+02
  weight for this iteration     100.00

 eigenvalues of (default mixing * dielectric matrix)
  average eigenvalue GAMMA=   0.4329
  0.6190  0.6190  0.3749  0.1187

 Free energy of the ion-electron system (eV)
  ---------------------------------------------------
  alpha Z        PSCENC =      1121.19354838
  Ewald energy   TEWEN  =    -20553.09298325
  -Hartree energ DENC   =    -11860.63020633
  -exchange      EXHF   =         0.00000000
  -V(xc)+E(xc)   XCENC  =      1477.41076752
  PAW double counting   =     32920.04198403   -34140.86713682
  entropy T*S    EENTRO =        -0.03442108
  eigenvalues    EBANDS =     -1340.19160328
  atomic energy  EATOM  =     32018.75905649
  Solvation  Ediel_sol  =         0.00000000
  ---------------------------------------------------
  free energy    TOTEN  =      -357.41099432 eV

  energy without entropy =     -357.37657324  energy(sigma->0) =     -357.39378378


--------------------------------------------------------------------------------------------------------




--------------------------------------- Iteration      1(  10)  ---------------------------------------


    POTLOK:  cpu time    0.1415: real time    0.1419
    SETDIJ:  cpu time    0.0216: real time    0.0216
     EDDAV:  cpu time    1.9954: real time    2.0002
    CHARGE:  cpu time    0.1043: real time    0.1045
    MIXING:  cpu time    0.0036: real time    0.0036
    --------------------------------------------
      LOOP:  cpu time    2.2664: real time    2.2718

 eigenvalue-minimisations  :  1328
 total energy-change (2. order) : 0.1605202E+02  (-0.1508550E+02)
 number of electron     366.9999832 magnetization      15.7222583
 augmentation part      119.6337301 magnetization      14.5668526

 Broyden mixing:
  rms(total) = 0.49925E+01    rms(broyden)= 0.49918E+01
  rms(prec ) = 0.60640E+01
  weight for this iteration     100.00

 eigenvalues of (default mixing * dielectric matrix)
  average eigenvalue GAMMA=   0.3924
  0.6637  0.6113  0.3585  0.1642  0.1642

 Free energy of the ion-electron system (eV)
  ---------------------------------------------------
  alpha Z        PSCENC =      1121.19354838
  Ewald energy   TEWEN  =    -20553.09298325
  -Hartree energ DENC   =    -11844.74524464
  -exchange      EXHF   =         0.00000000
  -V(xc)+E(xc)   XCENC  =      1476.58211782
  PAW double counting   =     33429.02925638   -34655.94123592
  entropy T*S    EENTRO =        -0.00411310
  eigenvalues    EBANDS =     -1333.13937594
  atomic energy  EATOM  =     32018.75905649
  Solvation  Ediel_sol  =         0.00000000
  ---------------------------------------------------
  free energy    TOTEN  =      -341.35897378 eV

  energy without entropy =     -341.35486068  energy(sigma->0) =     -341.35691723


--------------------------------------------------------------------------------------------------------




--------------------------------------- Iteration      1(  11)  ---------------------------------------


    POTLOK:  cpu time    0.1420: real time    0.1423
    SETDIJ:  cpu time    0.0216: real time    0.0217
     EDDAV:  cpu time    1.8453: real time    1.8497
    CHARGE:  cpu time    0.0990: real time    0.0992
    MIXING:  cpu time    0.0038: real time    0.0038
    --------------------------------------------
      LOOP:  cpu time    2.1117: real time    2.1167

 eigenvalue-minimisations  :  1264
 total energy-change (2. order) : 0.1088680E+02  (-0.2270577E+01)
 number of electron     366.9999825 magnetization      11.5395452
 augmentation part      120.3579034 magnetization      10.2102858

 Broyden mixing:
  rms(total) = 0.23877E+01    rms(broyden)= 0.23870E+01
  rms(prec ) = 0.29393E+01
  weight for this iteration     100.00

 eigenvalues of (default mixing * dielectric matrix)
  average eigenvalue GAMMA=   0.4789
  1.1457  0.5543  0.3792  0.3792  0.2946  0.1204

 Free energy of the ion-electron system (eV)
  ---------------------------------------------------
  alpha Z        PSCENC =      1121.19354838
  Ewald energy   TEWEN  =    -20553.09298325
  -Hartree energ DENC   =    -11845.10778384
  -exchange      EXHF   =         0.00000000
  -V(xc)+E(xc)   XCENC  =      1476.40592412
  PAW double counting   =     33738.74802588   -34971.77137902
  entropy T*S    EENTRO =        -0.04211673
  eigenvalues    EBANDS =     -1315.56446190
  atomic energy  EATOM  =     32018.75905649
  Solvation  Ediel_sol  =         0.00000000
  ---------------------------------------------------
  free energy    TOTEN  =      -330.47216986 eV

  energy without entropy =     -330.43005313  energy(sigma->0) =     -330.45111150


--------------------------------------------------------------------------------------------------------




--------------------------------------- Iteration      1(  12)  ---------------------------------------


    POTLOK:  cpu time    0.1390: real time    0.1393
    SETDIJ:  cpu time    0.0216: real time    0.0217
     EDDAV:  cpu time    1.8620: real time    1.8664
    CHARGE:  cpu time    0.1038: real time    0.1040
    MIXING:  cpu time    0.0040: real time    0.0040
    --------------------------------------------
      LOOP:  cpu time    2.1304: real time    2.1354

 eigenvalue-minimisations  :  1312
 total energy-change (2. order) :-0.4015011E+00  (-0.1797622E+01)
 number of electron     366.9999824 magnetization       9.1816927
 augmentation part      120.2388732 magnetization       8.1105161

 Broyden mixing:
  rms(total) = 0.26760E+01    rms(broyden)= 0.26754E+01
  rms(prec ) = 0.33633E+01
  weight for this iteration     100.00

 eigenvalues of (default mixing * dielectric matrix)
  average eigenvalue GAMMA=   0.4968
  1.4057  0.4940  0.4940  0.3699  0.3699  0.2228  0.1217

 Free energy of the ion-electron system (eV)
  ---------------------------------------------------
  alpha Z        PSCENC =      1121.19354838
  Ewald energy   TEWEN  =    -20553.09298325
  -Hartree energ DENC   =    -11855.13230401
  -exchange      EXHF   =         0.00000000
  -V(xc)+E(xc)   XCENC  =      1476.58925631
  PAW double counting   =     34289.92864374   -35528.42862006
  entropy T*S    EENTRO =        -0.04480767
  eigenvalues    EBANDS =     -1300.64546093
  atomic energy  EATOM  =     32018.75905649
  Solvation  Ediel_sol  =         0.00000000
  ---------------------------------------------------
  free energy    TOTEN  =      -330.87367099 eV

  energy without entropy =     -330.82886331  energy(sigma->0) =     -330.85126715


--------------------------------------------------------------------------------------------------------




--------------------------------------- Iteration      1(  13)  ---------------------------------------


    POTLOK:  cpu time    0.1421: real time    0.1424
    SETDIJ:  cpu time    0.0218: real time    0.0218
     EDDAV:  cpu time    1.9631: real time    1.9677
    CHARGE:  cpu time    0.1029: real time    0.1032
    MIXING:  cpu time    0.0043: real time    0.0043
    --------------------------------------------
      LOOP:  cpu time    2.2341: real time    2.2394

 eigenvalue-minimisations  :  1296
 total energy-change (2. order) : 0.9042758E+00  (-0.2083491E+01)
 number of electron     366.9999824 magnetization       4.8589661
 augmentation part      120.5836450 magnetization       3.7116729

 Broyden mixing:
  rms(total) = 0.17551E+01    rms(broyden)= 0.17542E+01
  rms(prec ) = 0.21554E+01
  weight for this iteration     100.00

 eigenvalues of (default mixing * dielectric matrix)
  average eigenvalue GAMMA=   0.5232
  1.6909  0.5790  0.5790  0.3923  0.3923  0.2504  0.1215  0.1807

 Free energy of the ion-electron system (eV)
  ---------------------------------------------------
  alpha Z        PSCENC =      1121.19354838
  Ewald energy   TEWEN  =    -20553.09298325
  -Hartree energ DENC   =    -11854.07102489
  -exchange      EXHF   =         0.00000000
  -V(xc)+E(xc)   XCENC  =      1476.54661333
  PAW double counting   =     34631.00448934   -35872.32740646
  entropy T*S    EENTRO =        -0.02770366
  eigenvalues    EBANDS =     -1297.95398448
  atomic energy  EATOM  =     32018.75905649
  Solvation  Ediel_sol  =         0.00000000
  ---------------------------------------------------
  free energy    TOTEN  =      -329.96939518 eV

  energy without entropy =     -329.94169152  energy(sigma->0) =     -329.95554335


--------------------------------------------------------------------------------------------------------




--------------------------------------- Iteration      1(  14)  ---------------------------------------


    POTLOK:  cpu time    0.1415: real time    0.1418
    SETDIJ:  cpu time    0.0217: real time    0.0217
     EDDAV:  cpu time    2.0215: real time    2.0263
    CHARGE:  cpu time    0.1033: real time    0.1036
    MIXING:  cpu time    0.0045: real time    0.0045
    --------------------------------------------
      LOOP:  cpu time    2.2925: real time    2.2980

 eigenvalue-minimisations  :  1344
 total energy-change (2. order) :-0.1809342E+00  (-0.1069993E+01)
 number of electron     366.9999823 magnetization       3.4053569
 augmentation part      121.2667479 magnetization       2.8641698

 Broyden mixing:
  rms(total) = 0.13805E+01    rms(broyden)= 0.13800E+01
  rms(prec ) = 0.17184E+01
  weight for this iteration     100.00

 eigenvalues of (default mixing * dielectric matrix)
  average eigenvalue GAMMA=   0.5398
  1.8472  0.5993  0.5993  0.4215  0.4215  0.4332  0.2517  0.1213  0.1631

 Free energy of the ion-electron system (eV)
  ---------------------------------------------------
  alpha Z        PSCENC =      1121.19354838
  Ewald energy   TEWEN  =    -20553.09298325
  -Hartree energ DENC   =    -11850.47573897
  -exchange      EXHF   =         0.00000000
  -V(xc)+E(xc)   XCENC  =      1476.53366587
  PAW double counting   =     35280.92572352   -36527.67199363
  entropy T*S    EENTRO =        -0.03163201
  eigenvalues    EBANDS =     -1296.28997581
  atomic energy  EATOM  =     32018.75905649
  Solvation  Ediel_sol  =         0.00000000
  ---------------------------------------------------
  free energy    TOTEN  =      -330.15032940 eV

  energy without entropy =     -330.11869739  energy(sigma->0) =     -330.13451340


--------------------------------------------------------------------------------------------------------




--------------------------------------- Iteration      1(  15)  ---------------------------------------


    POTLOK:  cpu time    0.1412: real time    0.1415
    SETDIJ:  cpu time    0.0218: real time    0.0219
     EDDAV:  cpu time    1.8024: real time    1.8066
    CHARGE:  cpu time    0.1038: real time    0.1041
    MIXING:  cpu time    0.0047: real time    0.0047
    --------------------------------------------
      LOOP:  cpu time    2.0739: real time    2.0788

 eigenvalue-minimisations  :  1168
 total energy-change (2. order) :-0.1937240E+00  (-0.1045290E+01)
 number of electron     366.9999822 magnetization       2.1303324
 augmentation part      121.2495934 magnetization       1.6036844

 Broyden mixing:
  rms(total) = 0.10756E+01    rms(broyden)= 0.10750E+01
  rms(prec ) = 0.13866E+01
  weight for this iteration     100.00

 eigenvalues of (default mixing * dielectric matrix)
  average eigenvalue GAMMA=   0.5495
  1.9886  0.6887  0.6887  0.5526  0.4208  0.4208  0.2526  0.2042  0.1213  0.1566

 Free energy of the ion-electron system (eV)
  ---------------------------------------------------
  alpha Z        PSCENC =      1121.19354838
  Ewald energy   TEWEN  =    -20553.09298325
  -Hartree energ DENC   =    -11852.88774390
  -exchange      EXHF   =         0.00000000
  -V(xc)+E(xc)   XCENC  =      1476.58168005
  PAW double counting   =     35480.64068774   -36729.71642512
  entropy T*S    EENTRO =        -0.03561101
  eigenvalues    EBANDS =     -1291.78626279
  atomic energy  EATOM  =     32018.75905649
  Solvation  Ediel_sol  =         0.00000000
  ---------------------------------------------------
  free energy    TOTEN  =      -330.34405341 eV

  energy without entropy =     -330.30844239  energy(sigma->0) =     -330.32624790


--------------------------------------------------------------------------------------------------------




--------------------------------------- Iteration      1(  16)  ---------------------------------------


    POTLOK:  cpu time    0.1416: real time    0.1420
    SETDIJ:  cpu time    0.0218: real time    0.0218
     EDDAV:  cpu time    1.8679: real time    1.8723
    CHARGE:  cpu time    0.1075: real time    0.1078
    MIXING:  cpu time    0.0050: real time    0.0050
    --------------------------------------------
      LOOP:  cpu time    2.1437: real time    2.1488

 eigenvalue-minimisations  :  1184
 total energy-change (2. order) : 0.2310762E+00  (-0.4174032E+00)
 number of electron     366.9999824 magnetization       1.7723883
 augmentation part      121.1254115 magnetization       1.2427206

 Broyden mixing:
  rms(total) = 0.87801E+00    rms(broyden)= 0.87761E+00
  rms(prec ) = 0.10954E+01
  weight for this iteration     100.00

 eigenvalues of (default mixing * dielectric matrix)
  average eigenvalue GAMMA=   0.5450
  2.0518  0.7684  0.7684  0.4776  0.4776  0.3742  0.3742  0.2603  0.1213  0.1739
  0.1477

 Free energy of the ion-electron system (eV)
  ---------------------------------------------------
  alpha Z        PSCENC =      1121.19354838
  Ewald energy   TEWEN  =    -20553.09298325
  -Hartree energ DENC   =    -11855.78690318
  -exchange      EXHF   =         0.00000000
  -V(xc)+E(xc)   XCENC  =      1476.56914084
  PAW double counting   =     35646.24726813   -36897.68310835
  entropy T*S    EENTRO =        -0.01469671
  eigenvalues    EBANDS =     -1286.30429955
  atomic energy  EATOM  =     32018.75905649
  Solvation  Ediel_sol  =         0.00000000
  ---------------------------------------------------
  free energy    TOTEN  =      -330.11297720 eV

  energy without entropy =     -330.09828048  energy(sigma->0) =     -330.10562884


--------------------------------------------------------------------------------------------------------




--------------------------------------- Iteration      1(  17)  ---------------------------------------


    POTLOK:  cpu time    0.1431: real time    0.1435
    SETDIJ:  cpu time    0.0216: real time    0.0217
     EDDAV:  cpu time    2.0400: real time    2.0449
    CHARGE:  cpu time    0.1043: real time    0.1046
    MIXING:  cpu time    0.0051: real time    0.0051
    --------------------------------------------
      LOOP:  cpu time    2.3142: real time    2.3197

 eigenvalue-minimisations  :  1248
 total energy-change (2. order) :-0.1725565E-01  (-0.4769007E+00)
 number of electron     366.9999823 magnetization       1.1475935
 augmentation part      121.0938408 magnetization       0.9629851

 Broyden mixing:
  rms(total) = 0.76664E+00    rms(broyden)= 0.76612E+00
  rms(prec ) = 0.10137E+01
  weight for this iteration     100.00

 eigenvalues of (default mixing * dielectric matrix)
  average eigenvalue GAMMA=   0.5669
  2.1775  0.9099  0.9099  0.5814  0.5814  0.3929  0.3929  0.2565  0.1911  0.1605
  0.1213  0.1278

 Free energy of the ion-electron system (eV)
  ---------------------------------------------------
  alpha Z        PSCENC =      1121.19354838
  Ewald energy   TEWEN  =    -20553.09298325
  -Hartree energ DENC   =    -11855.72502715
  -exchange      EXHF   =         0.00000000
  -V(xc)+E(xc)   XCENC  =      1476.51043478
  PAW double counting   =     35700.32827371   -36952.23806665
  entropy T*S    EENTRO =        -0.02970818
  eigenvalues    EBANDS =     -1285.83576098
  atomic energy  EATOM  =     32018.75905649
  Solvation  Ediel_sol  =         0.00000000
  ---------------------------------------------------
  free energy    TOTEN  =      -330.13023285 eV

  energy without entropy =     -330.10052466  energy(sigma->0) =     -330.11537876


--------------------------------------------------------------------------------------------------------




--------------------------------------- Iteration      1(  18)  ---------------------------------------


    POTLOK:  cpu time    0.1424: real time    0.1427
    SETDIJ:  cpu time    0.0217: real time    0.0218
     EDDAV:  cpu time    2.1994: real time    2.2047
    CHARGE:  cpu time    0.1300: real time    0.1303
    MIXING:  cpu time    0.0062: real time    0.0063
    --------------------------------------------
      LOOP:  cpu time    2.4997: real time    2.5057

 eigenvalue-minimisations  :  1232
 total energy-change (2. order) : 0.2846126E-01  (-0.3438012E+00)
 number of electron     366.9999824 magnetization       0.9484044
 augmentation part      121.0894459 magnetization       0.5012141

 Broyden mixing:
  rms(total) = 0.71097E+00    rms(broyden)= 0.71046E+00
  rms(prec ) = 0.95286E+00
  weight for this iteration     100.00

 eigenvalues of (default mixing * dielectric matrix)
  average eigenvalue GAMMA=   0.5516
  2.2101  0.9761  0.9761  0.5882  0.5882  0.3939  0.3939  0.2462  0.2462  0.1806
  0.1214  0.1488  0.1017

 Free energy of the ion-electron system (eV)
  ---------------------------------------------------
  alpha Z        PSCENC =      1121.19354838
  Ewald energy   TEWEN  =    -20553.09298325
  -Hartree energ DENC   =    -11854.94005473
  -exchange      EXHF   =         0.00000000
  -V(xc)+E(xc)   XCENC  =      1476.39518544
  PAW double counting   =     35778.34558387   -37030.43401393
  entropy T*S    EENTRO =        -0.01484533
  eigenvalues    EBANDS =     -1286.31324856
  atomic energy  EATOM  =     32018.75905649
  Solvation  Ediel_sol  =         0.00000000
  ---------------------------------------------------
  free energy    TOTEN  =      -330.10177159 eV

  energy without entropy =     -330.08692626  energy(sigma->0) =     -330.09434893


--------------------------------------------------------------------------------------------------------




--------------------------------------- Iteration      1(  19)  ---------------------------------------


    POTLOK:  cpu time    0.1662: real time    0.1667
    SETDIJ:  cpu time    0.0311: real time    0.0312
     EDDAV:  cpu time    1.8413: real time    1.8457
    CHARGE:  cpu time    0.1047: real time    0.1049
    MIXING:  cpu time    0.0056: real time    0.0056
    --------------------------------------------
      LOOP:  cpu time    2.1488: real time    2.1540

 eigenvalue-minimisations  :  1264
 total energy-change (2. order) : 0.1139261E+00  (-0.1049034E+00)
 number of electron     366.9999823 magnetization       0.8833843
 augmentation part      121.1077135 magnetization       0.5541794

 Broyden mixing:
  rms(total) = 0.32643E+00    rms(broyden)= 0.32620E+00
  rms(prec ) = 0.40425E+00
  weight for this iteration     100.00

 eigenvalues of (default mixing * dielectric matrix)
  average eigenvalue GAMMA=   0.5524
  2.1868  1.0673  1.0673  0.6083  0.6083  0.4016  0.4016  0.3945  0.2546  0.2018
  0.1564  0.1564  0.1213  0.1080

 Free energy of the ion-electron system (eV)
  ---------------------------------------------------
  alpha Z        PSCENC =      1121.19354838
  Ewald energy   TEWEN  =    -20553.09298325
  -Hartree energ DENC   =    -11854.60296260
  -exchange      EXHF   =         0.00000000
  -V(xc)+E(xc)   XCENC  =      1476.35123311
  PAW double counting   =     35809.26476574   -37061.23970085
  entropy T*S    EENTRO =        -0.03261606
  eigenvalues    EBANDS =     -1286.58818644
  atomic energy  EATOM  =     32018.75905649
  Solvation  Ediel_sol  =         0.00000000
  ---------------------------------------------------
  free energy    TOTEN  =      -329.98784547 eV

  energy without entropy =     -329.95522941  energy(sigma->0) =     -329.97153744


--------------------------------------------------------------------------------------------------------




--------------------------------------- Iteration      1(  20)  ---------------------------------------


    POTLOK:  cpu time    0.1558: real time    0.1561
    SETDIJ:  cpu time    0.0336: real time    0.0337
     EDDAV:  cpu time    2.2363: real time    2.2416
    CHARGE:  cpu time    0.1043: real time    0.1046
    MIXING:  cpu time    0.0057: real time    0.0057
    --------------------------------------------
      LOOP:  cpu time    2.5357: real time    2.5417

 eigenvalue-minimisations  :  1280
 total energy-change (2. order) : 0.7429391E-03  (-0.3606540E-01)
 number of electron     366.9999824 magnetization       0.8587936
 augmentation part      121.1233072 magnetization       0.5029144

 Broyden mixing:
  rms(total) = 0.40100E+00    rms(broyden)= 0.40091E+00
  rms(prec ) = 0.49519E+00
  weight for this iteration     100.00

 eigenvalues of (default mixing * dielectric matrix)
  average eigenvalue GAMMA=   0.5484
  2.1899  1.1443  1.1443  0.6345  0.6345  0.4449  0.4057  0.4057  0.2552  0.2552
  0.1816  0.1641  0.1213  0.1424  0.1018

 Free energy of the ion-electron system (eV)
  ---------------------------------------------------
  alpha Z        PSCENC =      1121.19354838
  Ewald energy   TEWEN  =    -20553.09298325
  -Hartree energ DENC   =    -11854.56098539
  -exchange      EXHF   =         0.00000000
  -V(xc)+E(xc)   XCENC  =      1476.32873755
  PAW double counting   =     35821.31160169   -37072.76014617
  entropy T*S    EENTRO =        -0.02610586
  eigenvalues    EBANDS =     -1287.13982598
  atomic energy  EATOM  =     32018.75905649
  Solvation  Ediel_sol  =         0.00000000
  ---------------------------------------------------
  free energy    TOTEN  =      -329.98710253 eV

  energy without entropy =     -329.96099667  energy(sigma->0) =     -329.97404960


--------------------------------------------------------------------------------------------------------




--------------------------------------- Iteration      1(  21)  ---------------------------------------


    POTLOK:  cpu time    0.1422: real time    0.1426
    SETDIJ:  cpu time    0.0355: real time    0.0356
     EDDAV:  cpu time    2.4558: real time    2.4616
    CHARGE:  cpu time    0.1342: real time    0.1345
    MIXING:  cpu time    0.0070: real time    0.0070
    --------------------------------------------
      LOOP:  cpu time    2.7747: real time    2.7813

 eigenvalue-minimisations  :  1296
 total energy-change (2. order) : 0.2013915E-01  (-0.2936777E-01)
 number of electron     366.9999823 magnetization       0.8730417
 augmentation part      121.1144670 magnetization       0.5458298

 Broyden mixing:
  rms(total) = 0.24768E+00    rms(broyden)= 0.24759E+00
  rms(prec ) = 0.30287E+00
  weight for this iteration     100.00

 eigenvalues of (default mixing * dielectric matrix)
  average eigenvalue GAMMA=   0.5586
  2.2140  1.2151  1.2151  0.6935  0.6935  0.4828  0.4828  0.4001  0.4001  0.2585
  0.2030  0.1777  0.1481  0.1213  0.1290  0.1035

 Free energy of the ion-electron system (eV)
  ---------------------------------------------------
  alpha Z        PSCENC =      1121.19354838
  Ewald energy   TEWEN  =    -20553.09298325
  -Hartree energ DENC   =    -11855.12181266
  -exchange      EXHF   =         0.00000000
  -V(xc)+E(xc)   XCENC  =      1476.33569844
  PAW double counting   =     35829.71355323   -37080.96138290
  entropy T*S    EENTRO =        -0.02505054
  eigenvalues    EBANDS =     -1286.76759059
  atomic energy  EATOM  =     32018.75905649
  Solvation  Ediel_sol  =         0.00000000
  ---------------------------------------------------
  free energy    TOTEN  =      -329.96696338 eV

  energy without entropy =     -329.94191284  energy(sigma->0) =     -329.95443811


--------------------------------------------------------------------------------------------------------




--------------------------------------- Iteration      1(  22)  ---------------------------------------


    POTLOK:  cpu time    0.1651: real time    0.1654
    SETDIJ:  cpu time    0.0314: real time    0.0315
     EDDAV:  cpu time    2.1876: real time    2.1928
    CHARGE:  cpu time    0.1382: real time    0.1385
    MIXING:  cpu time    0.0074: real time    0.0074
    --------------------------------------------
      LOOP:  cpu time    2.5296: real time    2.5356

 eigenvalue-minimisations  :  1216
 total energy-change (2. order) : 0.4608577E-03  (-0.1124909E-01)
 number of electron     366.9999823 magnetization       0.9061755
 augmentation part      121.1151184 magnetization       0.5886798

 Broyden mixing:
  rms(total) = 0.21548E+00    rms(broyden)= 0.21544E+00
  rms(prec ) = 0.27113E+00
  weight for this iteration     100.00

 eigenvalues of (default mixing * dielectric matrix)
  average eigenvalue GAMMA=   0.5627
  2.2383  1.4878  1.0503  0.7282  0.7282  0.5871  0.5871  0.3969  0.3969  0.2480
  0.2480  0.1981  0.1654  0.1513  0.1213  0.1306  0.1026

 Free energy of the ion-electron system (eV)
  ---------------------------------------------------
  alpha Z        PSCENC =      1121.19354838
  Ewald energy   TEWEN  =    -20553.09298325
  -Hartree energ DENC   =    -11855.86973341
  -exchange      EXHF   =         0.00000000
  -V(xc)+E(xc)   XCENC  =      1476.36842460
  PAW double counting   =     35835.12825946   -37086.10267646
  entropy T*S    EENTRO =        -0.02753894
  eigenvalues    EBANDS =     -1286.32285940
  atomic energy  EATOM  =     32018.75905649
  Solvation  Ediel_sol  =         0.00000000
  ---------------------------------------------------
  free energy    TOTEN  =      -329.96650253 eV

  energy without entropy =     -329.93896358  energy(sigma->0) =     -329.95273305


--------------------------------------------------------------------------------------------------------




--------------------------------------- Iteration      1(  23)  ---------------------------------------


    POTLOK:  cpu time    0.1423: real time    0.1427
    SETDIJ:  cpu time    0.0207: real time    0.0207
     EDDAV:  cpu time    1.9928: real time    1.9975
    CHARGE:  cpu time    0.1056: real time    0.1059
    MIXING:  cpu time    0.0064: real time    0.0064
    --------------------------------------------
      LOOP:  cpu time    2.2677: real time    2.2731

 eigenvalue-minimisations  :  1248
 total energy-change (2. order) : 0.7276373E-02  (-0.8852563E-02)
 number of electron     366.9999823 magnetization       0.9304953
 augmentation part      121.1240692 magnetization       0.6250202

 Broyden mixing:
  rms(total) = 0.16281E+00    rms(broyden)= 0.16277E+00
  rms(prec ) = 0.19882E+00
  weight for this iteration     100.00

 eigenvalues of (default mixing * dielectric matrix)
  average eigenvalue GAMMA=   0.5650
  2.2574  1.4370  1.0787  0.7940  0.7940  0.6426  0.6426  0.4006  0.4006  0.4158
  0.2578  0.2188  0.1784  0.1586  0.1466  0.1212  0.1223  0.1026

 Free energy of the ion-electron system (eV)
  ---------------------------------------------------
  alpha Z        PSCENC =      1121.19354838
  Ewald energy   TEWEN  =    -20553.09298325
  -Hartree energ DENC   =    -11856.61098827
  -exchange      EXHF   =         0.00000000
  -V(xc)+E(xc)   XCENC  =      1476.40844205
  PAW double counting   =     35839.02604456   -37089.63753258
  entropy T*S    EENTRO =        -0.02405352
  eigenvalues    EBANDS =     -1285.98076002
  atomic energy  EATOM  =     32018.75905649
  Solvation  Ediel_sol  =         0.00000000
  ---------------------------------------------------
  free energy    TOTEN  =      -329.95922615 eV

  energy without entropy =     -329.93517263  energy(sigma->0) =     -329.94719939


--------------------------------------------------------------------------------------------------------




--------------------------------------- Iteration      1(  24)  ---------------------------------------


    POTLOK:  cpu time    0.1645: real time    0.1648
    SETDIJ:  cpu time    0.0362: real time    0.0363
     EDDAV:  cpu time    2.1754: real time    2.1806
    CHARGE:  cpu time    0.1338: real time    0.1341
    MIXING:  cpu time    0.0080: real time    0.0080
    --------------------------------------------
      LOOP:  cpu time    2.5179: real time    2.5239

 eigenvalue-minimisations  :  1296
 total energy-change (2. order) : 0.2563128E-02  (-0.2356207E-02)
 number of electron     366.9999823 magnetization       0.9406402
 augmentation part      121.1294611 magnetization       0.6369391

 Broyden mixing:
  rms(total) = 0.12363E+00    rms(broyden)= 0.12361E+00
  rms(prec ) = 0.15246E+00
  weight for this iteration     100.00

 eigenvalues of (default mixing * dielectric matrix)
  average eigenvalue GAMMA=   0.5678
  2.2912  1.3155  1.3155  0.8939  0.8939  0.6337  0.6337  0.4640  0.4024  0.4024
  0.2527  0.2527  0.1906  0.1906  0.1565  0.1497  0.1213  0.1254  0.1027

 Free energy of the ion-electron system (eV)
  ---------------------------------------------------
  alpha Z        PSCENC =      1121.19354838
  Ewald energy   TEWEN  =    -20553.09298325
  -Hartree energ DENC   =    -11857.09200912
  -exchange      EXHF   =         0.00000000
  -V(xc)+E(xc)   XCENC  =      1476.43588725
  PAW double counting   =     35840.48549479   -37090.90056126
  entropy T*S    EENTRO =        -0.02567863
  eigenvalues    EBANDS =     -1285.71941768
  atomic energy  EATOM  =     32018.75905649
  Solvation  Ediel_sol  =         0.00000000
  ---------------------------------------------------
  free energy    TOTEN  =      -329.95666302 eV

  energy without entropy =     -329.93098440  energy(sigma->0) =     -329.94382371


--------------------------------------------------------------------------------------------------------




--------------------------------------- Iteration      1(  25)  ---------------------------------------


    POTLOK:  cpu time    0.1655: real time    0.1659
    SETDIJ:  cpu time    0.0326: real time    0.0326
     EDDAV:  cpu time    2.2901: real time    2.2956
    CHARGE:  cpu time    0.1281: real time    0.1284
    MIXING:  cpu time    0.0090: real time    0.0090
    --------------------------------------------
      LOOP:  cpu time    2.6253: real time    2.6315

 eigenvalue-minimisations  :  1360
 total energy-change (2. order) : 0.1464092E-02  (-0.1462607E-02)
 number of electron     366.9999823 magnetization       0.9709802
 augmentation part      121.1252091 magnetization       0.6671284

 Broyden mixing:
  rms(total) = 0.10614E+00    rms(broyden)= 0.10612E+00
  rms(prec ) = 0.12810E+00
  weight for this iteration     100.00

 eigenvalues of (default mixing * dielectric matrix)
  average eigenvalue GAMMA=   0.5709
  2.2033  1.5061  1.5061  0.8737  0.8737  0.6279  0.6279  0.4490  0.4490  0.4021
  0.4021  0.2555  0.2241  0.2001  0.1736  0.1520  0.1451  0.1213  0.1228  0.1026

 Free energy of the ion-electron system (eV)
  ---------------------------------------------------
  alpha Z        PSCENC =      1121.19354838
  Ewald energy   TEWEN  =    -20553.09298325
  -Hartree energ DENC   =    -11857.63745734
  -exchange      EXHF   =         0.00000000
  -V(xc)+E(xc)   XCENC  =      1476.46140823
  PAW double counting   =     35843.97028921   -37094.28363306
  entropy T*S    EENTRO =        -0.02479090
  eigenvalues    EBANDS =     -1285.30063671
  atomic energy  EATOM  =     32018.75905649
  Solvation  Ediel_sol  =         0.00000000
  ---------------------------------------------------
  free energy    TOTEN  =      -329.95519893 eV

  energy without entropy =     -329.93040804  energy(sigma->0) =     -329.94280348


--------------------------------------------------------------------------------------------------------




--------------------------------------- Iteration      1(  26)  ---------------------------------------


    POTLOK:  cpu time    0.1807: real time    0.1812
    SETDIJ:  cpu time    0.0211: real time    0.0212
     EDDAV:  cpu time    2.3883: real time    2.3940
    CHARGE:  cpu time    0.1055: real time    0.1057
    MIXING:  cpu time    0.0070: real time    0.0070
    --------------------------------------------
      LOOP:  cpu time    2.7027: real time    2.7091

 eigenvalue-minimisations  :  1424
 total energy-change (2. order) : 0.1610286E-03  (-0.8105911E-03)
 number of electron     366.9999823 magnetization       0.9745437
 augmentation part      121.1236859 magnetization       0.6705999

 Broyden mixing:
  rms(total) = 0.99478E-01    rms(broyden)= 0.99464E-01
  rms(prec ) = 0.11756E+00
  weight for this iteration     100.00

 eigenvalues of (default mixing * dielectric matrix)
  average eigenvalue GAMMA=   0.5501
  2.2009  1.5185  1.5185  0.8652  0.8652  0.6342  0.6342  0.4021  0.4021  0.4461
  0.4461  0.2562  0.2229  0.1978  0.1745  0.1523  0.1458  0.1213  0.1232  0.1026
  0.1214

 Free energy of the ion-electron system (eV)
  ---------------------------------------------------
  alpha Z        PSCENC =      1121.19354838
  Ewald energy   TEWEN  =    -20553.09298325
  -Hartree energ DENC   =    -11857.85720311
  -exchange      EXHF   =         0.00000000
  -V(xc)+E(xc)   XCENC  =      1476.46887766
  PAW double counting   =     35842.28319624   -37092.48422821
  entropy T*S    EENTRO =        -0.02494791
  eigenvalues    EBANDS =     -1285.20035422
  atomic energy  EATOM  =     32018.75905649
  Solvation  Ediel_sol  =         0.00000000
  ---------------------------------------------------
  free energy    TOTEN  =      -329.95503790 eV

  energy without entropy =     -329.93009000  energy(sigma->0) =     -329.94256395


--------------------------------------------------------------------------------------------------------




--------------------------------------- Iteration      1(  27)  ---------------------------------------


    POTLOK:  cpu time    0.1434: real time    0.1438
    SETDIJ:  cpu time    0.0209: real time    0.0210
     EDDAV:  cpu time    2.3715: real time    2.3772
    CHARGE:  cpu time    0.1286: real time    0.1289
    MIXING:  cpu time    0.0078: real time    0.0079
    --------------------------------------------
      LOOP:  cpu time    2.6724: real time    2.6787

 eigenvalue-minimisations  :  1328
 total energy-change (2. order) : 0.8852748E-04  (-0.1699718E-03)
 number of electron     366.9999823 magnetization       0.9837712
 augmentation part      121.1221717 magnetization       0.6797757

 Broyden mixing:
  rms(total) = 0.10015E+00    rms(broyden)= 0.10014E+00
  rms(prec ) = 0.11627E+00
  weight for this iteration     100.00

 eigenvalues of (default mixing * dielectric matrix)
  average eigenvalue GAMMA=   0.5874
  2.0007  2.0007  1.7169  0.6573  0.8459  0.8459  0.6558  0.6558  0.5624  0.5109
  0.4003  0.4003  0.2552  0.2327  0.2027  0.1774  0.1026  0.1213  0.1237  0.1592
  0.1499  0.1442

 Free energy of the ion-electron system (eV)
  ---------------------------------------------------
  alpha Z        PSCENC =      1121.19354838
  Ewald energy   TEWEN  =    -20553.09298325
  -Hartree energ DENC   =    -11857.89712223
  -exchange      EXHF   =         0.00000000
  -V(xc)+E(xc)   XCENC  =      1476.46890185
  PAW double counting   =     35842.18944372   -37092.38626469
  entropy T*S    EENTRO =        -0.02475252
  eigenvalues    EBANDS =     -1285.16477714
  atomic energy  EATOM  =     32018.75905649
  Solvation  Ediel_sol  =         0.00000000
  ---------------------------------------------------
  free energy    TOTEN  =      -329.95494938 eV

  energy without entropy =     -329.93019686  energy(sigma->0) =     -329.94257312


--------------------------------------------------------------------------------------------------------




--------------------------------------- Iteration      1(  28)  ---------------------------------------


    POTLOK:  cpu time    0.1546: real time    0.1549
    SETDIJ:  cpu time    0.0279: real time    0.0280
[...]
      direct lattice vectors                 reciprocal lattice vectors
    -0.000005992  5.555357124 -0.000000054     0.000000525  0.180006429 -0.000001247
    -3.456375354  0.000076534  9.595010298    -0.001804934 -0.000000001  0.103570652
     9.771575579 -0.000027347  0.170289984     0.101699205  0.000000110  0.036634732

  length of vectors
     5.555357124 10.198566233  9.773059295     0.180006429  0.103586378  0.108096401


 FORCES acting on ions
    electron-ion (+dipol)            ewald-force                    non-local-force                 convergence-correction
 -----------------------------------------------------------------------------------------------
   -.126E+01 0.906E+00 0.257E+01   0.114E+01 -.899E+00 -.243E+01   0.105E+00 -.663E-02 -.159E+00   0.450E-02 0.470E-03 0.127E-01
   -.468E+01 -.124E+01 -.970E+00   0.456E+01 0.127E+01 0.993E+00   0.118E+00 -.996E-02 -.160E-01   -.199E-02 0.214E-02 -.864E-02
   0.634E+00 -.900E+00 0.693E-01   -.611E+00 0.896E+00 -.124E+00   -.236E-01 0.452E-02 0.388E-01   0.438E-02 -.454E-03 0.126E-01
   0.236E+00 0.341E+00 -.696E+00   -.140E+00 -.425E+00 0.633E+00   -.933E-01 0.795E-01 0.660E-01   -.530E-02 -.114E-03 0.729E-03
   0.370E+01 0.749E+00 0.277E+00   -.363E+01 -.716E+00 -.280E+00   -.700E-01 -.499E-01 0.600E-02   0.104E-02 0.176E-02 -.499E-02
   0.530E+02 0.952E+01 0.894E+01   -.539E+02 -.968E+01 -.945E+01   0.931E+00 0.169E+00 0.521E+00   -.306E-02 -.263E-02 0.392E-02
   -.555E+02 0.354E-01 0.680E+02   0.567E+02 -.107E+00 -.689E+02   -.115E+01 0.748E-01 0.868E+00   0.197E-01 0.917E-02 0.432E-02
   -.461E+02 -.128E+02 0.306E+02   0.470E+02 0.130E+02 -.305E+02   -.818E+00 -.210E+00 -.151E+00   -.235E-01 0.978E-02 -.626E-02
   -.195E+02 0.119E+02 0.827E+02   0.203E+02 -.121E+02 -.832E+02   -.704E+00 0.212E+00 0.542E+00   -.244E-01 -.945E-02 -.693E-02
   -.284E+02 -.120E+00 0.120E+03   0.294E+02 0.203E+00 -.121E+03   -.101E+01 -.826E-01 0.151E+01   0.195E-01 -.916E-02 0.399E-02
   0.472E+02 -.100E+02 0.906E+01   -.484E+02 0.102E+02 -.939E+01   0.114E+01 -.178E+00 0.329E+00   -.182E-02 0.236E-02 0.380E-02
   0.343E+02 0.111E+02 0.656E+01   -.351E+02 -.113E+02 -.668E+01   0.858E+00 0.188E+00 0.126E+00   0.590E-02 -.294E-02 -.172E-02
   0.130E+02 -.973E+01 -.431E+02   -.135E+02 0.991E+01 0.435E+02   0.491E+00 -.177E+00 -.391E+00   0.653E-02 0.287E-02 -.282E-02
   -.517E+02 0.967E+01 -.728E+01   0.529E+02 -.984E+01 0.777E+01   -.111E+01 0.171E+00 -.487E+00   -.243E-01 0.493E-02 -.503E-02
   0.428E+02 -.131E+02 -.297E+02   -.436E+02 0.131E+02 0.295E+02   0.763E+00 -.739E-01 0.126E+00   -.303E-01 0.923E-02 -.488E-02
   0.574E+02 0.160E+00 -.692E+02   -.586E+02 -.107E+00 0.701E+02   0.117E+01 -.689E-01 -.871E+00   0.350E-01 0.888E-02 0.622E-02
   0.300E+02 -.159E+00 -.121E+03   -.310E+02 0.934E-01 0.122E+03   0.101E+01 0.731E-01 -.151E+01   0.371E-01 -.877E-02 0.473E-02
   0.162E+02 0.121E+02 -.816E+02   -.168E+02 -.121E+02 0.822E+02   0.622E+00 0.613E-01 -.566E+00   -.299E-01 -.923E-02 -.587E-02
   -.465E+02 -.949E+01 -.110E+02   0.476E+02 0.967E+01 0.113E+02   -.103E+01 -.178E+00 -.310E+00   -.242E-01 -.516E-02 -.551E-02
   -.341E+02 0.106E+02 -.107E+02   0.347E+02 -.108E+02 0.109E+02   -.577E+00 0.197E+00 -.212E+00   0.174E-01 0.687E-02 0.542E-02
   -.128E+02 -.981E+01 0.463E+02   0.134E+02 0.100E+02 -.467E+02   -.614E+00 -.184E+00 0.420E+00   0.170E-01 -.699E-02 0.523E-02
   0.365E+02 0.120E+01 0.351E+03   -.407E+02 -.138E+01 -.372E+03   0.419E+01 0.172E+00 0.205E+02   -.186E-01 0.444E-02 0.527E-02
   0.290E+01 0.304E+02 -.399E+03   -.276E+01 -.327E+02 0.422E+03   -.144E+00 0.227E+01 -.229E+02   0.305E-02 0.863E-02 -.228E-01
   -.502E+02 0.141E+01 -.346E+03   0.539E+02 -.159E+01 0.366E+03   -.369E+01 0.182E+00 -.200E+02   0.159E-01 -.268E-02 0.168E-01
   -.235E+02 0.299E+02 0.393E+03   0.251E+02 -.321E+02 -.416E+03   -.164E+01 0.224E+01 0.230E+02   -.114E-01 -.471E-02 -.633E-02
   -.182E+02 -.285E+02 0.370E+03   0.194E+02 0.304E+02 -.392E+03   -.120E+01 -.189E+01 0.228E+02   -.900E-02 0.531E-02 0.472E-03
   -.231E+02 -.193E+01 -.371E+03   0.260E+02 0.253E+01 0.392E+03   -.297E+01 -.605E+00 -.210E+02   0.319E-01 0.532E-02 -.539E-02
   0.169E+01 0.155E+01 -.397E+03   -.196E+01 -.216E+01 0.423E+03   0.238E+00 0.618E+00 -.253E+02   0.248E-01 -.585E-02 -.520E-03
   -.117E+02 0.289E+02 0.362E+03   0.119E+02 -.308E+02 -.385E+03   -.155E+00 0.190E+01 0.228E+02   -.726E-02 -.541E-02 -.337E-02
   0.432E+02 0.174E+01 -.332E+03   -.454E+02 -.182E+01 0.351E+03   0.216E+01 0.761E-01 -.183E+02   0.574E-03 0.114E-01 0.191E-01
   0.390E+02 0.479E+01 0.376E+03   -.429E+02 -.501E+01 -.398E+03   0.382E+01 0.204E+00 0.214E+02   -.713E-02 0.114E-01 -.102E-01
   0.146E+02 -.460E+01 0.402E+03   -.152E+02 0.476E+01 -.428E+03   0.595E+00 -.152E+00 0.256E+02   -.115E-01 -.118E-01 -.734E-02
   0.361E+02 -.169E+01 -.326E+03   -.371E+02 0.177E+01 0.344E+03   0.100E+01 -.632E-01 -.185E+02   0.292E-02 -.117E-01 0.166E-01
   0.547E+01 -.854E+00 0.375E+03   -.605E+01 0.110E+01 -.400E+03   0.604E+00 -.246E+00 0.253E+02   -.258E-01 -.439E-02 0.923E-02
   0.171E+01 -.304E+02 -.398E+03   -.116E+01 0.327E+02 0.421E+03   -.549E+00 -.226E+01 -.222E+02   0.101E-01 -.867E-02 -.284E-01
   -.638E+02 -.160E+01 -.346E+03   0.683E+02 0.183E+01 0.367E+03   -.452E+01 -.234E+00 -.204E+02   0.198E-01 0.283E-02 0.128E-01
   -.873E+01 -.295E+02 0.385E+03   0.816E+01 0.317E+02 -.407E+03   0.580E+00 -.218E+01 0.227E+02   -.157E-01 0.502E-02 -.331E-02
   0.597E+02 0.132E+01 0.345E+03   -.642E+02 -.154E+01 -.365E+03   0.450E+01 0.211E+00 0.203E+02   0.308E-01 0.920E-02 0.188E-01
   0.143E+02 0.297E+02 -.393E+03   -.147E+02 -.319E+02 0.416E+03   0.371E+00 0.222E+01 -.223E+02   -.137E-01 0.484E-02 -.190E-02
   -.420E+02 0.124E+01 -.350E+03   0.466E+02 -.143E+01 0.370E+03   -.463E+01 0.193E+00 -.206E+02   -.137E-01 -.473E-02 0.484E-02
   0.128E+01 0.300E+02 0.399E+03   -.227E+01 -.322E+02 -.421E+03   0.987E+00 0.220E+01 0.223E+02   0.892E-02 -.251E-02 -.167E-01
   -.435E+02 -.110E+01 0.332E+03   0.457E+02 0.140E+01 -.350E+03   -.214E+01 -.302E+00 0.181E+02   -.389E-02 0.112E-01 0.307E-01
   -.365E+02 0.611E+00 -.377E+03   0.400E+02 -.107E+01 0.398E+03   -.351E+01 0.449E+00 -.212E+02   -.210E-01 0.117E-01 -.225E-01
   -.125E+02 -.480E+00 -.403E+03   0.129E+02 0.886E+00 0.428E+03   -.354E+00 -.393E+00 -.254E+02   -.236E-01 -.115E-01 -.194E-01
   -.365E+02 0.109E+01 0.326E+03   0.375E+02 -.138E+01 -.344E+03   -.102E+01 0.306E+00 0.184E+02   0.407E-02 -.111E-01 0.248E-01
   0.148E+02 -.312E+02 -.371E+03   -.158E+02 0.334E+02 0.394E+03   0.101E+01 -.220E+01 -.231E+02   -.132E-01 0.826E-02 -.309E-02
   0.260E+02 -.548E+01 0.371E+03   -.293E+02 0.574E+01 -.393E+03   0.328E+01 -.266E+00 0.212E+02   0.203E-01 0.889E-02 -.383E-02
   0.125E+01 0.505E+01 0.398E+03   -.129E+01 -.533E+01 -.423E+03   0.262E-01 0.299E+00 0.255E+02   0.192E-01 -.864E-02 -.174E-02
   0.861E+01 0.314E+02 -.363E+03   -.861E+01 -.336E+02 0.386E+03   0.115E-01 0.222E+01 -.231E+02   -.902E-02 -.822E-02 -.637E-02
   0.616E+02 -.142E+01 0.347E+03   -.658E+02 0.164E+01 -.367E+03   0.419E+01 -.211E+00 0.200E+02   0.271E-01 -.974E-02 0.221E-01
   0.110E+02 -.299E+02 -.385E+03   -.112E+02 0.321E+02 0.408E+03   0.142E+00 -.224E+01 -.231E+02   -.103E-01 -.422E-02 -.459E-02
   0.921E+00 -.895E+00 -.374E+03   -.818E+00 0.113E+01 0.399E+03   -.106E+00 -.237E+00 -.247E+02   -.539E-02 0.437E-02 0.881E-03
   -.853E+01 -.304E+02 0.399E+03   0.916E+01 0.327E+02 -.422E+03   -.614E+00 -.226E+01 0.228E+02   -.816E-03 0.314E-02 -.942E-02
 -----------------------------------------------------------------------------------------------
   -.481E+00 -.283E-01 -.104E+00   0.142E-13 0.142E-12 -.625E-12   0.500E+00 0.300E-01 0.805E-01   -.224E-02 0.368E-02 0.162E-01
 
 
 POSITION                                       TOTAL-FORCE (eV/Angst)
 -----------------------------------------------------------------------------------
      1.58106      5.54988      2.44551        -0.006677      0.000429     -0.002856
      2.28429      1.40196      7.28405        -0.000052      0.018670     -0.001190
      1.57288      2.78393      2.44396         0.003005     -0.000011     -0.003648
      6.47177      5.52736      2.52700        -0.002411     -0.004245      0.004207
     -2.58259      1.40218      7.18843         0.000366     -0.015268     -0.001472
      0.00805      5.55055      0.04477         0.002103      0.000871      0.009277
     -1.01891      1.39238      9.61596        -0.002276      0.012019     -0.005372
      3.86039      1.39261      9.71835         0.001141     -0.015229      0.007283
      3.85776      4.16390      9.68526         0.003909      0.007076      0.008153
     -1.02177      4.16725      9.58271         0.001457     -0.007933     -0.002992
      0.01235      2.78312      0.03797         0.001974     -0.002852      0.001569
      4.90071      5.55141      0.10824        -0.000225      0.001174     -0.001853
      4.89929      2.78376      0.14521        -0.000465     -0.001880      0.004638
      3.14415      5.55088      4.83777         0.004775      0.003148     -0.001024
      5.61194      1.39427      4.92703        -0.002861      0.005288     -0.001427
      0.72167      1.38999      4.86470         0.000664     -0.006950     -0.005661
      0.72554      4.16606      4.89726        -0.001679     -0.001801     -0.007631
      5.61473      4.16528      4.95963        -0.002558      0.001272     -0.002093
      3.15795      2.78381      4.84225         0.003926     -0.003963     -0.002786
      8.03883      5.55075      4.94717         0.001067      0.002478     -0.002007
      8.02543      2.78355      4.90716         0.004328     -0.002100      0.003350
      4.91063      5.54416      3.95968         0.004383     -0.002567      0.006542
      1.47636      0.02763      5.84155        -0.002545      0.001908     -0.015575
      3.16354      5.54311      0.98526        -0.009418     -0.001417      0.003029
      3.07718      0.02806      8.74114         0.011627      0.000083      0.011369
      7.25256      1.36143      3.97748        -0.000154     -0.001477     -0.000994
     -1.00734      1.40790      5.72440        -0.002492      0.000517     -0.011790
     -0.98751      4.14938      5.71408        -0.000539     -0.002360     -0.013500
      7.25252      4.19388      3.98986        -0.001016      0.000381     -0.001337
      0.80022      1.38474      1.01538         0.000676      0.000688      0.002457
      5.59845      1.38939      8.83910         0.001724      0.001785      0.012609
      5.57723      4.16752      8.85081        -0.003688     -0.003733      0.012116
      0.80009      4.17093      1.00135        -0.000248     -0.001175      0.004424
      4.88604      2.79337      3.97837        -0.002632     -0.000404      0.008083
      1.48176      2.75166      5.83353         0.004808      0.003195     -0.015053
      3.11271      2.79343      1.00546        -0.000534     -0.000097     -0.002395
      3.11692      2.75255      8.74719        -0.002152      0.005500      0.012110
      0.03259      5.54109      3.88672        -0.000095      0.000665     -0.008698
      6.36262      0.02905      5.90931         0.003787     -0.003365     -0.000388
      7.99330      5.54230      1.09513        -0.004876      0.001212      0.003839
     -1.75134      0.02894      8.63758        -0.000211     -0.002071      0.002990
      2.35493      1.39197      3.87145         0.007460      0.001158     -0.009565
      3.88372      1.38474      5.80508        -0.012307      0.001247     -0.010418
      3.90385      4.17215      5.79388        -0.009548      0.000613     -0.011410
      2.35583      4.16492      3.88458         0.006375      0.000436     -0.010669
      5.67292      1.36902      1.07991        -0.003158      0.001137      0.006243
      0.71550      1.40355      8.75356         0.005067     -0.001580      0.009011
      0.69657      4.15374      8.76368         0.000640      0.003863      0.011088
      5.67436      4.18720      1.06718        -0.001678      0.001295      0.004255
      0.02614      2.79189      3.88433         0.005050      0.001723     -0.009356
      6.37288      2.75367      5.89825        -0.002938     -0.000586     -0.000464
      8.07867      2.79150      1.05852        -0.008340      0.003788      0.007063
     -1.80298      2.75309      8.64938         0.007459     -0.000554      0.007919
 -----------------------------------------------------------------------------------
    total drift:                                0.016710      0.005350     -0.007106


--------------------------------------------------------------------------------------------------------



  FREE ENERGIE OF THE ION-ELECTRON SYSTEM (eV)
  ---------------------------------------------------
  free  energy   TOTEN  =      -330.0071791136 eV

  energy  without entropy=     -330.0001376923  energy(sigma->0) =     -330.00365840
 
 d Force = 0.9810806E-03[ 0.667E-03, 0.130E-02]  d Energy = 0.1443506E-02-0.462E-03
 d Force =-0.1843935E+02[-0.185E+02,-0.184E+02]  d Ewald  =-0.3797232E+02 0.195E+02


--------------------------------------------------------------------------------------------------------


    POTLOK:  cpu time    0.1613: real time    0.1617


--------------------------------------------------------------------------------------------------------


 Quasi-Newton relaxation of ions (Broydens 2nd method)
  g(Force)  = 0.259E-03   g(Stress)= 0.200E-03

 retain information from N=  1 steps
 eigenvalues of (default step * inverse Hessian matrix)
  average eigenvalue of G=   1.0550
 eigenvalue spectrum of G is  1.0550


--------------------------------------------------------------------------------------------------------


  
 reached required accuracy - stopping structural energy minimisation
     LOOP+:  cpu time   27.2841: real time   27.4059
    4ORBIT:  cpu time    0.0000: real time    0.0000

volume of typ            1:     7.4 %

volume of typ            2:    19.4 %

volume of typ            3:     9.9 %
 
total charge     
 
# of ion       s       p       d       tot
------------------------------------------
    1        2.070   0.214   0.080   2.365
    2        2.061   0.191   0.072   2.325
    3        2.073   0.221   0.083   2.376
    4        2.069   0.210   0.080   2.359
    5        2.061   0.191   0.072   2.324
    6        0.282   0.385   7.854   8.521
    7        0.296   0.420   7.849   8.565
    8        0.297   0.420   7.842   8.559
    9        0.293   0.412   7.834   8.539
   10        0.293   0.411   7.840   8.543
   11        0.292   0.408   7.842   8.542
   12        0.296   0.418   7.843   8.556
   13        0.285   0.393   7.843   8.520
   14        0.284   0.391   7.851   8.526
   15        0.298   0.424   7.840   8.562
   16        0.297   0.423   7.845   8.565
   17        0.294   0.414   7.837   8.545
   18        0.295   0.416   7.833   8.543
   19        0.288   0.396   7.848   8.532
   20        0.291   0.405   7.850   8.546
   21        0.286   0.396   7.842   8.524
   22        1.276   2.753   0.007   4.036
   23        1.273   2.753   0.008   4.033
   24        1.275   2.755   0.007   4.037
   25        1.273   2.753   0.008   4.034
   26        1.273   2.756   0.008   4.036
   27        1.274   2.756   0.008   4.037
   28        1.284   2.729   0.008   4.021
   29        1.272   2.762   0.008   4.042
   30        1.262   2.782   0.007   4.051
   31        1.275   2.750   0.007   4.033
   32        1.284   2.725   0.008   4.018
   33        1.261   2.787   0.007   4.055
   34        1.284   2.728   0.008   4.020
   35        1.273   2.756   0.007   4.037
   36        1.274   2.758   0.007   4.039
   37        1.274   2.755   0.008   4.036
   38        1.273   2.758   0.007   4.039
   39        1.274   2.752   0.007   4.034
   40        1.274   2.757   0.007   4.039
   41        1.274   2.753   0.007   4.034
   42        1.262   2.783   0.007   4.052
   43        1.275   2.751   0.007   4.034
   44        1.284   2.726   0.008   4.019
   45        1.262   2.787   0.007   4.056
   46        1.273   2.754   0.008   4.035
   47        1.275   2.755   0.008   4.037
   48        1.284   2.728   0.008   4.020
   49        1.272   2.761   0.008   4.041
   50        1.275   2.755   0.007   4.037
   51        1.273   2.755   0.008   4.035
   52        1.285   2.727   0.008   4.020
   53        1.272   2.757   0.008   4.037
--------------------------------------------------
tot          55.77   95.68  126.12  277.57
 
magnetization (x)
 
# of ion       s       p       d       tot
------------------------------------------
    1        0.003   0.000   0.000   0.003
    2       -0.000  -0.000  -0.000  -0.000
    3       -0.000   0.000  -0.000   0.000
    4       -0.000   0.001   0.000   0.001
    5        0.000  -0.000  -0.000   0.000
    6        0.001  -0.000   0.345   0.345
    7       -0.000   0.000  -0.056  -0.056
    8       -0.000   0.000  -0.043  -0.043
    9       -0.000   0.000  -0.044  -0.044
   10       -0.000   0.000  -0.037  -0.037
   11        0.000  -0.000   0.023   0.023
   12        0.000  -0.000   0.017   0.017
   13        0.001  -0.000   0.243   0.244
   14       -0.000   0.000  -0.245  -0.246
   15        0.000   0.000   0.026   0.026
   16        0.000  -0.000   0.060   0.060
   17        0.000  -0.000   0.037   0.037
   18       -0.000   0.000   0.029   0.029
   19        0.000   0.000   0.206   0.206
   20        0.001   0.000   0.249   0.250
   21       -0.000   0.000  -0.177  -0.177
   22       -0.003  -0.023  -0.000  -0.025
   23       -0.002  -0.028  -0.000  -0.029
   24       -0.001  -0.003   0.000  -0.004
   25        0.000  -0.002  -0.000  -0.002
   26        0.000   0.005   0.000   0.006
   27        0.001   0.005   0.000   0.006
   28        0.000   0.003   0.000   0.004
   29        0.000   0.005   0.000   0.005
   30        0.001  -0.001   0.000  -0.000
   31        0.000   0.005   0.000   0.005
   32        0.000   0.005   0.000   0.005
   33        0.001   0.000   0.000   0.001
   34        0.002   0.026   0.000   0.029
   35        0.002   0.023   0.000   0.026
   36        0.002   0.012   0.000   0.014
   37        0.002   0.031   0.000   0.033
   38        0.003   0.024   0.000   0.027
   39        0.003   0.029   0.000   0.032
   40        0.003   0.028   0.000   0.031
   41        0.003   0.048   0.000   0.051
   42        0.001   0.005   0.000   0.006
   43        0.000   0.001   0.000   0.001
   44        0.000   0.000   0.000   0.001
   45        0.000   0.003   0.000   0.003
   46        0.001  -0.003   0.000  -0.002
   47       -0.000   0.001   0.000   0.001
   48        0.000   0.003   0.000   0.003
   49        0.001  -0.002   0.000  -0.001
   50       -0.002  -0.012  -0.000  -0.013
   51       -0.001  -0.018  -0.000  -0.020
   52       -0.000  -0.006   0.000  -0.006
   53       -0.000  -0.003  -0.000  -0.003
--------------------------------------------------
tot           0.02    0.16    0.63    0.82
 

 total amount of memory used by VASP MPI-rank0    92886. kBytes
=======================================================================

   base      :      30000. kBytes
   nonlr-proj:      21437. kBytes
   fftplans  :       5544. kBytes
   grid      :      31764. kBytes
   one-center:        824. kBytes
   wavefun   :       3317. kBytes
 
  
  
 General timing and accounting informations for this job:
 ========================================================
  
                  Total CPU time used (sec):      613.961
                            User time (sec):      608.641
                          System time (sec):        5.320
                         Elapsed time (sec):      621.045
  
                   Maximum memory used (kb):      140200.
                   Average memory used (kb):           0.
  
                          Minor page faults:        37099
                          Major page faults:           41
                 Voluntary context switches:         1324
