 vasp.5.4.4.18Apr17-6-g9f103f2a35 (build May 12 2020 05:39:39) gamma-only       
  
 MD_VERSION_INFO: Compiled 2020-05-12T12:39:39-UTC in devlin.sd.materialsdesign.
 com:/home/medea2/data/build/wwolf/vasp-gpu5.4.4/13047/x86_64/src/src/build/gam 
 from svn 13047
 
 This VASP executable licensed from Materials Design, Inc.
 
 executed on                        Lin64 date 2023.03.07  04:27:05
 running on   16 total cores
 distrk:  each k-point on   16 cores,    1 groups
 distr:  one band on NCORES_PER_BAND=   1 cores,   16 groups


--------------------------------------------------------------------------------------------------------


 INCAR:
 POTCAR:    PAW_PBE Li_sv 10Sep2004               
 POTCAR:    PAW_PBE Ni 02Aug2007                  
 POTCAR:    PAW_PBE O 08Apr2002                   

 ----------------------------------------------------------------------------- 
|                                                                             |
|           W    W    AA    RRRRR   N    N  II  N    N   GGGG   !!!           |
|           W    W   A  A   R    R  NN   N  II  NN   N  G    G  !!!           |
|           W    W  A    A  R    R  N N  N  II  N N  N  G       !!!           |
|           W WW W  AAAAAA  RRRRR   N  N N  II  N  N N  G  GGG   !            |
|           WW  WW  A    A  R   R   N   NN  II  N   NN  G    G                |
|           W    W  A    A  R    R  N    N  II  N    N   GGGG   !!!           |
|                                                                             |
|      For optimal performance we recommend to set                            |
|        NCORE= 4 - approx SQRT( number of cores)                             |
|      NCORE specifies how many cores store one orbital (NPAR=cpu/NCORE).     |
|      This setting can  greatly improve the performance of VASP for DFT.     |
|      The default,   NCORE=1            might be grossly inefficient         |
|      on modern multi-core architectures or massively parallel machines.     |
|      Do your own testing !!!!                                               |
|      Unfortunately you need to use the default for GW and RPA calculations. |
|      (for HF NCORE is supported but not extensively tested yet)             |
|                                                                             |
 ----------------------------------------------------------------------------- 

 POTCAR:    PAW_PBE Li_sv 10Sep2004               
  local pseudopotential read in
  atomic valenz-charges read in
  non local Contribution for L=           0  read in
    real space projection operators read in
  non local Contribution for L=           0  read in
    real space projection operators read in
  non local Contribution for L=           1  read in
    real space projection operators read in
    PAW grid and wavefunctions read in
 
   number of l-projection  operators is LMAX  =           3
   number of lm-projection operators is LMMAX =           5
 
 POTCAR:    PAW_PBE Ni 02Aug2007                  
  local pseudopotential read in
  partial core-charges read in
  partial kinetic energy density read in
  atomic valenz-charges read in
  non local Contribution for L=           2  read in
    real space projection operators read in
  non local Contribution for L=           2  read in
    real space projection operators read in
  non local Contribution for L=           0  read in
    real space projection operators read in
  non local Contribution for L=           0  read in
    real space projection operators read in
  non local Contribution for L=           1  read in
    real space projection operators read in
  non local Contribution for L=           1  read in
    real space projection operators read in
    PAW grid and wavefunctions read in
 
   number of l-projection  operators is LMAX  =           6
   number of lm-projection operators is LMMAX =          18
 
 POTCAR:    PAW_PBE O 08Apr2002                   
  local pseudopotential read in
  partial core-charges read in
  partial kinetic energy density read in
  kinetic energy density of atom read in
  atomic valenz-charges read in
  non local Contribution for L=           0  read in
    real space projection operators read in
  non local Contribution for L=           0  read in
    real space projection operators read in
  non local Contribution for L=           1  read in
    real space projection operators read in
  non local Contribution for L=           1  read in
    real space projection operators read in
    PAW grid and wavefunctions read in
 
   number of l-projection  operators is LMAX  =           4
   number of lm-projection operators is LMMAX =           8
 
 Optimization of the real space projectors (new method)

 maximal supplied QI-value         = 22.11
 optimisation between [QCUT,QGAM] = [ 11.28, 22.77] = [ 35.61,145.23] Ry 
 Optimized for a Real-space Cutoff    1.10 Angstroem

   l    n(q)    QCUT    max X(q) W(low)/X(q) W(high)/X(q)  e(spline) 
   0      7    11.276    10.506    0.54E-04    0.58E-04    0.16E-07
   0      7    11.276     8.367    0.11E-03    0.14E-03    0.35E-07
   1      7    11.276     8.983    0.23E-03    0.43E-03    0.86E-07
 Optimization of the real space projectors (new method)

 maximal supplied QI-value         = 16.25
 optimisation between [QCUT,QGAM] = [ 11.38, 22.75] = [ 36.24,144.96] Ry 
 Optimized for a Real-space Cutoff    1.47 Angstroem

   l    n(q)    QCUT    max X(q) W(low)/X(q) W(high)/X(q)  e(spline) 
   2      9    11.376    60.317    0.17E-03    0.16E-04    0.16E-06
   2      9    11.376    55.921    0.17E-03    0.16E-04    0.17E-06
   0     10    11.376    51.690    0.45E-04    0.60E-04    0.21E-06
   0     10    11.376    30.015    0.37E-04    0.55E-04    0.19E-06
   1     10    11.376    18.849    0.83E-04    0.11E-03    0.92E-07
   1     10    11.376    14.624    0.69E-04    0.92E-04    0.82E-07
 Optimization of the real space projectors (new method)

 maximal supplied QI-value         = 24.76
 optimisation between [QCUT,QGAM] = [ 11.39, 22.77] = [ 36.31,145.25] Ry 
 Optimized for a Real-space Cutoff    1.10 Angstroem

   l    n(q)    QCUT    max X(q) W(low)/X(q) W(high)/X(q)  e(spline) 
   0      7    11.387    20.381    0.22E-03    0.48E-03    0.18E-06
   0      7    11.387    15.268    0.22E-03    0.52E-03    0.19E-06
   1      7    11.387     5.964    0.22E-03    0.73E-03    0.24E-06
   1      7    11.387     5.382    0.19E-03    0.60E-03    0.21E-06

 ----------------------------------------------------------------------------- 
|                                                                             |
|  ADVICE TO THIS USER RUNNING 'VASP/VAMP'   (HEAR YOUR MASTER'S VOICE ...):  |
|                                                                             |
|      You enforced a specific xc-type in the INCAR file,                     |
|      a different type was found on the POTCAR file                          |
|          I HOPE YOU KNOW, WHAT YOU ARE  DOING                               |
|                                                                             |
 ----------------------------------------------------------------------------- 

  PAW_PBE Li_sv 10Sep2004               :
 energy of atom  1       EATOM= -202.7858
 kinetic energy error for atom=    0.0143 (will be added to EATOM!!)
  PAW_PBE Ni 02Aug2007                  :
 energy of atom  2       EATOM=-1077.6739
 kinetic energy error for atom=    0.0030 (will be added to EATOM!!)
  PAW_PBE O 08Apr2002                   :
 energy of atom  3       EATOM= -432.3788
 kinetic energy error for atom=    0.0224 (will be added to EATOM!!)
 
 
 POSCAR: ce16895_1                               
  positions in direct lattice
  No initial velocities read in
 exchange correlation table for  LEXCH =       14
   RHO(1)=    0.500       N(1)  =     2000
   RHO(2)=  100.500       N(2)  =     4000
 


--------------------------------------------------------------------------------------------------------


 ion  position               nearest neighbor table
   1  0.244  0.251  0.501-  46 2.11  42 2.13  22 2.14  24 2.15  34 2.18  36 2.19
   2  0.519  0.753  0.728-  37 2.02  44 2.03  43 2.15  32 2.17  19 2.79   9 2.83
   3  0.249  0.251  0.999-  26 2.12  38 2.14  40 2.14  50 2.14  52 2.14  30 2.20
   4  0.208  0.749  0.999-  39 2.04  41 2.06  31 2.10  27 2.12  20 2.80   6 2.80
   5  0.524  0.747  0.272-  35 2.02  48 2.03  28 2.15  47 2.18  13 2.81  17 2.82
   6  0.999  0.997  0.998-  33 1.83  30 1.85  32 1.86  31 1.86  40 1.90  41 1.93  11 2.76   9 2.78
                            11 2.78   8 2.80   4 2.80  10 2.82   7 2.84
   7  0.250  0.002  0.252-  24 1.83  41 1.84  36 1.85  53 1.85  47 1.90  30 1.94  10 2.77  10 2.78
                            12 2.79  13 2.79  11 2.83   6 2.84
   8  0.249  0.001  0.750-  40 1.83  25 1.83  52 1.84  37 1.85  46 2.02  31 2.04   9 2.76   9 2.78
                             6 2.80  11 2.82  12 2.82  13 2.83
   9  0.751  0.006  0.753-  25 1.84  37 1.85  40 1.85  52 1.87  49 1.91  32 1.92   8 2.76   6 2.78
                             8 2.78  11 2.80   2 2.83  12 2.84  13 2.84
  10  0.751  0.002  0.251-  24 1.85  53 1.85  41 1.86  36 1.86  33 1.94  48 1.94   7 2.77   7 2.78
                            12 2.80  13 2.80  11 2.81   6 2.82
  11  0.501  0.998  0.999-  33 1.83  31 1.84  32 1.84  30 1.85  52 1.91  53 1.96   6 2.76   6 2.78
                             9 2.80  10 2.81   8 2.82   7 2.83
  12  0.000  0.997  0.497-  46 1.83  49 1.85  48 1.85  47 1.87  25 1.91  24 1.92  13 2.76  13 2.78
                             7 2.79  10 2.80   8 2.82   9 2.84
  13  0.501  0.000  0.499-  48 1.83  46 1.83  49 1.85  47 1.85  36 1.91  37 1.94  12 2.76  12 2.78
                             7 2.79  10 2.80   5 2.81   8 2.83   9 2.84
  14  0.000  0.504  0.502-  42 1.84  45 1.84  44 1.85  43 1.86  23 1.90  22 1.91  19 2.77  19 2.78
                            18 2.80  15 2.80  17 2.82  16 2.82
  15  0.250  0.498  0.749-  22 1.83  51 1.84  34 1.85  39 1.85  43 1.95  26 1.99  18 2.77  18 2.77
                            14 2.80  19 2.80  21 2.82  20 2.83
  16  0.249  0.499  0.249-  38 1.84  23 1.84  50 1.85  35 1.85  42 2.00  27 2.00  17 2.76  17 2.79
                            20 2.79  21 2.81  14 2.82  19 2.83
  17  0.751  0.494  0.248-  23 1.84  35 1.85  38 1.85  50 1.87  45 1.92  28 1.94  16 2.76  16 2.79
                            20 2.79  21 2.81   5 2.82  19 2.82  14 2.82
  18  0.751  0.498  0.749-  22 1.85  39 1.86  51 1.86  34 1.86  29 1.93  44 1.93  15 2.77  15 2.77
                            14 2.80  19 2.80  21 2.82  20 2.82
  19  0.501  0.501  0.501-  44 1.84  42 1.84  43 1.84  45 1.84  34 1.90  35 1.93  14 2.77  14 2.78
                             2 2.79  18 2.80  15 2.80  17 2.82  16 2.83
  20  0.999  0.502  0.002-  29 1.83  26 1.84  28 1.85  27 1.87  38 1.90  39 1.91  21 2.76  21 2.78
                            17 2.79  16 2.79   4 2.80  18 2.82  15 2.83
  21  0.501  0.501  0.001-  28 1.84  29 1.84  26 1.84  27 1.85  50 1.90  51 1.94  20 2.76  20 2.78
                            17 2.81  16 2.81  18 2.82  15 2.82
  22  0.003  0.403  0.635-  15 1.83  18 1.85  14 1.91   1 2.14
  23  0.998  0.594  0.361-  16 1.84  17 1.84  14 1.90
  24  0.003  0.099  0.364-   7 1.83  10 1.85  12 1.92   1 2.15
  25  0.998  0.907  0.639-   8 1.83   9 1.84  12 1.91
  26  0.249  0.401  0.893-  20 1.84  21 1.84  15 1.99   3 2.12
  27  0.254  0.605  0.110-  21 1.85  20 1.87  16 2.00   4 2.12
  28  0.747  0.599  0.115-  21 1.84  20 1.85  17 1.94   5 2.15
  29  0.751  0.404  0.890-  20 1.83  21 1.84  18 1.93
  30  0.249  0.096  0.110-   6 1.85  11 1.85   7 1.94   3 2.20
  31  0.254  0.894  0.892-  11 1.84   6 1.86   8 2.04   4 2.10
  32  0.747  0.901  0.883-  11 1.84   6 1.86   9 1.92   2 2.17
  33  0.752  0.095  0.108-   6 1.83  11 1.83  10 1.94
  34  0.499  0.401  0.634-  15 1.85  18 1.86  19 1.90   1 2.18
  35  0.502  0.595  0.360-  16 1.85  17 1.85  19 1.93   5 2.02
  36  0.499  0.100  0.365-   7 1.85  10 1.86  13 1.91   1 2.19
  37  0.503  0.906  0.641-   8 1.85   9 1.85  13 1.94   2 2.02
  38  0.005  0.401  0.133-  16 1.84  17 1.85  20 1.90   3 2.14
  39  0.002  0.596  0.864-  15 1.85  18 1.86  20 1.91   4 2.04
  40  0.006  0.099  0.867-   8 1.83   9 1.85   6 1.90   3 2.14
  41  0.002  0.903  0.138-   7 1.84  10 1.86   6 1.93   4 2.06
  42  0.248  0.402  0.395-  14 1.84  19 1.84  16 2.00   1 2.13
  43  0.256  0.602  0.614-  19 1.84  14 1.86  15 1.95   2 2.15
  44  0.747  0.600  0.615-  19 1.84  14 1.85  18 1.93   2 2.03
  45  0.753  0.404  0.391-  14 1.84  19 1.84  17 1.92
  46  0.248  0.100  0.603-  12 1.83  13 1.83   8 2.02   1 2.11
  47  0.255  0.900  0.383-  13 1.85  12 1.87   7 1.90   5 2.18
  48  0.746  0.901  0.387-  13 1.83  12 1.85  10 1.94   5 2.03
  49  0.753  0.096  0.612-  12 1.85  13 1.85   9 1.91
  50  0.495  0.401  0.133-  16 1.85  17 1.87  21 1.90   3 2.14
  51  0.499  0.598  0.861-  15 1.84  18 1.86  21 1.94
  52  0.493  0.099  0.867-   8 1.84   9 1.87  11 1.91   3 2.14
  53  0.499  0.901  0.141-   7 1.85  10 1.85  11 1.96
 
  LATTYP: Found a triclinic cell.
 ALAT       =    11.6622604705
 B/A-ratio  =     0.4752208681
 C/A-ratio  =     0.8392006864
 COS(alpha) =     0.0000645960
 COS(beta)  =     0.2916784478
 COS(gamma) =     0.4750629197
  
  Lattice vectors:
  
 A1 = (  -3.5156094224,   5.5412089768,   9.6407371475)
 A2 = (  -0.0001712689,   5.5421495113,  -0.0005806611)
 A3 = (  -9.7862937585,   0.0003176581,  -0.1156417694)


Analysis of symmetry for initial positions (statically):
=====================================================================
 Subroutine PRICEL returns:
 Original cell was already a primitive cell.
 

 Routine SETGRP: Setting up the symmetry group for a 
 triclinic supercell.


 Subroutine GETGRP returns: Found  1 space group operations
 (whereof  1 operations were pure point group operations)
 out of a pool of  2 trial point group operations.


The static configuration has the point symmetry C_1 .


Analysis of symmetry for dynamics (positions and initial velocities):
=====================================================================
 Subroutine PRICEL returns:
 Original cell was already a primitive cell.
 

 Routine SETGRP: Setting up the symmetry group for a 
 triclinic supercell.


 Subroutine GETGRP returns: Found  1 space group operations
 (whereof  1 operations were pure point group operations)
 out of a pool of  2 trial point group operations.


The dynamic configuration has the point symmetry C_1 .


Analysis of structural, dynamic, and magnetic symmetry:
=====================================================================
 Subroutine PRICEL returns:
 Original cell was already a primitive cell.
 

 Routine SETGRP: Setting up the symmetry group for a 
 triclinic supercell.


 Subroutine GETGRP returns: Found  1 space group operations
 (whereof  1 operations were pure point group operations)
 out of a pool of  2 trial point group operations.


The magnetic configuration has the point symmetry C_1 .


 Subroutine INISYM returns: Found  1 space group operations
 (whereof  1 operations are pure point group operations),
 and found     1 'primitive' translations

 
 
 KPOINTS: Automatic mesh                          

Automatic generation of k-mesh.
Space group operators:
 irot       det(A)        alpha          n_x          n_y          n_z        tau_x        tau_y        tau_z
    1     1.000000     0.000001     1.000000     0.000000     0.000000     0.000000     0.000000     0.000000
 
 Subroutine IBZKPT returns following result:
 ===========================================
 
 Found      1 irreducible k-points:
 
 Following reciprocal coordinates:
            Coordinates               Weight
  0.000000  0.000000  0.000000      1.000000
 
 Following cartesian coordinates:
            Coordinates               Weight
  0.000000  0.000000  0.000000      1.000000
 


--------------------------------------------------------------------------------------------------------




 Dimension of arrays:
   k-points           NKPTS =      1   k-points in BZ     NKDIM =      1   number of bands    NBANDS=    240
   number of dos      NEDOS =    301   number of ions     NIONS =     53
   non local maximal  LDIM  =      6   non local SUM 2l+1 LMDIM =     18
   total plane-waves  NPLWV = 230400
   max r-space proj   IRMAX =   5940   max aug-charges    IRDMAX=  14419
   dimension x,y,z NGX =    40 NGY =   80 NGZ =   72
   dimension x,y,z NGXF=    80 NGYF=  160 NGZF=  144
   support grid    NGXF=    80 NGYF=  160 NGZF=  144
   ions per type =               5  16  32
   NGX,Y,Z   is equivalent  to a cutoff of  12.00, 12.96, 12.23 a.u.
   NGXF,Y,Z  is equivalent  to a cutoff of  24.00, 25.92, 24.46 a.u.

 SYSTEM =  unknown system                          
 POSCAR =  ce16895_1                               

 Startparameter for this run:
   NWRITE =      1    write-flag & timer
   PREC   = accura    normal or accurate (medium, high low for compatibility)
   ISTART =      0    job   : 0-new  1-cont  2-samecut
   ICHARG =      2    charge: 1-file 2-atom 10-const
   ISPIN  =      2    spin polarized calculation?
   LNONCOLLINEAR =      F non collinear calculations
   LSORBIT =      F    spin-orbit coupling
   INIWAV =      1    electr: 0-lowe 1-rand  2-diag
   LASPH  =      F    aspherical Exc in radial PAW
   METAGGA=      F    non-selfconsistent MetaGGA calc.

 Electronic Relaxation 1
   ENCUT  =  500.0 eV  36.75 Ry    6.06 a.u.  10.10 18.71 17.84*2*pi/ulx,y,z
   ENINI  =  500.0     initial cutoff
   ENAUG  =  628.9 eV  augmentation charge cutoff
   NELM   =     80;   NELMIN=  2; NELMDL= -5     # of ELM steps 
   EDIFF  = 0.1E-04   stopping-criterion for ELM
   LREAL  =      T    real-space projection
   NLSPLINE    = F    spline interpolate recip. space projectors
   LCOMPAT=      F    compatible to vasp.4.4
   GGA_COMPAT  = T    GGA compatible to vasp.4.4-vasp.4.6
   LMAXPAW     = -100 max onsite density
   LMAXMIX     =    2 max onsite mixed and CHGCAR
   VOSKOWN=      1    Vosko Wilk Nusair interpolation
   ROPT   =   -0.00025  -0.00025  -0.00025
 Ionic relaxation
   EDIFFG = -.2E-01   stopping-criterion for IOM
   NSW    =     20    number of steps for IOM
   NBLOCK =      1;   KBLOCK =     20    inner block; outer block 
   IBRION =      1    ionic relax: 0-MD 1-quasi-New 2-CG
   NFREE  =      0    steps in history (QN), initial steepest desc. (CG)
   ISIF   =      3    stress and relaxation
   IWAVPR =     11    prediction:  0-non 1-charg 2-wave 3-comb
   ISYM   =      2    0-nonsym 1-usesym 2-fastsym
   LCORR  =      T    Harris-Foulkes like correction to forces

   POTIM  = 0.5000    time-step for ionic-motion
   TEIN   =    0.0    initial temperature
   TEBEG  =    0.0;   TEEND  =   0.0 temperature during run
   SMASS  =  -3.00    Nose mass-parameter (am)
   estimated Nose-frequenzy (Omega)   =  0.10E-29 period in steps =****** mass=  -0.702E-27a.u.
   SCALEE = 1.0000    scale energy and forces
   NPACO  =    256;   APACO  = 16.0  distance and # of slots for P.C.
   PSTRESS=    0.0 pullay stress

  Mass of Ions in am
   POMASS =   7.01 58.69 16.00
  Ionic Valenz
   ZVAL   =   3.00 10.00  6.00
  Atomic Wigner-Seitz radii
   RWIGS  =   1.23  1.15  0.73
  virtual crystal weights 
   VCA    =   1.00  1.00  1.00
   NELECT =     367.0000    total number of electrons
   NUPDOWN=      -1.0000    fix difference up-down

 DOS related values:
   EMIN   =  10.00;   EMAX   =-10.00  energy-range for DOS
   EFERMI =   0.00
   ISMEAR =     0;   SIGMA  =   0.05  broadening in eV -4-tet -1-fermi 0-gaus

 Electronic relaxation 2 (details)
   IALGO  =     38    algorithm
   LDIAG  =      T    sub-space diagonalisation (order eigenvalues)
   LSUBROT=      F    optimize rotation matrix (better conditioning)
   TURBO    =      0    0=normal 1=particle mesh
   IRESTART =      0    0=no restart 2=restart with 2 vectors
   NREBOOT  =      0    no. of reboots
   NMIN     =      0    reboot dimension
   EREF     =   0.00    reference energy to select bands
   IMIX   =      4    mixing-type and parameters
     AMIX     =   0.40;   BMIX     =  1.00
     AMIX_MAG =   1.60;   BMIX_MAG =  1.00
     AMIN     =   0.10
     WC   =   100.;   INIMIX=   1;  MIXPRE=   1;  MAXMIX= -45

 Intra band minimization:
   WEIMIN = 0.0010     energy-eigenvalue tresh-hold
   EBREAK =  0.10E-07  absolut break condition
   DEPER  =   0.30     relativ break condition  

   TIME   =   0.40     timestep for ELM

  volume/ion in A,a.u.               =       9.91        66.87
  Fermi-wavevector in a.u.,A,eV,Ry     =   1.452770  2.745337 28.715644  2.110540
  Thomas-Fermi vector in A             =   2.570114
 
 Write flags
   LWAVE        =      F    write WAVECAR
   LDOWNSAMPLE  =      F    k-point downsampling of WAVECAR
   LCHARG       =      T    write CHGCAR
   LVTOT        =      F    write LOCPOT, total local potential
   LVHAR        =      F    write LOCPOT, Hartree potential only
   LELF         =      F    write electronic localiz. function (ELF)
   LORBIT       =      0    0 simple, 1 ext, 2 COOP (PROOUT), +10 PAW based schemes


 Dipole corrections
   LMONO  =      F    monopole corrections only (constant potential shift)
   LDIPOL =      F    correct potential (dipole corrections)
   IDIPOL =      0    1-x, 2-y, 3-z, 4-all directions 
   EPSILON=  1.0000000 bulk dielectric constant

 Exchange correlation treatment:
   GGA     =    PS    GGA type
   LEXCH   =    14    internal setting for exchange type
   VOSKOWN=      1    Vosko Wilk Nusair interpolation
   LHFCALC =     F    Hartree Fock is set to
   LHFONE  =     F    Hartree Fock one center treatment
   AEXX    =    0.0000 exact exchange contribution

 Linear response parameters
   LEPSILON=     F    determine dielectric tensor
   LRPA    =     F    only Hartree local field effects (RPA)
   LNABLA  =     F    use nabla operator in PAW spheres
   LVEL    =     F    velocity operator in full k-point grid
   LINTERFAST=   F  fast interpolation
   KINTER  =     0    interpolate to denser k-point grid
   CSHIFT  =0.1000    complex shift for real part using Kramers Kronig
   OMEGAMAX=  -1.0    maximum frequency
   DEG_THRESHOLD= 0.2000000E-02 threshold for treating states as degnerate
   RTIME   =   -0.100 relaxation time in fs
  (WPLASMAI=    0.000 imaginary part of plasma frequency in eV, 0.658/RTIME)
   DFIELD  = 0.0000000 0.0000000 0.0000000 field for delta impulse in time
 
 Orbital magnetization related:
   ORBITALMAG=     F  switch on orbital magnetization
   LCHIMAG   =     F  perturbation theory with respect to B field
   DQ        =  0.001000  dq finite difference perturbation B field
   LLRAUG    =     F  two centre corrections for induced B field



--------------------------------------------------------------------------------------------------------


 quasi-Newton-method for relaxation of ions
 charge density and potential will be updated during run
 spin polarized calculation
 Variant of blocked Davidson
 Davidson routine will perform the subspace rotation
 perform sub-space diagonalisation
    after iterative eigenvector-optimisation
 modified Broyden-mixing scheme, WC =      100.0
 initial mixing is a Kerker type mixing with AMIX =  0.4000 and BMIX =      1.0000
 Hartree-type preconditioning will be used
 using additional bands           56
 real space projection scheme for non local part
 use partial core corrections
 calculate Harris-corrections to forces 
   (improved forces if not selfconsistent)
 use gradient corrections 
 use of overlap-Matrix (Vanderbilt PP)
 Gauss-broadening in eV      SIGMA  =   0.05


--------------------------------------------------------------------------------------------------------


  energy-cutoff  :      500.00
  volume of cell :      525.17
      direct lattice vectors                 reciprocal lattice vectors
    -0.000171269  5.542149511 -0.000580661     0.000005625  0.180435409  0.000019653
    -3.515438153 -0.000940535  9.641317809    -0.001220373  0.000010783  0.103275287
     9.786293759 -0.000317658  0.115641769     0.101745347  0.000007031  0.037098609

  length of vectors
     5.542149544 10.262227603  9.786976992     0.180435410  0.103282498  0.108297841


 
 k-points in units of 2pi/SCALE and weight: Automatic mesh                          
   0.00000000  0.00000000  0.00000000       1.000
 
 k-points in reciprocal lattice and weights: Automatic mesh                          
   0.00000000  0.00000000  0.00000000       1.000
 
 position of ions in fractional coordinates (direct lattice) 
   0.24362167  0.25107959  0.50093875
   0.51878846  0.75256026  0.72765220
   0.24893107  0.25091396  0.99925732
   0.20759548  0.74893865  0.99922145
   0.52353489  0.74651387  0.27151491
   0.99909780  0.99708413  0.99765392
   0.24999024  0.00168477  0.25203705
   0.24887084  0.00133090  0.75041977
   0.75119159  0.00562797  0.75335871
   0.75082271  0.00198769  0.25069140
   0.50145453  0.99818312  0.99923136
   0.00009265  0.99683935  0.49730584
   0.50133439  0.00024859  0.49867562
   0.00047708  0.50431899  0.50245125
   0.25048416  0.49836760  0.74889020
   0.24885402  0.49887715  0.24882768
   0.75132730  0.49419415  0.24772122
   0.75116721  0.49825113  0.74899974
   0.50138673  0.50089753  0.50109548
   0.99892315  0.50165057  0.00220743
   0.50129100  0.50062733  0.00059080
   0.00329074  0.40273757  0.63460052
   0.99830077  0.59355448  0.36085348
   0.00254323  0.09898688  0.36423809
   0.99755793  0.90675371  0.63919245
   0.24875081  0.40085419  0.89343779
   0.25445180  0.60485723  0.11009342
   0.74685330  0.59885952  0.11482138
   0.75147194  0.40365995  0.89002940
   0.24901703  0.09613339  0.11016134
   0.25416556  0.89394535  0.89204224
   0.74675798  0.90089980  0.88297485
   0.75208493  0.09542552  0.10828483
   0.49863533  0.40128932  0.63368809
   0.50244087  0.59496818  0.35962344
   0.49929990  0.10019766  0.36478576
   0.50300789  0.90550135  0.64055748
   0.00484288  0.40061310  0.13330901
   0.00171367  0.59611672  0.86359522
   0.00606829  0.09892483  0.86677928
   0.00216053  0.90302143  0.13829292
   0.24837755  0.40166784  0.39481354
   0.25606861  0.60211156  0.61376277
   0.74698171  0.60044464  0.61463324
   0.75305801  0.40369167  0.39086285
   0.24794487  0.09978197  0.60294551
   0.25539701  0.89970064  0.38287831
   0.74645573  0.90088714  0.38650652
   0.75291315  0.09601276  0.61164635
   0.49493306  0.40071232  0.13263863
   0.49887815  0.59799871  0.86105869
   0.49321750  0.09914948  0.86705988
   0.49903727  0.90086751  0.14090330
 
 position of ions in cartesian coordinates  (Angst):
   4.01963727  1.34979244  2.47852610
   4.47535028  2.87426426  7.33951838
   8.89691053  1.37905979  2.53455257
   7.14579158  1.14950337  7.33618674
   0.03271166  2.90072026  7.22847194
   6.25797562  5.53589468  9.72799531
   2.46054309  1.38540164  0.04524425
   7.33910699  1.37903978  0.09946699
   7.35267621  4.16297150  0.14094459
   2.44622349  4.16109021  0.04771837
   6.26963471  2.77787974  9.73906240
   1.36245394 -0.00058205  9.66835425
   4.87922634  2.77831150  0.05977336
   3.14423323  0.00201011  4.92040373
   5.57683611  1.38751404  4.89137796
   0.68128638  1.37863793  4.83846352
   0.68683498  4.16342473  4.79289351
   5.57823180  4.16237444  4.88997697
   3.14290741  2.77812993  4.88696871
  -1.74209008  5.53570893  4.83624781
  -1.75422853  2.77775863  4.82648443
   4.79458753  0.01765740  3.95630532
   1.44464312  5.53205924  5.76379744
   3.21655826  0.01388616  0.99648363
   3.06751765  5.52755932  8.81563880
   7.33422395  1.37795336  3.96793693
  -1.04897521  1.40960606  5.84420443
  -0.98170576  4.13857293  5.78663943
   7.29091887  4.16410746  3.99430209
   0.74007760  1.37996420  0.93944722
   5.58713428  1.40749938  8.72182098
   5.47386584  4.13751656  8.78753645
   0.72411583  4.16804298  0.93211331
   4.79066461  2.76293283  3.94194914
   1.42772073  2.78392860  5.77757305
   3.21757641  2.76698458  1.00793203
   3.08536353  2.78668980  8.80400941
  -0.10373027  0.02642083  3.87785149
   6.35578476  0.00866242  5.84721743
   8.13479150  0.03326299  1.05399809
  -1.82114122  0.01108073  8.72230778
   2.45168029  1.37604232  3.91812001
   3.88973296  1.41840925  5.87597683
   3.90402751  4.13912434  5.85972113
   2.40581659  4.17305624  3.93688249
   5.54978207  1.37386216  1.03161140
   0.58407392  1.41448059  8.71842823
   0.61532548  4.13599917  8.73000209
   5.64809499  4.17247265  0.99598421
  -0.11072355  2.74257400  3.87844600
   6.32426036  2.76402133  5.86478028
   8.13666435  2.73311644  1.05591359
  -1.78810840  2.76484711  8.70155450
 


--------------------------------------------------------------------------------------------------------


 use serial FFT for orbitals x direction half grid
 k-point  1 :   0.0000 0.0000 0.0000  plane waves:    6663

 maximum and minimum number of plane-waves per node :      6663     6663

 maximum number of plane-waves:      6663
 maximum index in each direction: 
   IXMAX=   10   IYMAX=   18   IZMAX=   17
   IXMIN=    0   IYMIN=  -18   IZMIN=  -17

 The following grids will avoid any aliasing or wrap around errors in the Hartre
 e energy
  - symmetry arguments have not been applied
  - exchange correlation energies might require even more grid points
  - we recommend to set PREC=Normal or Accurate and rely on VASP defaults
 WARNING: aliasing errors must be expected set NGX to    42 to avoid them
 NGY is ok and might be reduce to    80
 NGZ is ok and might be reduce to    70

 serial   3D FFT for wavefunctions
 parallel 3D FFT for charge:
    minimum data exchange during FFTs selected (reduces bandwidth)


 total amount of memory used by VASP MPI-rank0    88162. kBytes
=======================================================================

   base      :      30000. kBytes
   nonlr-proj:      20327. kBytes
   fftplans  :       4884. kBytes
   grid      :      28787. kBytes
   one-center:        824. kBytes
   wavefun   :       3340. kBytes
 
     INWAV:  cpu time    0.0000: real time    0.0000
 Broyden mixing: mesh for mixing (old mesh)
   NGX = 21   NGY = 37   NGZ = 35
  (NGX  = 80   NGY  =160   NGZ  =144)
  gives a total of  27195 points

 initial charge density was supplied:
 charge density of overlapping atoms calculated
 number of electron     367.0000000 magnetization      40.0000000
 keeping initial charge density in first step


--------------------------------------------------------------------------------------------------------


 Maximum index for non-local projection operator         5745
 Maximum index for augmentation-charges         1001 (set IRDMAX)


--------------------------------------------------------------------------------------------------------


 First call to EWALD:  gamma=   0.220
 Maximum number of real-space cells 4x 2x 2
 Maximum number of reciprocal cells 2x 3x 3

    FEWALD:  cpu time    0.0038: real time    0.0038


--------------------------------------- Iteration      1(   1)  ---------------------------------------


    POTLOK:  cpu time    0.1803: real time    0.2220
    SETDIJ:  cpu time    0.0295: real time    0.0296
     EDDAV:  cpu time    1.8428: real time    1.8647
    --------------------------------------------
      LOOP:  cpu time    2.0531: real time    2.1168

 eigenvalue-minimisations  :   960
 total energy-change (2. order) : 0.6506180E+04  (-0.1645099E+05)
 number of electron     367.0000000 magnetization      40.0000000
 augmentation part      367.0000000 magnetization      40.0000000

 Free energy of the ion-electron system (eV)
  ---------------------------------------------------
  alpha Z        PSCENC =      1114.93218775
  Ewald energy   TEWEN  =    -20372.37727514
  -Hartree energ DENC   =    -12320.54945878
  -exchange      EXHF   =         0.00000000
  -V(xc)+E(xc)   XCENC  =      1489.81480176
  PAW double counting   =     26862.62074115   -28054.42107421
  entropy T*S    EENTRO =        -0.00000317
  eigenvalues    EBANDS =      5767.40107531
  atomic energy  EATOM  =     32018.75905649
  Solvation  Ediel_sol  =         0.00000000
  ---------------------------------------------------
  free energy    TOTEN  =      6506.18005117 eV

  energy without entropy =     6506.18005434  energy(sigma->0) =     6506.18005275


--------------------------------------------------------------------------------------------------------




--------------------------------------- Iteration      1(   2)  ---------------------------------------


     EDDAV:  cpu time    1.6812: real time    1.6852
    --------------------------------------------
      LOOP:  cpu time    1.6810: real time    1.6850

 eigenvalue-minimisations  :  1008
 total energy-change (2. order) :-0.5208231E+04  (-0.4728418E+04)
 number of electron     367.0000000 magnetization      40.0000000
 augmentation part      367.0000000 magnetization      40.0000000

 Free energy of the ion-electron system (eV)
  ---------------------------------------------------
  alpha Z        PSCENC =      1114.93218775
  Ewald energy   TEWEN  =    -20372.37727514
  -Hartree energ DENC   =    -12320.54945878
  -exchange      EXHF   =         0.00000000
  -V(xc)+E(xc)   XCENC  =      1489.81480176
  PAW double counting   =     26862.62074115   -28054.42107421
  entropy T*S    EENTRO =        -0.00008513
  eigenvalues    EBANDS =       559.17053763
  atomic energy  EATOM  =     32018.75905649
  Solvation  Ediel_sol  =         0.00000000
  ---------------------------------------------------
  free energy    TOTEN  =      1297.94943152 eV

  energy without entropy =     1297.94951665  energy(sigma->0) =     1297.94947409


--------------------------------------------------------------------------------------------------------




--------------------------------------- Iteration      1(   3)  ---------------------------------------


     EDDAV:  cpu time    1.6647: real time    1.6686
    --------------------------------------------
      LOOP:  cpu time    1.6647: real time    1.6687

 eigenvalue-minimisations  :  1104
 total energy-change (2. order) :-0.1496610E+04  (-0.1234155E+04)
 number of electron     367.0000000 magnetization      40.0000000
 augmentation part      367.0000000 magnetization      40.0000000

 Free energy of the ion-electron system (eV)
  ---------------------------------------------------
  alpha Z        PSCENC =      1114.93218775
  Ewald energy   TEWEN  =    -20372.37727514
  -Hartree energ DENC   =    -12320.54945878
  -exchange      EXHF   =         0.00000000
  -V(xc)+E(xc)   XCENC  =      1489.81480176
  PAW double counting   =     26862.62074115   -28054.42107421
  entropy T*S    EENTRO =        -0.07680536
  eigenvalues    EBANDS =      -937.36226055
  atomic energy  EATOM  =     32018.75905649
  Solvation  Ediel_sol  =         0.00000000
  ---------------------------------------------------
  free energy    TOTEN  =      -198.66008688 eV

  energy without entropy =     -198.58328153  energy(sigma->0) =     -198.62168420


--------------------------------------------------------------------------------------------------------




--------------------------------------- Iteration      1(   4)  ---------------------------------------


     EDDAV:  cpu time    1.8209: real time    1.8252
    --------------------------------------------
      LOOP:  cpu time    1.8210: real time    1.8253

 eigenvalue-minimisations  :  1120
 total energy-change (2. order) :-0.2294983E+03  (-0.2230929E+03)
 number of electron     367.0000000 magnetization      40.0000000
 augmentation part      367.0000000 magnetization      40.0000000

 Free energy of the ion-electron system (eV)
  ---------------------------------------------------
  alpha Z        PSCENC =      1114.93218775
  Ewald energy   TEWEN  =    -20372.37727514
  -Hartree energ DENC   =    -12320.54945878
  -exchange      EXHF   =         0.00000000
  -V(xc)+E(xc)   XCENC  =      1489.81480176
  PAW double counting   =     26862.62074115   -28054.42107421
  entropy T*S    EENTRO =        -0.14553081
  eigenvalues    EBANDS =     -1166.79184096
  atomic energy  EATOM  =     32018.75905649
  Solvation  Ediel_sol  =         0.00000000
  ---------------------------------------------------
  free energy    TOTEN  =      -428.15839275 eV

  energy without entropy =     -428.01286193  energy(sigma->0) =     -428.08562734


--------------------------------------------------------------------------------------------------------




--------------------------------------- Iteration      1(   5)  ---------------------------------------


     EDDAV:  cpu time    1.9313: real time    1.9359
    CHARGE:  cpu time    0.1033: real time    0.1035
    MIXING:  cpu time    0.0036: real time    0.0083
    --------------------------------------------
      LOOP:  cpu time    2.0379: real time    2.0475

 eigenvalue-minimisations  :  1344
 total energy-change (2. order) :-0.9375839E+01  (-0.9300539E+01)
 number of electron     367.0000127 magnetization      36.9550655
 augmentation part      107.8708590 magnetization      29.2685078

 Broyden mixing:
  rms(total) = 0.11841E+02    rms(broyden)= 0.11840E+02
  rms(prec ) = 0.14335E+02
  weight for this iteration     100.00

 Free energy of the ion-electron system (eV)
  ---------------------------------------------------
  alpha Z        PSCENC =      1114.93218775
  Ewald energy   TEWEN  =    -20372.37727514
  -Hartree energ DENC   =    -12320.54945878
  -exchange      EXHF   =         0.00000000
  -V(xc)+E(xc)   XCENC  =      1489.81480176
  PAW double counting   =     26862.62074115   -28054.42107421
  entropy T*S    EENTRO =        -0.14632155
  eigenvalues    EBANDS =     -1176.16688953
  atomic energy  EATOM  =     32018.75905649
  Solvation  Ediel_sol  =         0.00000000
  ---------------------------------------------------
  free energy    TOTEN  =      -437.53423206 eV

  energy without entropy =     -437.38791050  energy(sigma->0) =     -437.46107128


--------------------------------------------------------------------------------------------------------




--------------------------------------- Iteration      1(   6)  ---------------------------------------


    POTLOK:  cpu time    0.1297: real time    0.1300
    SETDIJ:  cpu time    0.0207: real time    0.0207
     EDDAV:  cpu time    1.9651: real time    1.9697
    CHARGE:  cpu time    0.0910: real time    0.0913
    MIXING:  cpu time    0.0033: real time    0.0033
    --------------------------------------------
      LOOP:  cpu time    2.2098: real time    2.2150

 eigenvalue-minimisations  :  1424
 total energy-change (2. order) :-0.6678839E+02  (-0.1312260E+03)
 number of electron     367.0000158 magnetization      32.6811754
 augmentation part      138.7387363 magnetization      28.3081095

 Broyden mixing:
  rms(total) = 0.20277E+02    rms(broyden)= 0.20276E+02
  rms(prec ) = 0.22381E+02
  weight for this iteration     100.00

 eigenvalues of (default mixing * dielectric matrix)
  average eigenvalue GAMMA=   0.2060
  0.2060

 Free energy of the ion-electron system (eV)
  ---------------------------------------------------
  alpha Z        PSCENC =      1114.93218775
  Ewald energy   TEWEN  =    -20372.37727514
  -Hartree energ DENC   =    -11770.70308327
  -exchange      EXHF   =         0.00000000
  -V(xc)+E(xc)   XCENC  =      1491.34472257
  PAW double counting   =     29803.78697168   -30819.35932800
  entropy T*S    EENTRO =        -0.04721857
  eigenvalues    EBANDS =     -1970.65865739
  atomic energy  EATOM  =     32018.75905649
  Solvation  Ediel_sol  =         0.00000000
  ---------------------------------------------------
  free energy    TOTEN  =      -504.32262386 eV

  energy without entropy =     -504.27540529  energy(sigma->0) =     -504.29901458


--------------------------------------------------------------------------------------------------------




--------------------------------------- Iteration      1(   7)  ---------------------------------------


    POTLOK:  cpu time    0.1234: real time    0.1237
    SETDIJ:  cpu time    0.0202: real time    0.0203
     EDDAV:  cpu time    1.8192: real time    1.8235
    CHARGE:  cpu time    0.1173: real time    0.1175
    MIXING:  cpu time    0.0041: real time    0.0041
    --------------------------------------------
      LOOP:  cpu time    2.0842: real time    2.0892

 eigenvalue-minimisations  :  1360
 total energy-change (2. order) : 0.1436903E+03  (-0.3145291E+02)
 number of electron     367.0000149 magnetization      24.2724667
 augmentation part      129.5076130 magnetization      22.9050385

 Broyden mixing:
  rms(total) = 0.74860E+01    rms(broyden)= 0.74851E+01
  rms(prec ) = 0.89629E+01
  weight for this iteration     100.00

 eigenvalues of (default mixing * dielectric matrix)
  average eigenvalue GAMMA=   0.5372
  0.5372  0.5372

 Free energy of the ion-electron system (eV)
  ---------------------------------------------------
  alpha Z        PSCENC =      1114.93218775
  Ewald energy   TEWEN  =    -20372.37727514
  -Hartree energ DENC   =    -11962.89193347
  -exchange      EXHF   =         0.00000000
  -V(xc)+E(xc)   XCENC  =      1485.75860569
  PAW double counting   =     31002.78034545   -32132.91560971
  entropy T*S    EENTRO =        -0.02594198
  eigenvalues    EBANDS =     -1514.65171900
  atomic energy  EATOM  =     32018.75905649
  Solvation  Ediel_sol  =         0.00000000
  ---------------------------------------------------
  free energy    TOTEN  =      -360.63228393 eV

  energy without entropy =     -360.60634194  energy(sigma->0) =     -360.61931293


--------------------------------------------------------------------------------------------------------




--------------------------------------- Iteration      1(   8)  ---------------------------------------


    POTLOK:  cpu time    0.1587: real time    0.1591
    SETDIJ:  cpu time    0.0306: real time    0.0307
     EDDAV:  cpu time    2.3064: real time    2.3118
    CHARGE:  cpu time    0.0962: real time    0.0964
    MIXING:  cpu time    0.0036: real time    0.0036
    --------------------------------------------
      LOOP:  cpu time    2.5955: real time    2.6016

 eigenvalue-minimisations  :  1456
 total energy-change (2. order) : 0.1257468E+02  (-0.1700037E+02)
 number of electron     367.0000140 magnetization      20.4043947
 augmentation part      119.0455368 magnetization      18.4866809

 Broyden mixing:
  rms(total) = 0.79527E+01    rms(broyden)= 0.79514E+01
  rms(prec ) = 0.11016E+02
  weight for this iteration     100.00

 eigenvalues of (default mixing * dielectric matrix)
  average eigenvalue GAMMA=   0.4901
  0.6062  0.6062  0.2578

 Free energy of the ion-electron system (eV)
  ---------------------------------------------------
  alpha Z        PSCENC =      1114.93218775
  Ewald energy   TEWEN  =    -20372.37727514
  -Hartree energ DENC   =    -12055.10154200
  -exchange      EXHF   =         0.00000000
  -V(xc)+E(xc)   XCENC  =      1479.98527802
  PAW double counting   =     32234.26736855   -33447.87160625
  entropy T*S    EENTRO =        -0.03774301
  eigenvalues    EBANDS =     -1320.61332727
  atomic energy  EATOM  =     32018.75905649
  Solvation  Ediel_sol  =         0.00000000
  ---------------------------------------------------
  free energy    TOTEN  =      -348.05760286 eV

  energy without entropy =     -348.01985985  energy(sigma->0) =     -348.03873135


--------------------------------------------------------------------------------------------------------




--------------------------------------- Iteration      1(   9)  ---------------------------------------


    POTLOK:  cpu time    0.1278: real time    0.1281
    SETDIJ:  cpu time    0.0203: real time    0.0204
     EDDAV:  cpu time    2.0786: real time    2.0836
    CHARGE:  cpu time    0.1227: real time    0.1230
    MIXING:  cpu time    0.0048: real time    0.0048
    --------------------------------------------
      LOOP:  cpu time    2.3543: real time    2.3599

 eigenvalue-minimisations  :  1200
 total energy-change (2. order) :-0.4910793E+01  (-0.2420217E+02)
 number of electron     367.0000131 magnetization      17.1418618
 augmentation part      117.7744973 magnetization      14.7717509

 Broyden mixing:
  rms(total) = 0.84799E+01    rms(broyden)= 0.84793E+01
  rms(prec ) = 0.11152E+02
  weight for this iteration     100.00

 eigenvalues of (default mixing * dielectric matrix)
  average eigenvalue GAMMA=   0.4588
  0.8359  0.4336  0.4336  0.1320

 Free energy of the ion-electron system (eV)
  ---------------------------------------------------
  alpha Z        PSCENC =      1114.93218775
  Ewald energy   TEWEN  =    -20372.37727514
  -Hartree energ DENC   =    -12029.31475520
  -exchange      EXHF   =         0.00000000
  -V(xc)+E(xc)   XCENC  =      1477.82881631
  PAW double counting   =     32879.19635096   -34103.01102918
  entropy T*S    EENTRO =        -0.02331313
  eigenvalues    EBANDS =     -1338.95843426
  atomic energy  EATOM  =     32018.75905649
  Solvation  Ediel_sol  =         0.00000000
  ---------------------------------------------------
  free energy    TOTEN  =      -352.96839539 eV

  energy without entropy =     -352.94508226  energy(sigma->0) =     -352.95673883


--------------------------------------------------------------------------------------------------------




--------------------------------------- Iteration      1(  10)  ---------------------------------------


    POTLOK:  cpu time    0.1380: real time    0.1383
    SETDIJ:  cpu time    0.0206: real time    0.0206
     EDDAV:  cpu time    1.9709: real time    1.9756
    CHARGE:  cpu time    0.1003: real time    0.1005
    MIXING:  cpu time    0.0041: real time    0.0041
    --------------------------------------------
      LOOP:  cpu time    2.2338: real time    2.2391

 eigenvalue-minimisations  :  1344
 total energy-change (2. order) : 0.1334794E+02  (-0.1573294E+02)
 number of electron     367.0000135 magnetization      14.9439501
 augmentation part      119.3334694 magnetization      14.3316612

 Broyden mixing:
  rms(total) = 0.46964E+01    rms(broyden)= 0.46958E+01
  rms(prec ) = 0.57807E+01
  weight for this iteration     100.00

 eigenvalues of (default mixing * dielectric matrix)
  average eigenvalue GAMMA=   0.4163
  0.9047  0.4156  0.4156  0.2094  0.1361

 Free energy of the ion-electron system (eV)
  ---------------------------------------------------
  alpha Z        PSCENC =      1114.93218775
  Ewald energy   TEWEN  =    -20372.37727514
  -Hartree energ DENC   =    -12007.59853556
  -exchange      EXHF   =         0.00000000
  -V(xc)+E(xc)   XCENC  =      1476.75348298
  PAW double counting   =     33498.98627940   -34730.16968289
  entropy T*S    EENTRO =        -0.03333320
  eigenvalues    EBANDS =     -1338.87263985
  atomic energy  EATOM  =     32018.75905649
  Solvation  Ediel_sol  =         0.00000000
  ---------------------------------------------------
  free energy    TOTEN  =      -339.62046001 eV

  energy without entropy =     -339.58712681  energy(sigma->0) =     -339.60379341


--------------------------------------------------------------------------------------------------------




--------------------------------------- Iteration      1(  11)  ---------------------------------------


    POTLOK:  cpu time    0.1286: real time    0.1289
    SETDIJ:  cpu time    0.0203: real time    0.0204
     EDDAV:  cpu time    1.8330: real time    1.8374
    CHARGE:  cpu time    0.0961: real time    0.0964
    MIXING:  cpu time    0.0042: real time    0.0042
    --------------------------------------------
      LOOP:  cpu time    2.0823: real time    2.0872

 eigenvalue-minimisations  :  1264
 total energy-change (2. order) : 0.9929619E+01  (-0.2560666E+01)
 number of electron     367.0000140 magnetization      10.6453433
 augmentation part      120.2168141 magnetization       9.3157408

 Broyden mixing:
  rms(total) = 0.21690E+01    rms(broyden)= 0.21680E+01
  rms(prec ) = 0.26266E+01
  weight for this iteration     100.00

 eigenvalues of (default mixing * dielectric matrix)
  average eigenvalue GAMMA=   0.4888
  1.2458  0.5102  0.3904  0.3904  0.2698  0.1261

 Free energy of the ion-electron system (eV)
  ---------------------------------------------------
  alpha Z        PSCENC =      1114.93218775
  Ewald energy   TEWEN  =    -20372.37727514
  -Hartree energ DENC   =    -12006.27755986
  -exchange      EXHF   =         0.00000000
  -V(xc)+E(xc)   XCENC  =      1476.60876604
  PAW double counting   =     33813.99354504   -35050.45845610
  entropy T*S    EENTRO =        -0.01395697
  eigenvalues    EBANDS =     -1324.85714821
  atomic energy  EATOM  =     32018.75905649
  Solvation  Ediel_sol  =         0.00000000
  ---------------------------------------------------
  free energy    TOTEN  =      -329.69084095 eV

  energy without entropy =     -329.67688398  energy(sigma->0) =     -329.68386246


--------------------------------------------------------------------------------------------------------




--------------------------------------- Iteration      1(  12)  ---------------------------------------


    POTLOK:  cpu time    0.1309: real time    0.1313
    SETDIJ:  cpu time    0.0206: real time    0.0207
     EDDAV:  cpu time    1.9814: real time    1.9861
    CHARGE:  cpu time    0.0946: real time    0.0948
    MIXING:  cpu time    0.0042: real time    0.0042
    --------------------------------------------
      LOOP:  cpu time    2.2318: real time    2.2371

 eigenvalue-minimisations  :  1392
 total energy-change (2. order) :-0.9131539E+00  (-0.1930841E+01)
 number of electron     367.0000138 magnetization       8.6437374
 augmentation part      120.4572032 magnetization       7.4866884

 Broyden mixing:
  rms(total) = 0.26036E+01    rms(broyden)= 0.26029E+01
  rms(prec ) = 0.33102E+01
  weight for this iteration     100.00

 eigenvalues of (default mixing * dielectric matrix)
  average eigenvalue GAMMA=   0.4988
  1.4684  0.4864  0.4864  0.3665  0.3665  0.1918  0.1257

 Free energy of the ion-electron system (eV)
  ---------------------------------------------------
  alpha Z        PSCENC =      1114.93218775
  Ewald energy   TEWEN  =    -20372.37727514
  -Hartree energ DENC   =    -12010.46809889
  -exchange      EXHF   =         0.00000000
  -V(xc)+E(xc)   XCENC  =      1476.69542501
  PAW double counting   =     34409.14505974   -35649.46756210
  entropy T*S    EENTRO =        -0.03623509
  eigenvalues    EBANDS =     -1317.78655263
  atomic energy  EATOM  =     32018.75905649
  Solvation  Ediel_sol  =         0.00000000
  ---------------------------------------------------
  free energy    TOTEN  =      -330.60399485 eV

  energy without entropy =     -330.56775976  energy(sigma->0) =     -330.58587731


--------------------------------------------------------------------------------------------------------




--------------------------------------- Iteration      1(  13)  ---------------------------------------


    POTLOK:  cpu time    0.1268: real time    0.1271
    SETDIJ:  cpu time    0.0202: real time    0.0202
     EDDAV:  cpu time    1.9925: real time    1.9972
    CHARGE:  cpu time    0.0915: real time    0.0917
    MIXING:  cpu time    0.0043: real time    0.0043
    --------------------------------------------
      LOOP:  cpu time    2.2352: real time    2.2405

 eigenvalue-minimisations  :  1280
 total energy-change (2. order) : 0.6082430E+00  (-0.2253480E+01)
 number of electron     367.0000141 magnetization       5.0134905
 augmentation part      120.7764143 magnetization       4.0852756

 Broyden mixing:
  rms(total) = 0.17274E+01    rms(broyden)= 0.17263E+01
  rms(prec ) = 0.21797E+01
  weight for this iteration     100.00

 eigenvalues of (default mixing * dielectric matrix)
  average eigenvalue GAMMA=   0.5222
  1.6555  0.5894  0.5894  0.4157  0.4157  0.2229  0.1253  0.1637

 Free energy of the ion-electron system (eV)
  ---------------------------------------------------
  alpha Z        PSCENC =      1114.93218775
  Ewald energy   TEWEN  =    -20372.37727514
  -Hartree energ DENC   =    -12009.10402897
  -exchange      EXHF   =         0.00000000
  -V(xc)+E(xc)   XCENC  =      1476.61407584
  PAW double counting   =     34723.71695116   -35966.67016244
  entropy T*S    EENTRO =        -0.02503383
  eigenvalues    EBANDS =     -1315.84152276
  atomic energy  EATOM  =     32018.75905649
  Solvation  Ediel_sol  =         0.00000000
  ---------------------------------------------------
  free energy    TOTEN  =      -329.99575190 eV

  energy without entropy =     -329.97071807  energy(sigma->0) =     -329.98323498


--------------------------------------------------------------------------------------------------------




--------------------------------------- Iteration      1(  14)  ---------------------------------------


    POTLOK:  cpu time    0.1236: real time    0.1239
    SETDIJ:  cpu time    0.0201: real time    0.0202
     EDDAV:  cpu time    1.7419: real time    1.7460
    CHARGE:  cpu time    0.0908: real time    0.0910
    MIXING:  cpu time    0.0046: real time    0.0046
    --------------------------------------------
      LOOP:  cpu time    1.9809: real time    1.9856

 eigenvalue-minimisations  :  1296
 total energy-change (2. order) :-0.6878976E+00  (-0.1643321E+01)
 number of electron     367.0000142 magnetization       3.4490503
 augmentation part      121.3499576 magnetization       2.8977676

 Broyden mixing:
  rms(total) = 0.18521E+01    rms(broyden)= 0.18514E+01
  rms(prec ) = 0.22840E+01
  weight for this iteration     100.00

 eigenvalues of (default mixing * dielectric matrix)
  average eigenvalue GAMMA=   0.5140
  1.7761  0.6342  0.6342  0.4114  0.4114  0.2701  0.2144  0.1255  0.1491

 Free energy of the ion-electron system (eV)
  ---------------------------------------------------
  alpha Z        PSCENC =      1114.93218775
  Ewald energy   TEWEN  =    -20372.37727514
  -Hartree energ DENC   =    -12005.92102954
  -exchange      EXHF   =         0.00000000
  -V(xc)+E(xc)   XCENC  =      1476.51400162
  PAW double counting   =     35276.88482053   -36524.16290875
  entropy T*S    EENTRO =        -0.01766994
  eigenvalues    EBANDS =     -1315.29483251
  atomic energy  EATOM  =     32018.75905649
  Solvation  Ediel_sol  =         0.00000000
  ---------------------------------------------------
  free energy    TOTEN  =      -330.68364948 eV

  energy without entropy =     -330.66597954  energy(sigma->0) =     -330.67481451


--------------------------------------------------------------------------------------------------------




--------------------------------------- Iteration      1(  15)  ---------------------------------------


    POTLOK:  cpu time    0.1205: real time    0.1208
    SETDIJ:  cpu time    0.0199: real time    0.0199
     EDDAV:  cpu time    1.7557: real time    1.7598
    CHARGE:  cpu time    0.0955: real time    0.0957
    MIXING:  cpu time    0.0049: real time    0.0050
    --------------------------------------------
      LOOP:  cpu time    1.9964: real time    2.0011

 eigenvalue-minimisations  :  1200
 total energy-change (2. order) : 0.4083946E+00  (-0.1208495E+01)
 number of electron     367.0000142 magnetization       1.8242322
 augmentation part      121.2878726 magnetization       1.3884387

 Broyden mixing:
  rms(total) = 0.88597E+00    rms(broyden)= 0.88495E+00
  rms(prec ) = 0.11471E+01
  weight for this iteration     100.00

 eigenvalues of (default mixing * dielectric matrix)
  average eigenvalue GAMMA=   0.5507
  1.9986  0.7113  0.7113  0.5664  0.4235  0.4235  0.2381  0.1722  0.1250  0.1375

 Free energy of the ion-electron system (eV)
  ---------------------------------------------------
  alpha Z        PSCENC =      1114.93218775
  Ewald energy   TEWEN  =    -20372.37727514
  -Hartree energ DENC   =    -12009.54180011
  -exchange      EXHF   =         0.00000000
  -V(xc)+E(xc)   XCENC  =      1476.59990480
  PAW double counting   =     35513.62133431   -36764.17663993
  entropy T*S    EENTRO =        -0.02379425
  eigenvalues    EBANDS =     -1308.06822881
  atomic energy  EATOM  =     32018.75905649
  Solvation  Ediel_sol  =         0.00000000
  ---------------------------------------------------
  free energy    TOTEN  =      -330.27525489 eV

  energy without entropy =     -330.25146063  energy(sigma->0) =     -330.26335776


--------------------------------------------------------------------------------------------------------




--------------------------------------- Iteration      1(  16)  ---------------------------------------


    POTLOK:  cpu time    0.1289: real time    0.1292
    SETDIJ:  cpu time    0.0205: real time    0.0205
     EDDAV:  cpu time    1.7893: real time    1.7935
    CHARGE:  cpu time    0.0963: real time    0.0965
    MIXING:  cpu time    0.0051: real time    0.0052
    --------------------------------------------
      LOOP:  cpu time    2.0400: real time    2.0449

 eigenvalue-minimisations  :  1216
 total energy-change (2. order) :-0.1977155E+00  (-0.7064049E+00)
 number of electron     367.0000141 magnetization       1.4684979
 augmentation part      121.2070859 magnetization       1.1207150

 Broyden mixing:
  rms(total) = 0.11751E+01    rms(broyden)= 0.11746E+01
  rms(prec ) = 0.15354E+01
  weight for this iteration     100.00

 eigenvalues of (default mixing * dielectric matrix)
  average eigenvalue GAMMA=   0.5311
  2.0486  0.7607  0.7607  0.4967  0.4301  0.4301  0.2888  0.2206  0.1573  0.1269
  0.1218

 Free energy of the ion-electron system (eV)
  ---------------------------------------------------
  alpha Z        PSCENC =      1114.93218775
  Ewald energy   TEWEN  =    -20372.37727514
  -Hartree energ DENC   =    -12011.03702503
  -exchange      EXHF   =         0.00000000
  -V(xc)+E(xc)   XCENC  =      1476.54586364
  PAW double counting   =     35736.62998143   -36989.51976448
  entropy T*S    EENTRO =        -0.03106041
  eigenvalues    EBANDS =     -1304.37493465
  atomic energy  EATOM  =     32018.75905649
  Solvation  Ediel_sol  =         0.00000000
  ---------------------------------------------------
  free energy    TOTEN  =      -330.47297039 eV

  energy without entropy =     -330.44190998  energy(sigma->0) =     -330.45744019


--------------------------------------------------------------------------------------------------------




--------------------------------------- Iteration      1(  17)  ---------------------------------------


    POTLOK:  cpu time    0.1493: real time    0.1496
    SETDIJ:  cpu time    0.0308: real time    0.0309
     EDDAV:  cpu time    1.9116: real time    1.9161
    CHARGE:  cpu time    0.0969: real time    0.0971
    MIXING:  cpu time    0.0053: real time    0.0053
    --------------------------------------------
      LOOP:  cpu time    2.1938: real time    2.1990

 eigenvalue-minimisations  :  1168
 total energy-change (2. order) : 0.2396791E+00  (-0.5297524E+00)
 number of electron     367.0000141 magnetization       1.2624444
 augmentation part      121.1782312 magnetization       1.1065912

 Broyden mixing:
  rms(total) = 0.83560E+00    rms(broyden)= 0.83498E+00
  rms(prec ) = 0.11416E+01
  weight for this iteration     100.00

 eigenvalues of (default mixing * dielectric matrix)
  average eigenvalue GAMMA=   0.5312
  2.0786  0.8458  0.8458  0.5210  0.5210  0.3957  0.3957  0.2293  0.1613  0.1390
  0.1240  0.1170

 Free energy of the ion-electron system (eV)
  ---------------------------------------------------
  alpha Z        PSCENC =      1114.93218775
  Ewald energy   TEWEN  =    -20372.37727514
  -Hartree energ DENC   =    -12011.21892863
  -exchange      EXHF   =         0.00000000
  -V(xc)+E(xc)   XCENC  =      1476.49410959
  PAW double counting   =     35781.44410475   -37034.59287164
  entropy T*S    EENTRO =        -0.02801435
  eigenvalues    EBANDS =     -1303.64566011
  atomic energy  EATOM  =     32018.75905649
  Solvation  Ediel_sol  =         0.00000000
  ---------------------------------------------------
  free energy    TOTEN  =      -330.23329128 eV

  energy without entropy =     -330.20527694  energy(sigma->0) =     -330.21928411


--------------------------------------------------------------------------------------------------------




--------------------------------------- Iteration      1(  18)  ---------------------------------------


    POTLOK:  cpu time    0.1272: real time    0.1275
    SETDIJ:  cpu time    0.0204: real time    0.0205
     EDDAV:  cpu time    1.8771: real time    1.8816
    CHARGE:  cpu time    0.0985: real time    0.0987
    MIXING:  cpu time    0.0059: real time    0.0059
    --------------------------------------------
      LOOP:  cpu time    2.1291: real time    2.1342

 eigenvalue-minimisations  :  1248
 total energy-change (2. order) : 0.8231703E-01  (-0.3150827E+00)
 number of electron     367.0000142 magnetization       1.0540438
 augmentation part      121.1577074 magnetization       0.7517482

 Broyden mixing:
  rms(total) = 0.68082E+00    rms(broyden)= 0.68034E+00
  rms(prec ) = 0.89121E+00
  weight for this iteration     100.00

 eigenvalues of (default mixing * dielectric matrix)
  average eigenvalue GAMMA=   0.5331
  2.1044  0.9539  0.9539  0.5758  0.5758  0.4019  0.4019  0.2383  0.2086  0.1643
  0.1247  0.1345  0.0929

 Free energy of the ion-electron system (eV)
  ---------------------------------------------------
  alpha Z        PSCENC =      1114.93218775
  Ewald energy   TEWEN  =    -20372.37727514
  -Hartree energ DENC   =    -12010.89250605
  -exchange      EXHF   =         0.00000000
  -V(xc)+E(xc)   XCENC  =      1476.43111510
  PAW double counting   =     35804.99088802   -37058.00898016
  entropy T*S    EENTRO =        -0.03408502
  eigenvalues    EBANDS =     -1303.95137525
  atomic energy  EATOM  =     32018.75905649
  Solvation  Ediel_sol  =         0.00000000
  ---------------------------------------------------
  free energy    TOTEN  =      -330.15097425 eV

  energy without entropy =     -330.11688923  energy(sigma->0) =     -330.13393174


--------------------------------------------------------------------------------------------------------




--------------------------------------- Iteration      1(  19)  ---------------------------------------


    POTLOK:  cpu time    0.1285: real time    0.1288
    SETDIJ:  cpu time    0.0204: real time    0.0205
     EDDAV:  cpu time    1.9087: real time    1.9132
    CHARGE:  cpu time    0.0972: real time    0.0974
    MIXING:  cpu time    0.0055: real time    0.0055
    --------------------------------------------
      LOOP:  cpu time    2.1603: real time    2.1655

 eigenvalue-minimisations  :  1248
 total energy-change (2. order) : 0.7286895E-01  (-0.1564615E+00)
 number of electron     367.0000141 magnetization       1.0512674
 augmentation part      121.1068289 magnetization       0.7780151

 Broyden mixing:
  rms(total) = 0.56399E+00    rms(broyden)= 0.56370E+00
  rms(prec ) = 0.68395E+00
  weight for this iteration     100.00

 eigenvalues of (default mixing * dielectric matrix)
  average eigenvalue GAMMA=   0.5146
  2.0800  1.0004  1.0004  0.5875  0.5875  0.4028  0.4028  0.2659  0.2238  0.1713
  0.1491  0.1261  0.1194  0.0876

 Free energy of the ion-electron system (eV)
  ---------------------------------------------------
  alpha Z        PSCENC =      1114.93218775
  Ewald energy   TEWEN  =    -20372.37727514
  -Hartree energ DENC   =    -12011.47976652
  -exchange      EXHF   =         0.00000000
  -V(xc)+E(xc)   XCENC  =      1476.36858445
  PAW double counting   =     35828.90814092   -37081.65364623
  entropy T*S    EENTRO =        -0.02063595
  eigenvalues    EBANDS =     -1303.51475108
  atomic energy  EATOM  =     32018.75905649
  Solvation  Ediel_sol  =         0.00000000
  ---------------------------------------------------
  free energy    TOTEN  =      -330.07810530 eV

  energy without entropy =     -330.05746935  energy(sigma->0) =     -330.06778732


--------------------------------------------------------------------------------------------------------




--------------------------------------- Iteration      1(  20)  ---------------------------------------


    POTLOK:  cpu time    0.1276: real time    0.1279
    SETDIJ:  cpu time    0.0208: real time    0.0209
     EDDAV:  cpu time    1.8793: real time    1.8837
    CHARGE:  cpu time    0.0980: real time    0.0983
    MIXING:  cpu time    0.0061: real time    0.0061
    --------------------------------------------
      LOOP:  cpu time    2.1318: real time    2.1369

 eigenvalue-minimisations  :  1296
 total energy-change (2. order) : 0.3975119E-01  (-0.5565393E-01)
 number of electron     367.0000142 magnetization       1.0788452
 augmentation part      121.1047348 magnetization       0.7231623

 Broyden mixing:
  rms(total) = 0.40032E+00    rms(broyden)= 0.40017E+00
  rms(prec ) = 0.47700E+00
  weight for this iteration     100.00

 eigenvalues of (default mixing * dielectric matrix)
  average eigenvalue GAMMA=   0.5049
  2.0489  1.0755  1.0755  0.6094  0.6094  0.4073  0.4073  0.2909  0.2282  0.1867
  0.1251  0.1433  0.1433  0.1355  0.0867

 Free energy of the ion-electron system (eV)
  ---------------------------------------------------
  alpha Z        PSCENC =      1114.93218775
  Ewald energy   TEWEN  =    -20372.37727514
  -Hartree energ DENC   =    -12011.54603259
  -exchange      EXHF   =         0.00000000
  -V(xc)+E(xc)   XCENC  =      1476.34927147
  PAW double counting   =     35830.05496481   -37082.49485520
  entropy T*S    EENTRO =        -0.02956610
  eigenvalues    EBANDS =     -1303.68610560
  atomic energy  EATOM  =     32018.75905649
  Solvation  Ediel_sol  =         0.00000000
  ---------------------------------------------------
  free energy    TOTEN  =      -330.03835411 eV

  energy without entropy =     -330.00878801  energy(sigma->0) =     -330.02357106


--------------------------------------------------------------------------------------------------------




--------------------------------------- Iteration      1(  21)  ---------------------------------------


    POTLOK:  cpu time    0.1287: real time    0.1290
    SETDIJ:  cpu time    0.0205: real time    0.0205
     EDDAV:  cpu time    1.6627: real time    1.6667
    CHARGE:  cpu time    0.0924: real time    0.0926
    MIXING:  cpu time    0.0060: real time    0.0060
    --------------------------------------------
      LOOP:  cpu time    1.9103: real time    1.9148

 eigenvalue-minimisations  :  1168
 total energy-change (2. order) :-0.1617468E-03  (-0.3015736E-01)
 number of electron     367.0000142 magnetization       1.0950886
 augmentation part      121.1099160 magnetization       0.7393656

 Broyden mixing:
  rms(total) = 0.37557E+00    rms(broyden)= 0.37548E+00
  rms(prec ) = 0.43879E+00
  weight for this iteration     100.00

 eigenvalues of (default mixing * dielectric matrix)
  average eigenvalue GAMMA=   0.4750
  2.0503  1.0735  1.0735  0.6093  0.6093  0.4067  0.4067  0.2772  0.2248  0.1804
  0.1513  0.1513  0.1249  0.1356  0.0883  0.0360

 Free energy of the ion-electron system (eV)
  ---------------------------------------------------
  alpha Z        PSCENC =      1114.93218775
  Ewald energy   TEWEN  =    -20372.37727514
  -Hartree energ DENC   =    -12011.64032630
  -exchange      EXHF   =         0.00000000
  -V(xc)+E(xc)   XCENC  =      1476.33195055
  PAW double counting   =     35834.36067273   -37086.26111080
  entropy T*S    EENTRO =        -0.01834154
  eigenvalues    EBANDS =     -1304.12532960
  atomic energy  EATOM  =     32018.75905649
  Solvation  Ediel_sol  =         0.00000000
  ---------------------------------------------------
  free energy    TOTEN  =      -330.03851585 eV

  energy without entropy =     -330.02017431  energy(sigma->0) =     -330.02934508


--------------------------------------------------------------------------------------------------------




--------------------------------------- Iteration      1(  22)  ---------------------------------------


    POTLOK:  cpu time    0.1231: real time    0.1234
    SETDIJ:  cpu time    0.0201: real time    0.0201
     EDDAV:  cpu time    1.6256: real time    1.6294
    CHARGE:  cpu time    0.0951: real time    0.0953
    MIXING:  cpu time    0.0065: real time    0.0065
    --------------------------------------------
      LOOP:  cpu time    1.8702: real time    1.8746

 eigenvalue-minimisations  :  1200
 total energy-change (2. order) : 0.2586681E-02  (-0.7618762E-02)
 number of electron     367.0000142 magnetization       1.0956259
 augmentation part      121.1154759 magnetization       0.7561937

 Broyden mixing:
  rms(total) = 0.30635E+00    rms(broyden)= 0.30632E+00
  rms(prec ) = 0.34689E+00
  weight for this iteration     100.00

 eigenvalues of (default mixing * dielectric matrix)
  average eigenvalue GAMMA=   0.4698
  2.0586  1.0593  1.0593  0.6035  0.6035  0.4053  0.4053  0.2413  0.2413  0.2856
  0.2278  0.1837  0.1568  0.1342  0.1243  0.1127  0.0837

 Free energy of the ion-electron system (eV)
  ---------------------------------------------------
  alpha Z        PSCENC =      1114.93218775
  Ewald energy   TEWEN  =    -20372.37727514
  -Hartree energ DENC   =    -12011.88939026
  -exchange      EXHF   =         0.00000000
  -V(xc)+E(xc)   XCENC  =      1476.34380240
  PAW double counting   =     35838.14109708   -37089.89341000
  entropy T*S    EENTRO =        -0.01723872
  eigenvalues    EBANDS =     -1304.03475878
  atomic energy  EATOM  =     32018.75905649
  Solvation  Ediel_sol  =         0.00000000
  ---------------------------------------------------
  free energy    TOTEN  =      -330.03592917 eV

  energy without entropy =     -330.01869045  energy(sigma->0) =     -330.02730981


--------------------------------------------------------------------------------------------------------




--------------------------------------- Iteration      1(  23)  ---------------------------------------


    POTLOK:  cpu time    0.1284: real time    0.1287
    SETDIJ:  cpu time    0.0206: real time    0.0206
     EDDAV:  cpu time    1.8269: real time    1.8313
    CHARGE:  cpu time    0.0972: real time    0.0974
    MIXING:  cpu time    0.0066: real time    0.0066
    --------------------------------------------
      LOOP:  cpu time    2.0797: real time    2.0846

 eigenvalue-minimisations  :  1248
 total energy-change (2. order) :-0.5744781E-02  (-0.2500392E-02)
 number of electron     367.0000142 magnetization       1.0767576
 augmentation part      121.1194500 magnetization       0.7421928

 Broyden mixing:
  rms(total) = 0.32701E+00    rms(broyden)= 0.32699E+00
  rms(prec ) = 0.37531E+00
  weight for this iteration     100.00

 eigenvalues of (default mixing * dielectric matrix)
  average eigenvalue GAMMA=   0.5040
  2.0784  1.0335  1.0335  0.6662  0.6662  0.6060  0.6060  0.4087  0.4087  0.3651
  0.2316  0.2012  0.1604  0.1604  0.1336  0.1246  0.1049  0.0824

 Free energy of the ion-electron system (eV)
  ---------------------------------------------------
  alpha Z        PSCENC =      1114.93218775
  Ewald energy   TEWEN  =    -20372.37727514
  -Hartree energ DENC   =    -12012.12610385
  -exchange      EXHF   =         0.00000000
  -V(xc)+E(xc)   XCENC  =      1476.36118549
  PAW double counting   =     35842.30819384   -37093.99807077
  entropy T*S    EENTRO =        -0.01345556
  eigenvalues    EBANDS =     -1303.88739220
  atomic energy  EATOM  =     32018.75905649
  Solvation  Ediel_sol  =         0.00000000
  ---------------------------------------------------
  free energy    TOTEN  =      -330.04167395 eV

  energy without entropy =     -330.02821839  energy(sigma->0) =     -330.03494617


--------------------------------------------------------------------------------------------------------




--------------------------------------- Iteration      1(  24)  ---------------------------------------


    POTLOK:  cpu time    0.1281: real time    0.1284
    SETDIJ:  cpu time    0.0208: real time    0.0208
     EDDAV:  cpu time    1.8449: real time    1.8492
    CHARGE:  cpu time    0.0954: real time    0.0956
    MIXING:  cpu time    0.0066: real time    0.0067
    --------------------------------------------
      LOOP:  cpu time    2.0958: real time    2.1008

 eigenvalue-minimisations  :  1280
 total energy-change (2. order) :-0.4326636E-02  (-0.1513657E-02)
 number of electron     367.0000142 magnetization       1.0823798
 augmentation part      121.1179894 magnetization       0.7475139

 Broyden mixing:
  rms(total) = 0.31442E+00    rms(broyden)= 0.31441E+00
  rms(prec ) = 0.36248E+00
  weight for this iteration     100.00

 eigenvalues of (default mixing * dielectric matrix)
  average eigenvalue GAMMA=   0.5439
  2.0769  1.1866  1.1866  1.0097  1.0097  0.6156  0.6156  0.4103  0.4103  0.4052
  0.2359  0.2211  0.1890  0.1653  0.1498  0.1334  0.1245  0.1058  0.0826

 Free energy of the ion-electron system (eV)
  ---------------------------------------------------
  alpha Z        PSCENC =      1114.93218775
  Ewald energy   TEWEN  =    -20372.37727514
  -Hartree energ DENC   =    -12012.29128667
  -exchange      EXHF   =         0.00000000
  -V(xc)+E(xc)   XCENC  =      1476.37349769
  PAW double counting   =     35845.81263303   -37097.54872248
  entropy T*S    EENTRO =        -0.01153866
  eigenvalues    EBANDS =     -1303.69455262
  atomic energy  EATOM  =     32018.75905649
  Solvation  Ediel_sol  =         0.00000000
  ---------------------------------------------------
  free energy    TOTEN  =      -330.04600059 eV

  energy without entropy =     -330.03446193  energy(sigma->0) =     -330.04023126


--------------------------------------------------------------------------------------------------------




--------------------------------------- Iteration      1(  25)  ---------------------------------------


    POTLOK:  cpu time    0.1252: real time    0.1255
    SETDIJ:  cpu time    0.0201: real time    0.0202
     EDDAV:  cpu time    1.9665: real time    1.9711
    CHARGE:  cpu time    0.0978: real time    0.0980
    MIXING:  cpu time    0.0071: real time    0.0071
    --------------------------------------------
      LOOP:  cpu time    2.2167: real time    2.2220

 eigenvalue-minimisations  :  1344
 total energy-change (2. order) :-0.7251738E-02  (-0.1950505E-02)
 number of electron     367.0000142 magnetization       1.1235108
 augmentation part      121.1156495 magnetization       0.7876904

 Broyden mixing:
  rms(total) = 0.30070E+00    rms(broyden)= 0.30069E+00
  rms(prec ) = 0.35232E+00
  weight for this iteration     100.00

 eigenvalues of (default mixing * dielectric matrix)
  average eigenvalue GAMMA=   0.6077
  2.0458  1.7985  1.7985  1.0632  1.0632  0.6389  0.6389  0.4409  0.4409  0.4136
  0.4136  0.2360  0.2198  0.1865  0.1617  0.1479  0.1245  0.1332  0.1055  0.0825

 Free energy of the ion-electron system (eV)
  ---------------------------------------------------
  alpha Z        PSCENC =      1114.93218775
  Ewald energy   TEWEN  =    -20372.37727514
  -Hartree energ DENC   =    -12012.61462260
  -exchange      EXHF   =         0.00000000
  -V(xc)+E(xc)   XCENC  =      1476.39938565
  PAW double counting   =     35847.08918199   -37098.79612308
  entropy T*S    EENTRO =        -0.00796781
  eigenvalues    EBANDS =     -1303.43707558
  atomic energy  EATOM  =     32018.75905649
  Solvation  Ediel_sol  =         0.00000000
  ---------------------------------------------------
  free energy    TOTEN  =      -330.05325233 eV

  energy without entropy =     -330.04528452  energy(sigma->0) =     -330.04926842


--------------------------------------------------------------------------------------------------------




--------------------------------------- Iteration      1(  26)  ---------------------------------------


    POTLOK:  cpu time    0.1279: real time    0.1282
    SETDIJ:  cpu time    0.0205: real time    0.0206
     EDDAV:  cpu time    2.1420: real time    2.1471
    CHARGE:  cpu time    0.1217: real time    0.1220
    MIXING:  cpu time    0.0079: real time    0.0079
    --------------------------------------------
      LOOP:  cpu time    2.4200: real time    2.4257

 eigenvalue-minimisations  :  1296
 total energy-change (2. order) :-0.2150497E-01  (-0.1716283E-01)
 number of electron     367.0000142 magnetization       1.1413617
 augmentation part      121.0996052 magnetization       0.8196163

 Broyden mixing:
  rms(total) = 0.27780E+00    rms(broyden)= 0.27773E+00
  rms(prec ) = 0.34477E+00
  weight for this iteration     100.00

 eigenvalues of (default mixing * dielectric matrix)
  average eigenvalue GAMMA=   0.5937
  2.0397  1.6648  1.6648  1.1846  1.1846  0.6713  0.6713  0.4798  0.4798  0.4115
  0.4115  0.2544  0.2284  0.1974  0.1683  0.1639  0.1466  0.1245  0.1332  0.1055
  0.0825

 Free energy of the ion-electron system (eV)
  ---------------------------------------------------
  alpha Z        PSCENC =      1114.93218775
  Ewald energy   TEWEN  =    -20372.37727514
  -Hartree energ DENC   =    -12013.63652426
  -exchange      EXHF   =         0.00000000
  -V(xc)+E(xc)   XCENC  =      1476.48043927
  PAW double counting   =     35854.41406732   -37105.81600536
  entropy T*S    EENTRO =        -0.00366740
  eigenvalues    EBANDS =     -1302.82703597
  atomic energy  EATOM  =     32018.75905649
  Solvation  Ediel_sol  =         0.00000000
  ---------------------------------------------------
  free energy    TOTEN  =      -330.07475730 eV

  energy without entropy =     -330.07108990  energy(sigma->0) =     -330.07292360


--------------------------------------------------------------------------------------------------------




--------------------------------------- Iteration      1(  27)  ---------------------------------------


    POTLOK:  cpu time    0.1648: real time    0.1652
    SETDIJ:  cpu time    0.0347: real time    0.0348
     EDDAV:  cpu time    2.2461: real time    2.2514
    CHARGE:  cpu time    0.1255: real time    0.1258
    MIXING:  cpu time    0.0087: real time    0.0087
    --------------------------------------------
      LOOP:  cpu time    2.5798: real time    2.5859

 eigenvalue-minimisations  :  1360
 total energy-change (2. order) : 0.2270492E-01  (-0.1438580E-01)
 number of electron     367.0000142 magnetization       1.0702954
 augmentation part      121.0983129 magnetization       0.7669242

 Broyden mixing:
  rms(total) = 0.18277E+00    rms(broyden)= 0.18269E+00
  rms(prec ) = 0.21189E+00
  weight for this iteration     100.00

 eigenvalues of (default mixing * dielectric matrix)
  average eigenvalue GAMMA=   0.5762
  2.2035  1.4297  1.4297  1.4352  0.9200  0.6846  0.6846  0.5359  0.5359  0.4108
  0.4108  0.4299  0.2355  0.2145  0.1932  0.1686  0.1617  0.1245  0.1332  0.1456
  0.1055  0.0825

 Free energy of the ion-electron system (eV)
  ---------------------------------------------------
  alpha Z        PSCENC =      1114.93218775
  Ewald energy   TEWEN  =    -20372.37727514
  -Hartree energ DENC   =    -12014.43561240
  -exchange      EXHF   =         0.00000000
  -V(xc)+E(xc)   XCENC  =      1476.54354090
  PAW double counting   =     35865.01269313   -37115.93215974
  entropy T*S    EENTRO =        -0.00357068
  eigenvalues    EBANDS =     -1302.55091270
  atomic energy  EATOM  =     32018.75905649
  Solvation  Ediel_sol  =         0.00000000
  ---------------------------------------------------
  free energy    TOTEN  =      -330.05205238 eV

  energy without entropy =     -330.04848170  energy(sigma->0) =     -330.05026704


--------------------------------------------------------------------------------------------------------




--------------------------------------- Iteration      1(  28)  ---------------------------------------


    POTLOK:  cpu time    0.1825: real time    0.1829
[...]
  energy-cutoff  :      500.00
  volume of cell :      528.80
      direct lattice vectors                 reciprocal lattice vectors
     0.000057368  5.546697955  0.000178158    -0.000001838  0.180287445 -0.000005148
    -3.495139131  0.000241403  9.701746049    -0.001406553 -0.000003280  0.102567507
     9.778409951  0.000103524  0.134095596     0.101763365 -0.000002230  0.036661145

  length of vectors
     5.546697958 10.312122672  9.779329364     0.180287445  0.102577151  0.108165716


 FORCES acting on ions
    electron-ion (+dipol)            ewald-force                    non-local-force                 convergence-correction
 -----------------------------------------------------------------------------------------------
   0.522E+00 -.748E-01 0.671E+00   -.514E+00 -.926E-01 -.678E+00   -.174E-01 0.150E+00 -.637E-02   0.570E-02 0.102E-02 0.808E-02
   0.522E+01 -.368E+00 0.267E+01   -.601E+01 0.757E+00 -.259E+01   0.769E+00 -.370E+00 -.678E-01   0.176E-03 -.233E-02 -.982E-02
   -.759E+00 0.200E+00 0.172E+00   0.739E+00 -.183E+00 -.173E+00   0.339E-01 -.162E-01 -.539E-02   -.514E-02 0.172E-02 0.508E-02
   -.376E+00 0.175E+00 -.568E+00   0.368E+00 -.831E+00 0.573E+00   0.146E-01 0.638E+00 0.949E-02   -.474E-02 0.192E-02 -.964E-02
   -.547E+01 0.295E+00 -.278E+01   0.624E+01 0.144E+00 0.271E+01   -.745E+00 -.432E+00 0.699E-01   0.170E-02 0.883E-03 -.423E-02
   0.733E+01 0.253E+02 -.162E+01   -.726E+01 -.255E+02 0.205E+01   -.561E-01 0.234E+00 -.419E+00   -.705E-02 0.367E-02 -.434E-02
   0.141E+02 0.102E+02 -.476E+02   -.146E+02 -.104E+02 0.480E+02   0.498E+00 0.216E+00 -.392E+00   0.102E-01 0.512E-02 0.116E-02
   0.430E+02 0.825E+01 -.635E+01   -.437E+02 -.840E+01 0.648E+01   0.761E+00 0.142E+00 -.133E+00   -.137E-01 0.470E-02 -.132E-02
   0.217E+02 -.791E+01 -.742E+02   -.223E+02 0.807E+01 0.751E+02   0.635E+00 -.161E+00 -.864E+00   -.151E-01 -.429E-02 -.279E-03
   0.810E+01 -.107E+02 -.556E+02   -.858E+01 0.110E+02 0.563E+02   0.469E+00 -.279E+00 -.764E+00   0.968E-02 -.475E-02 0.170E-02
   -.171E+02 -.247E+02 -.266E+02   0.172E+02 0.248E+02 0.271E+02   -.960E-01 -.137E+00 -.470E+00   -.673E-02 -.420E-02 -.441E-02
   -.248E+02 0.113E+02 0.479E+02   0.256E+02 -.115E+02 -.484E+02   -.796E+00 0.178E+00 0.554E+00   0.104E-01 0.313E-02 0.580E-02
   -.510E+02 -.126E+02 -.985E+01   0.520E+02 0.128E+02 0.102E+02   -.990E+00 -.156E+00 -.332E+00   0.997E-02 -.267E-02 0.601E-02
   0.250E+02 0.110E+02 -.505E+02   -.258E+02 -.111E+02 0.511E+02   0.776E+00 0.174E+00 -.581E+00   0.262E-01 0.194E-02 0.869E-03
   -.139E+02 0.101E+02 0.479E+02   0.144E+02 -.104E+02 -.483E+02   -.490E+00 0.216E+00 0.387E+00   -.235E-02 0.692E-02 -.162E-02
   -.432E+02 0.813E+01 0.592E+01   0.440E+02 -.828E+01 -.606E+01   -.753E+00 0.137E+00 0.127E+00   0.660E-02 0.581E-02 0.256E-02
   -.219E+02 -.786E+01 0.749E+02   0.226E+02 0.803E+01 -.758E+02   -.635E+00 -.163E+00 0.877E+00   0.857E-02 -.652E-02 0.202E-02
   -.783E+01 -.106E+02 0.547E+02   0.829E+01 0.109E+02 -.555E+02   -.461E+00 -.275E+00 0.744E+00   -.344E-02 -.653E-02 -.174E-02
   0.515E+02 -.123E+02 0.822E+01   -.525E+02 0.124E+02 -.856E+01   0.976E+00 -.155E+00 0.325E+00   0.271E-01 -.224E-02 0.124E-02
   -.748E+01 0.255E+02 0.385E+01   0.744E+01 -.258E+02 -.427E+01   0.746E-01 0.247E+00 0.436E+00   -.301E-01 0.295E-02 -.339E-02
   0.166E+02 -.248E+02 0.288E+02   -.167E+02 0.249E+02 -.293E+02   0.117E+00 -.150E+00 0.484E+00   -.300E-01 -.365E-02 -.291E-02
   -.870E+01 0.333E+02 0.384E+03   0.855E+01 -.359E+02 -.407E+03   0.138E+00 0.255E+01 0.229E+02   0.158E-01 0.209E-01 0.184E-01
   -.107E+02 -.211E+01 -.390E+03   0.110E+02 0.169E+01 0.416E+03   -.311E+00 0.436E+00 -.254E+02   0.707E-02 -.146E-01 0.117E-02
   0.981E+01 0.332E+02 -.385E+03   -.977E+01 -.358E+02 0.408E+03   -.522E-01 0.251E+01 -.229E+02   0.128E-01 0.495E-02 0.152E-01
   0.117E+02 -.197E+01 0.390E+03   -.121E+02 0.151E+01 -.415E+03   0.405E+00 0.454E+00 0.254E+02   -.576E-02 0.434E-02 -.105E-01
   0.354E+02 0.669E+00 0.393E+03   -.391E+02 -.812E+00 -.414E+03   0.372E+01 0.134E+00 0.210E+02   -.346E-01 0.941E-02 0.140E-01
   -.481E+02 0.197E+02 -.356E+03   0.524E+02 -.208E+02 0.374E+03   -.431E+01 0.119E+01 -.181E+02   -.152E-01 0.900E-02 -.115E-02
   -.968E+01 -.246E+02 -.367E+03   0.962E+01 0.265E+02 0.389E+03   0.560E-01 -.191E+01 -.220E+02   0.130E-02 -.872E-02 -.657E-02
   0.191E+02 -.413E+00 0.410E+03   -.203E+02 0.602E+00 -.436E+03   0.118E+01 -.181E+00 0.259E+02   -.122E-01 -.948E-02 0.388E-02
   -.336E+02 0.745E+00 -.394E+03   0.371E+02 -.899E+00 0.415E+03   -.348E+01 0.144E+00 -.211E+02   0.978E-03 0.111E-01 0.124E-01
   0.486E+02 0.199E+02 0.355E+03   -.530E+02 -.211E+02 -.373E+03   0.440E+01 0.121E+01 0.180E+02   -.748E-02 0.102E-01 -.203E-01
   0.106E+02 -.246E+02 0.367E+03   -.106E+02 0.265E+02 -.389E+03   0.671E-01 -.190E+01 0.221E+02   -.471E-02 -.105E-01 -.206E-01
   -.180E+02 -.336E+00 -.410E+03   0.190E+02 0.520E+00 0.436E+03   -.104E+01 -.174E+00 -.259E+02   -.232E-02 -.110E-01 0.166E-01
   -.140E+02 -.319E+02 0.394E+03   0.147E+02 0.343E+02 -.418E+03   -.667E+00 -.234E+01 0.234E+02   0.104E-01 -.204E-01 0.226E-01
   -.354E+02 0.381E+01 -.357E+03   0.392E+02 -.384E+01 0.377E+03   -.381E+01 0.564E-02 -.198E+02   0.121E-01 0.143E-01 -.267E-02
   0.151E+02 -.318E+02 -.395E+03   -.159E+02 0.341E+02 0.418E+03   0.745E+00 -.230E+01 -.234E+02   0.123E-01 -.484E-02 0.149E-01
   0.364E+02 0.340E+01 0.356E+03   -.403E+02 -.335E+01 -.376E+03   0.389E+01 -.472E-01 0.197E+02   -.463E-02 -.449E-02 -.101E-01
   -.186E+02 0.261E+02 0.382E+03   0.189E+02 -.279E+02 -.405E+03   -.281E+00 0.175E+01 0.228E+02   -.572E-03 -.133E-01 -.532E-03
   0.149E+02 0.321E+02 -.352E+03   -.157E+02 -.342E+02 0.373E+03   0.844E+00 0.208E+01 -.202E+02   -.216E-01 0.215E-01 -.206E-01
   0.170E+02 0.264E+02 -.381E+03   -.171E+02 -.282E+02 0.404E+03   0.158E+00 0.181E+01 -.227E+02   -.136E-01 0.501E-02 0.156E-01
   -.155E+02 0.318E+02 0.353E+03   0.164E+02 -.339E+02 -.373E+03   -.888E+00 0.205E+01 0.202E+02   0.520E-02 0.523E-02 -.192E-01
   0.542E+02 0.604E+00 0.372E+03   -.597E+02 -.701E+00 -.393E+03   0.553E+01 0.895E-01 0.208E+02   0.209E-01 0.771E-02 0.519E-02
   0.274E+02 0.308E+02 -.384E+03   -.282E+02 -.332E+02 0.406E+03   0.847E+00 0.240E+01 -.223E+02   0.274E-01 0.711E-02 -.182E-01
   0.139E+02 -.325E+02 -.372E+03   -.137E+02 0.351E+02 0.393E+03   -.191E+00 -.263E+01 -.213E+02   0.560E-02 -.797E-02 -.877E-02
   0.141E+02 -.872E+00 0.399E+03   -.143E+02 0.119E+01 -.425E+03   0.168E+00 -.307E+00 0.253E+02   0.357E-02 -.794E-02 0.109E-01
   -.551E+02 0.603E+00 -.372E+03   0.608E+02 -.681E+00 0.392E+03   -.569E+01 0.755E-01 -.207E+02   -.462E-03 0.188E-02 0.988E-02
   -.285E+02 0.302E+02 0.385E+03   0.294E+02 -.325E+02 -.408E+03   -.989E+00 0.233E+01 0.225E+02   0.946E-02 0.182E-02 -.435E-02
   -.155E+02 -.323E+02 0.371E+03   0.155E+02 0.349E+02 -.393E+03   -.172E-02 -.261E+01 0.213E+02   0.129E-01 -.196E-02 -.788E-02
   -.145E+02 -.878E+00 -.399E+03   0.148E+02 0.118E+01 0.424E+03   -.264E+00 -.299E+00 -.252E+02   -.514E-02 -.172E-02 0.104E-01
   -.229E+02 -.267E+02 0.386E+03   0.237E+02 0.285E+02 -.408E+03   -.793E+00 -.185E+01 0.222E+02   -.769E-02 0.136E-01 0.377E-02
   -.117E+02 -.273E+02 -.349E+03   0.141E+02 0.287E+02 0.369E+03   -.231E+01 -.141E+01 -.200E+02   -.143E-01 -.214E-01 -.250E-01
   0.213E+02 -.268E+02 -.385E+03   -.219E+02 0.286E+02 0.407E+03   0.678E+00 -.188E+01 -.222E+02   -.404E-02 -.447E-02 0.107E-01
   0.116E+02 -.270E+02 0.349E+03   -.139E+02 0.284E+02 -.369E+03   0.233E+01 -.137E+01 0.200E+02   -.420E-02 -.519E-02 -.144E-01
 -----------------------------------------------------------------------------------------------
   -.165E+00 -.665E-01 0.195E-01   -.327E-12 -.711E-14 -.171E-12   0.169E+00 0.492E-01 -.635E-02   -.263E-02 0.254E-02 -.144E-01
 
 
 POSITION                                       TOTAL-FORCE (eV/Angst)
 -----------------------------------------------------------------------------------
      4.01689      1.33753      2.49704        -0.004011     -0.015851     -0.005574
      4.46770      2.88879      7.40133        -0.016862      0.016755     -0.000648
      8.89849      1.38458      2.55815         0.008186      0.003058     -0.000765
      7.15727      1.13868      7.40660         0.002046     -0.016552      0.004671
      0.05791      2.91196      7.28664         0.020097      0.008005      0.002102
      6.27213      5.54160      9.80648        -0.000902      0.002928      0.001822
      2.45580      1.38962      0.04719        -0.000232     -0.003578      0.001077
      7.33532      1.37969      0.11583        -0.001161      0.000661      0.003767
      7.34015      4.16616      0.16107        -0.001208      0.000082      0.004188
      2.44562      4.16535      0.05330         0.000262      0.003064      0.000747
      6.28408      2.78248      9.81855        -0.002492     -0.002941     -0.000342
      1.37972      0.00210      9.74027         0.000403      0.000292      0.003310
      4.87528      2.78185      0.07468         0.001973      0.001054      0.003290
      3.15543      0.00179      4.95452        -0.000738      0.004165     -0.010624
      5.57548      1.38948      4.93748        -0.000676     -0.000888     -0.000280
      0.69584      1.38032      4.87043         0.002048     -0.000430     -0.002409
      0.69153      4.16673      4.82446         0.000986     -0.000794     -0.003730
      5.58573      4.16507      4.93214         0.001917      0.001955      0.000295
      3.15488      2.78252      4.91779        -0.001595     -0.005298     -0.011255
     -1.73515      5.54132      4.87318        -0.001294     -0.001334      0.005673
     -1.74696      2.78194      4.86098        -0.002046      0.000364      0.005892
      4.80799      0.01527      3.99285         0.009667      0.001997     -0.004147
      1.45413      5.53500      5.79576        -0.001268     -0.001591     -0.006182
      3.21863      0.01567      0.99637        -0.005334      0.000674      0.000652
      3.07874      5.53520      8.89594         0.002095      0.000448      0.001637
      7.30488      1.38059      4.03133         0.001521      0.001193      0.005531
     -1.06169      1.41014      5.88245        -0.000625     -0.001512      0.008997
     -0.95378      4.14068      5.81449         0.000113     -0.000269      0.008450
      7.30448      4.16916      4.04345         0.001710     -0.001084      0.005401
      0.72829      1.38070      0.94568        -0.005674      0.000522      0.002338
      5.59912      1.41081      8.79635         0.000343     -0.000208      0.001331
      5.48766      4.14088      8.86722         0.002564      0.000066     -0.002981
      0.72719      4.16925      0.93484        -0.004460     -0.001806      0.002539
      4.80866      2.76851      3.97635         0.009854      0.000072     -0.004270
      1.43873      2.78898      5.80804        -0.000252     -0.000835     -0.007348
      3.21812      2.76837      1.01257        -0.002895      0.000673      0.000973
      3.09382      2.78802      8.88343         0.001704      0.001714      0.001832
     -0.09543      0.03383      3.91111        -0.001772     -0.002043     -0.004959
      6.34601      0.01037      5.89897        -0.006761      0.000946      0.005415
      8.13042      0.03339      1.07085        -0.003647     -0.000094      0.007905
     -1.80557      0.01057      8.78352         0.001393      0.001501     -0.002824
      2.48403      1.37674      3.94362         0.007233      0.000082     -0.008532
      3.92283      1.42109      5.90627        -0.001722     -0.000184     -0.004985
      3.90229      4.14195      5.89537        -0.000547      0.000738     -0.001495
      2.40030      4.17914      3.97517         0.004675     -0.001365     -0.010556
      5.54497      1.37654      1.04955        -0.005581      0.000263      0.003048
      0.61255      1.42089      8.78761         0.005911      0.000660     -0.004052
      0.63426      4.14259      8.79869         0.003824      0.001880     -0.002765
      5.63279      4.17827      1.01633        -0.007125      0.000247      0.003872
     -0.10000      2.73616      3.91090        -0.002527      0.001646     -0.002654
      6.31676      2.76832      5.91474        -0.005755     -0.000086      0.005357
      8.13498      2.73559      1.07120        -0.001980      0.000472      0.005046
     -1.77508      2.76920      8.76754         0.000618      0.000567     -0.003781
 -----------------------------------------------------------------------------------
    total drift:                                0.001514     -0.014795     -0.001221


--------------------------------------------------------------------------------------------------------



  FREE ENERGIE OF THE ION-ELECTRON SYSTEM (eV)
  ---------------------------------------------------
  free  energy   TOTEN  =      -330.1268570705 eV

  energy  without entropy=     -330.1265579473  energy(sigma->0) =     -330.12670751
 
 d Force = 0.1195677E-03[ 0.114E-03, 0.125E-03]  d Energy = 0.1139090E-03 0.566E-05
 d Force =-0.1968715E+01[-0.197E+01,-0.197E+01]  d Ewald  =-0.2743357E+01 0.775E+00


--------------------------------------------------------------------------------------------------------


    POTLOK:  cpu time    0.1495: real time    0.1498


--------------------------------------------------------------------------------------------------------


 Quasi-Newton relaxation of ions (Broydens 2nd method)
  g(Force)  = 0.179E-03   g(Stress)= 0.376E-03

 retain information from N=  1 steps
 eigenvalues of (default step * inverse Hessian matrix)
  average eigenvalue of G=   0.0776
 eigenvalue spectrum of G is  0.0776


--------------------------------------------------------------------------------------------------------


     LOOP+:  cpu time   15.6705: real time   15.7766
    4ORBIT:  cpu time    0.0000: real time    0.0000

volume of typ            1:     7.4 %

volume of typ            2:    19.3 %

volume of typ            3:     9.9 %
 
total charge     
 
# of ion       s       p       d       tot
------------------------------------------
    1        2.062   0.197   0.073   2.332
    2        2.064   0.197   0.074   2.335
    3        2.059   0.187   0.070   2.316
    4        2.067   0.212   0.078   2.357
    5        2.063   0.197   0.074   2.334
    6        0.294   0.415   7.844   8.552
    7        0.295   0.416   7.847   8.558
    8        0.284   0.390   7.856   8.530
    9        0.291   0.405   7.838   8.534
   10        0.285   0.395   7.837   8.518
   11        0.297   0.421   7.846   8.564
   12        0.295   0.414   7.834   8.543
   13        0.297   0.422   7.843   8.562
   14        0.295   0.415   7.833   8.543
   15        0.295   0.414   7.847   8.556
   16        0.284   0.390   7.856   8.531
   17        0.291   0.406   7.837   8.534
   18        0.285   0.394   7.837   8.516
   19        0.297   0.422   7.842   8.562
   20        0.294   0.415   7.843   8.553
   21        0.297   0.421   7.846   8.564
   22        1.272   2.759   0.008   4.039
   23        1.282   2.734   0.008   4.024
   24        1.273   2.758   0.008   4.039
   25        1.282   2.734   0.008   4.024
   26        1.276   2.751   0.007   4.034
   27        1.267   2.770   0.007   4.044
   28        1.271   2.761   0.008   4.040
   29        1.284   2.727   0.008   4.020
   30        1.276   2.751   0.007   4.034
   31        1.267   2.770   0.007   4.044
   32        1.272   2.760   0.008   4.039
   33        1.284   2.728   0.008   4.020
   34        1.274   2.750   0.008   4.032
   35        1.270   2.768   0.007   4.046
   36        1.275   2.749   0.008   4.032
   37        1.270   2.769   0.007   4.046
   38        1.271   2.761   0.008   4.041
   39        1.271   2.766   0.007   4.044
   40        1.271   2.762   0.008   4.041
   41        1.271   2.765   0.007   4.044
   42        1.275   2.752   0.007   4.035
   43        1.272   2.755   0.007   4.035
   44        1.270   2.768   0.008   4.045
   45        1.285   2.725   0.008   4.018
   46        1.275   2.752   0.007   4.035
   47        1.273   2.754   0.007   4.034
   48        1.270   2.769   0.008   4.046
   49        1.285   2.725   0.008   4.017
   50        1.272   2.758   0.008   4.037
   51        1.270   2.763   0.007   4.040
   52        1.272   2.758   0.008   4.038
   53        1.270   2.763   0.007   4.040
--------------------------------------------------
tot          55.76   95.68  126.10  277.54
 
magnetization (x)
 
# of ion       s       p       d       tot
------------------------------------------
    1        0.004   0.006   0.000   0.010
    2        0.000  -0.000  -0.000  -0.000
    3       -0.003  -0.001  -0.000  -0.005
    4        0.004   0.007   0.000   0.011
    5        0.000  -0.000  -0.000  -0.000
    6       -0.000  -0.000  -0.011  -0.011
    7       -0.000   0.000  -0.174  -0.174
    8        0.004  -0.000   0.478   0.482
    9       -0.000  -0.000  -0.104  -0.105
   10        0.000   0.000   0.165   0.165
   11       -0.000  -0.000  -0.006  -0.006
   12       -0.000  -0.000   0.003   0.003
   13       -0.000  -0.000   0.005   0.005
   14       -0.000  -0.000   0.004   0.004
   15       -0.000   0.000  -0.186  -0.186
   16        0.003  -0.000   0.469   0.472
   17       -0.000  -0.000  -0.106  -0.106
   18        0.000   0.000   0.173   0.173
   19       -0.000  -0.000   0.007   0.007
   20       -0.000  -0.000  -0.009  -0.009
   21       -0.000  -0.000  -0.005  -0.005
   22        0.001   0.000   0.000   0.001
   23        0.000   0.009   0.000   0.009
   24        0.001   0.000   0.000   0.001
   25        0.000   0.009   0.000   0.009
   26       -0.003  -0.021  -0.000  -0.024
   27        0.005   0.044   0.000   0.049
   28       -0.001  -0.009  -0.000  -0.010
   29        0.001   0.017   0.000   0.019
   30       -0.003  -0.020  -0.000  -0.023
   31        0.005   0.045   0.000   0.051
   32       -0.001  -0.009  -0.000  -0.010
   33        0.001   0.016   0.000   0.017
   34        0.001  -0.001   0.000  -0.001
   35        0.000   0.009   0.000   0.009
   36        0.001  -0.001   0.000  -0.001
   37        0.000   0.009   0.000   0.009
   38        0.001   0.009  -0.000   0.009
   39       -0.001  -0.003   0.000  -0.003
   40        0.001   0.009  -0.000   0.009
   41       -0.001  -0.003   0.000  -0.003
   42        0.005   0.053   0.000   0.057
   43       -0.001  -0.019  -0.000  -0.020
   44        0.002   0.013   0.000   0.015
   45       -0.002  -0.014  -0.000  -0.016
   46        0.005   0.054   0.000   0.059
   47       -0.001  -0.018  -0.000  -0.019
   48        0.002   0.012   0.000   0.014
   49       -0.002  -0.014  -0.000  -0.016
   50        0.001   0.009  -0.000   0.010
   51       -0.000  -0.002   0.000  -0.002
   52        0.001   0.009  -0.000   0.010
   53       -0.000  -0.002   0.000  -0.002
--------------------------------------------------
tot           0.03    0.20    0.70    0.93
 

 total amount of memory used by VASP MPI-rank0    88162. kBytes
=======================================================================

   base      :      30000. kBytes
   nonlr-proj:      20327. kBytes
   fftplans  :       4884. kBytes
   grid      :      28787. kBytes
   one-center:        824. kBytes
   wavefun   :       3340. kBytes
 
  
  
 General timing and accounting informations for this job:
 ========================================================
  
                  Total CPU time used (sec):      783.425
                            User time (sec):      778.928
                          System time (sec):        4.497
                         Elapsed time (sec):      791.764
  
                   Maximum memory used (kb):      136460.
                   Average memory used (kb):           0.
  
                          Minor page faults:        37950
                          Major page faults:           45
                 Voluntary context switches:         1362
