 vasp.5.4.4.18Apr17-6-g9f103f2a35 (build May 12 2020 05:39:39) gamma-only       
  
 MD_VERSION_INFO: Compiled 2020-05-12T12:39:39-UTC in devlin.sd.materialsdesign.
 com:/home/medea2/data/build/wwolf/vasp-gpu5.4.4/13047/x86_64/src/src/build/gam 
 from svn 13047
 
 This VASP executable licensed from Materials Design, Inc.
 
 executed on                        Lin64 date 2023.03.07  04:33:45
 running on   16 total cores
 distrk:  each k-point on   16 cores,    1 groups
 distr:  one band on NCORES_PER_BAND=   1 cores,   16 groups


--------------------------------------------------------------------------------------------------------


 INCAR:
 POTCAR:    PAW_PBE Li_sv 10Sep2004               
 POTCAR:    PAW_PBE Ni 02Aug2007                  
 POTCAR:    PAW_PBE O 08Apr2002                   

 ----------------------------------------------------------------------------- 
|                                                                             |
|           W    W    AA    RRRRR   N    N  II  N    N   GGGG   !!!           |
|           W    W   A  A   R    R  NN   N  II  NN   N  G    G  !!!           |
|           W    W  A    A  R    R  N N  N  II  N N  N  G       !!!           |
|           W WW W  AAAAAA  RRRRR   N  N N  II  N  N N  G  GGG   !            |
|           WW  WW  A    A  R   R   N   NN  II  N   NN  G    G                |
|           W    W  A    A  R    R  N    N  II  N    N   GGGG   !!!           |
|                                                                             |
|      For optimal performance we recommend to set                            |
|        NCORE= 4 - approx SQRT( number of cores)                             |
|      NCORE specifies how many cores store one orbital (NPAR=cpu/NCORE).     |
|      This setting can  greatly improve the performance of VASP for DFT.     |
|      The default,   NCORE=1            might be grossly inefficient         |
|      on modern multi-core architectures or massively parallel machines.     |
|      Do your own testing !!!!                                               |
|      Unfortunately you need to use the default for GW and RPA calculations. |
|      (for HF NCORE is supported but not extensively tested yet)             |
|                                                                             |
 ----------------------------------------------------------------------------- 

 POTCAR:    PAW_PBE Li_sv 10Sep2004               
  local pseudopotential read in
  atomic valenz-charges read in
  non local Contribution for L=           0  read in
    real space projection operators read in
  non local Contribution for L=           0  read in
    real space projection operators read in
  non local Contribution for L=           1  read in
    real space projection operators read in
    PAW grid and wavefunctions read in
 
   number of l-projection  operators is LMAX  =           3
   number of lm-projection operators is LMMAX =           5
 
 POTCAR:    PAW_PBE Ni 02Aug2007                  
  local pseudopotential read in
  partial core-charges read in
  partial kinetic energy density read in
  atomic valenz-charges read in
  non local Contribution for L=           2  read in
    real space projection operators read in
  non local Contribution for L=           2  read in
    real space projection operators read in
  non local Contribution for L=           0  read in
    real space projection operators read in
  non local Contribution for L=           0  read in
    real space projection operators read in
  non local Contribution for L=           1  read in
    real space projection operators read in
  non local Contribution for L=           1  read in
    real space projection operators read in
    PAW grid and wavefunctions read in
 
   number of l-projection  operators is LMAX  =           6
   number of lm-projection operators is LMMAX =          18
 
 POTCAR:    PAW_PBE O 08Apr2002                   
  local pseudopotential read in
  partial core-charges read in
  partial kinetic energy density read in
  kinetic energy density of atom read in
  atomic valenz-charges read in
  non local Contribution for L=           0  read in
    real space projection operators read in
  non local Contribution for L=           0  read in
    real space projection operators read in
  non local Contribution for L=           1  read in
    real space projection operators read in
  non local Contribution for L=           1  read in
    real space projection operators read in
    PAW grid and wavefunctions read in
 
   number of l-projection  operators is LMAX  =           4
   number of lm-projection operators is LMMAX =           8
 
 Optimization of the real space projectors (new method)

 maximal supplied QI-value         = 22.11
 optimisation between [QCUT,QGAM] = [ 11.28, 22.77] = [ 35.61,145.23] Ry 
 Optimized for a Real-space Cutoff    1.10 Angstroem

   l    n(q)    QCUT    max X(q) W(low)/X(q) W(high)/X(q)  e(spline) 
   0      7    11.276    10.506    0.54E-04    0.58E-04    0.16E-07
   0      7    11.276     8.367    0.11E-03    0.14E-03    0.35E-07
   1      7    11.276     8.983    0.23E-03    0.43E-03    0.86E-07
 Optimization of the real space projectors (new method)

 maximal supplied QI-value         = 16.25
 optimisation between [QCUT,QGAM] = [ 11.38, 22.75] = [ 36.24,144.96] Ry 
 Optimized for a Real-space Cutoff    1.47 Angstroem

   l    n(q)    QCUT    max X(q) W(low)/X(q) W(high)/X(q)  e(spline) 
   2      9    11.376    60.317    0.17E-03    0.16E-04    0.16E-06
   2      9    11.376    55.921    0.17E-03    0.16E-04    0.17E-06
   0     10    11.376    51.690    0.45E-04    0.60E-04    0.21E-06
   0     10    11.376    30.015    0.37E-04    0.55E-04    0.19E-06
   1     10    11.376    18.849    0.83E-04    0.11E-03    0.92E-07
   1     10    11.376    14.624    0.69E-04    0.92E-04    0.82E-07
 Optimization of the real space projectors (new method)

 maximal supplied QI-value         = 24.76
 optimisation between [QCUT,QGAM] = [ 11.39, 22.77] = [ 36.31,145.25] Ry 
 Optimized for a Real-space Cutoff    1.10 Angstroem

   l    n(q)    QCUT    max X(q) W(low)/X(q) W(high)/X(q)  e(spline) 
   0      7    11.387    20.381    0.22E-03    0.48E-03    0.18E-06
   0      7    11.387    15.268    0.22E-03    0.52E-03    0.19E-06
   1      7    11.387     5.964    0.22E-03    0.73E-03    0.24E-06
   1      7    11.387     5.382    0.19E-03    0.60E-03    0.21E-06

 ----------------------------------------------------------------------------- 
|                                                                             |
|  ADVICE TO THIS USER RUNNING 'VASP/VAMP'   (HEAR YOUR MASTER'S VOICE ...):  |
|                                                                             |
|      You enforced a specific xc-type in the INCAR file,                     |
|      a different type was found on the POTCAR file                          |
|          I HOPE YOU KNOW, WHAT YOU ARE  DOING                               |
|                                                                             |
 ----------------------------------------------------------------------------- 

  PAW_PBE Li_sv 10Sep2004               :
 energy of atom  1       EATOM= -202.7858
 kinetic energy error for atom=    0.0143 (will be added to EATOM!!)
  PAW_PBE Ni 02Aug2007                  :
 energy of atom  2       EATOM=-1077.6739
 kinetic energy error for atom=    0.0030 (will be added to EATOM!!)
  PAW_PBE O 08Apr2002                   :
 energy of atom  3       EATOM= -432.3788
 kinetic energy error for atom=    0.0224 (will be added to EATOM!!)
 
 
 POSCAR: ce13433_1                               
  positions in direct lattice
  No initial velocities read in
 exchange correlation table for  LEXCH =       14
   RHO(1)=    0.500       N(1)  =     2000
   RHO(2)=  100.500       N(2)  =     4000
 


--------------------------------------------------------------------------------------------------------


 ion  position               nearest neighbor table
   1  0.245  0.249  0.485-  47 2.01  29 2.07  41 2.10  27 2.16  39 2.20  51 2.21  12 2.77  19 2.83

   2  0.245  0.751  0.515-  48 2.01  30 2.07  42 2.10  28 2.16  40 2.20  52 2.21  13 2.77  19 2.83

   3  0.755  0.751  0.515-  49 2.01  30 2.07  42 2.10  28 2.16  40 2.20  53 2.21  14 2.77  19 2.83

   4  0.755  0.249  0.485-  50 2.01  29 2.07  41 2.10  27 2.16  39 2.20  54 2.21  15 2.77  19 2.83

   5  0.244  0.250  0.015-  35 2.02  43 2.06  55 2.10  45 2.15  57 2.21  31 2.21  21 2.77  11 2.83

   6  0.244  0.750  0.985-  36 2.02  44 2.06  56 2.10  46 2.15  58 2.21  32 2.21  20 2.77  11 2.83

   7  0.756  0.750  0.985-  37 2.02  44 2.06  56 2.10  46 2.15  58 2.21  33 2.21  23 2.77  11 2.83

   8  0.756  0.250  0.015-  38 2.02  43 2.06  55 2.10  45 2.15  57 2.21  34 2.21  22 2.77  11 2.83

   9  0.500  0.250  0.751-  57 2.11  34 2.13  31 2.13  39 2.14  54 2.14  51 2.14  26 2.84
  10  0.500  0.750  0.249-  58 2.11  33 2.13  32 2.13  40 2.14  53 2.14  52 2.14  26 2.84
  11  0.000  0.000  0.000-  35 1.85  36 1.85  37 1.85  38 1.85  45 1.89  46 1.89  16 2.81  16 2.81
                             5 2.83   6 2.83   7 2.83   8 2.83  12 2.83  13 2.83  14 2.83  15 2.83
  12  0.249  1.000  0.249-  29 1.88  58 1.89  46 1.89  41 1.90  35 2.00  52 2.04   1 2.77  15 2.80
                            15 2.82  11 2.83  16 2.84  17 2.85  18 2.86
  13  0.249  0.000  0.751-  30 1.88  57 1.89  45 1.89  42 1.90  36 2.00  51 2.04   2 2.77  14 2.80
                            14 2.82  11 2.83  16 2.84  17 2.85  18 2.86
  14  0.751  0.000  0.751-  30 1.88  57 1.89  45 1.89  42 1.90  37 2.00  54 2.04   3 2.77  13 2.80
                            13 2.82  11 2.83  16 2.84  17 2.85  18 2.86
  15  0.751  1.000  0.249-  29 1.88  58 1.89  46 1.89  41 1.90  38 2.00  53 2.04   4 2.77  12 2.80
                            12 2.82  11 2.83  16 2.84  17 2.85  18 2.86
  16  0.500  0.000  0.000-  35 1.85  36 1.85  37 1.85  38 1.85  57 2.00  58 2.00  11 2.81  11 2.81
                            15 2.84  12 2.84  13 2.84  14 2.84
  17  0.000  0.000  0.500-  51 1.87  52 1.87  53 1.87  54 1.87  29 1.93  30 1.93  18 2.81  18 2.81
                            12 2.85  13 2.85  14 2.85  15 2.85
  18  0.500  0.000  0.500-  51 1.85  52 1.85  53 1.85  54 1.85  41 1.89  42 1.89  17 2.81  17 2.81
                            12 2.86  13 2.86  14 2.86  15 2.86
  19  0.000  0.500  0.500-  47 1.85  48 1.85  49 1.85  50 1.85  27 1.89  28 1.89  24 2.81  24 2.81
                            20 2.83  21 2.83  22 2.83  23 2.83   1 2.83   2 2.83   3 2.83   4 2.83
  20  0.249  0.500  0.749-  44 1.88  27 1.89  39 1.89  56 1.89  48 2.00  31 2.04   6 2.77  23 2.80
                            23 2.82  19 2.83  24 2.83  25 2.85  26 2.86
  21  0.249  0.500  0.251-  43 1.88  28 1.89  40 1.89  55 1.89  47 2.00  32 2.04   5 2.77  22 2.80
                            22 2.82  19 2.83  24 2.83  25 2.85  26 2.86
  22  0.751  0.500  0.251-  43 1.88  28 1.89  40 1.89  55 1.89  50 2.00  33 2.04   8 2.77  21 2.80
                            21 2.82  19 2.83  24 2.83  25 2.85  26 2.86
  23  0.751  0.500  0.749-  44 1.88  27 1.89  39 1.89  56 1.89  49 2.00  34 2.04   7 2.77  20 2.80
                            20 2.82  19 2.83  24 2.83  25 2.85  26 2.86
  24  0.500  0.500  0.500-  47 1.85  48 1.85  49 1.85  50 1.85  39 1.98  40 1.98  19 2.81  19 2.81
                            23 2.83  20 2.83  21 2.83  22 2.83
  25  0.000  0.500  0.000-  31 1.88  32 1.88  33 1.88  34 1.88  43 1.92  44 1.92  26 2.81  26 2.81
                            20 2.85  21 2.85  22 2.85  23 2.85
  26  0.500  0.500  0.000-  31 1.85  32 1.85  33 1.85  34 1.85  55 1.90  56 1.90  25 2.81  25 2.81
                             9 2.84  10 2.84  20 2.86  21 2.86  22 2.86  23 2.86
  27  0.000  0.399  0.629-  19 1.89  20 1.89  23 1.89   4 2.16   1 2.16
  28  0.000  0.601  0.371-  19 1.89  21 1.89  22 1.89   3 2.16   2 2.16
  29  0.000  0.101  0.366-  12 1.88  15 1.88  17 1.93   4 2.07   1 2.07
  30  0.000  0.899  0.634-  13 1.88  14 1.88  17 1.93   3 2.07   2 2.07
  31  0.253  0.394  0.891-  26 1.85  25 1.88  20 2.04   9 2.13   5 2.21
  32  0.253  0.606  0.109-  26 1.85  25 1.88  21 2.04  10 2.13   6 2.21
  33  0.747  0.606  0.109-  26 1.85  25 1.88  22 2.04  10 2.13   7 2.21
  34  0.747  0.394  0.891-  26 1.85  25 1.88  23 2.04   9 2.13   8 2.21
  35  0.251  0.102  0.109-  16 1.85  11 1.85  12 2.00   5 2.02
  36  0.251  0.898  0.891-  16 1.85  11 1.85  13 2.00   6 2.02
  37  0.749  0.898  0.891-  16 1.85  11 1.85  14 2.00   7 2.02
  38  0.749  0.102  0.109-  16 1.85  11 1.85  15 2.00   8 2.02
  39  0.500  0.393  0.634-  20 1.89  23 1.89  24 1.98   9 2.14   1 2.20   4 2.20
  40  0.500  0.607  0.366-  21 1.89  22 1.89  24 1.98  10 2.14   2 2.20   3 2.20
  41  0.500  0.101  0.370-  18 1.89  15 1.90  12 1.90   4 2.10   1 2.10
  42  0.500  0.899  0.630-  18 1.89  14 1.90  13 1.90   3 2.10   2 2.10
  43  0.000  0.399  0.133-  21 1.88  22 1.88  25 1.92   8 2.06   5 2.06
  44  0.000  0.601  0.867-  20 1.88  23 1.88  25 1.92   7 2.06   6 2.06
  45  0.000  0.102  0.872-  11 1.89  13 1.89  14 1.89   8 2.15   5 2.15
  46  0.000  0.898  0.128-  11 1.89  12 1.89  15 1.89   7 2.15   6 2.15
  47  0.251  0.397  0.391-  24 1.85  19 1.85  21 2.00   1 2.01
  48  0.251  0.603  0.609-  24 1.85  19 1.85  20 2.00   2 2.01
  49  0.749  0.603  0.609-  24 1.85  19 1.85  23 2.00   3 2.01
  50  0.749  0.397  0.391-  24 1.85  19 1.85  22 2.00   4 2.01
  51  0.252  0.106  0.609-  18 1.85  17 1.87  13 2.04   9 2.14   1 2.21
  52  0.252  0.894  0.391-  18 1.85  17 1.87  12 2.04  10 2.14   2 2.21
  53  0.748  0.894  0.391-  18 1.85  17 1.87  15 2.04  10 2.14   3 2.21
  54  0.748  0.106  0.609-  18 1.85  17 1.87  14 2.04   9 2.14   4 2.21
  55  0.500  0.399  0.131-  21 1.89  22 1.89  26 1.90   8 2.10   5 2.10
  56  0.500  0.601  0.869-  20 1.89  23 1.89  26 1.90   7 2.10   6 2.10
  57  0.500  0.108  0.864-  13 1.89  14 1.89  16 2.00   9 2.11   5 2.21   8 2.21
  58  0.500  0.892  0.136-  12 1.89  15 1.89  16 2.00  10 2.11   6 2.21   7 2.21
 
  LATTYP: Found a simple monoclinic cell.
 ALAT       =    11.3812124139
 B/A-ratio  =     0.4939154205
 C/A-ratio  =     1.6774348522
 COS(beta)  =    -0.9029794482
  
  Lattice vectors:
  
 A1 = (  -6.2933020778,   0.0000000000,  -9.4829502249)
 A2 = (   0.0000000000,  -5.6213563153,   0.0000000000)
 A3 = (   2.6974040150,   0.0000000000,  18.8997234518)


Analysis of symmetry for initial positions (statically):
=====================================================================
 Subroutine PRICEL returns:
 Original cell was already a primitive cell.
 

 Routine SETGRP: Setting up the symmetry group for a 
 simple monoclinic supercell.


 Subroutine GETGRP returns: Found  4 space group operations
 (whereof  4 operations were pure point group operations)
 out of a pool of  4 trial point group operations.


The static configuration has the point symmetry C_2h.


Analysis of symmetry for dynamics (positions and initial velocities):
=====================================================================
 Subroutine PRICEL returns:
 Original cell was already a primitive cell.
 

 Routine SETGRP: Setting up the symmetry group for a 
 simple monoclinic supercell.


 Subroutine GETGRP returns: Found  4 space group operations
 (whereof  4 operations were pure point group operations)
 out of a pool of  4 trial point group operations.


The dynamic configuration has the point symmetry C_2h.


Analysis of structural, dynamic, and magnetic symmetry:
=====================================================================
 Subroutine PRICEL returns:
 Original cell was already a primitive cell.
 

 Routine SETGRP: Setting up the symmetry group for a 
 simple monoclinic supercell.


 Subroutine GETGRP returns: Found  4 space group operations
 (whereof  4 operations were pure point group operations)
 out of a pool of  4 trial point group operations.


The magnetic configuration has the point symmetry C_2h.


 Subroutine INISYM returns: Found  4 space group operations
 (whereof  4 operations are pure point group operations),
 and found     1 'primitive' translations

 
 
 KPOINTS: Automatic mesh                          

Automatic generation of k-mesh.
Space group operators:
 irot       det(A)        alpha          n_x          n_y          n_z        tau_x        tau_y        tau_z
    1     1.000000     0.000000     1.000000     0.000000     0.000000     0.000000     0.000000     0.000000
    2    -1.000000     0.000000     1.000000     0.000000     0.000000     0.000000     0.000000     0.000000
    3     1.000000   180.000000     0.000000     1.000000     0.000000     0.000000     0.000000     0.000000
    4    -1.000000   180.000000     0.000000     1.000000     0.000000     0.000000     0.000000     0.000000
 
 Subroutine IBZKPT returns following result:
 ===========================================
 
 Found      1 irreducible k-points:
 
 Following reciprocal coordinates:
            Coordinates               Weight
  0.000000  0.000000  0.000000      1.000000
 
 Following cartesian coordinates:
            Coordinates               Weight
  0.000000  0.000000  0.000000      1.000000
 


--------------------------------------------------------------------------------------------------------




 Dimension of arrays:
   k-points           NKPTS =      1   k-points in BZ     NKDIM =      1   number of bands    NBANDS=    256
   number of dos      NEDOS =    301   number of ions     NIONS =     58
   non local maximal  LDIM  =      6   non local SUM 2l+1 LMDIM =     18
   total plane-waves  NPLWV = 241920
   max r-space proj   IRMAX =   6238   max aug-charges    IRDMAX=  15140
   dimension x,y,z NGX =    42 NGY =   80 NGZ =   72
   dimension x,y,z NGXF=    84 NGYF=  160 NGZF=  144
   support grid    NGXF=    84 NGYF=  160 NGZF=  144
   ions per type =              10  16  32
   NGX,Y,Z   is equivalent  to a cutoff of  12.42, 13.19, 12.10 a.u.
   NGXF,Y,Z  is equivalent  to a cutoff of  24.84, 26.39, 24.21 a.u.

 SYSTEM =  unknown system                          
 POSCAR =  ce13433_1                               

 Startparameter for this run:
   NWRITE =      1    write-flag & timer
   PREC   = accura    normal or accurate (medium, high low for compatibility)
   ISTART =      0    job   : 0-new  1-cont  2-samecut
   ICHARG =      2    charge: 1-file 2-atom 10-const
   ISPIN  =      2    spin polarized calculation?
   LNONCOLLINEAR =      F non collinear calculations
   LSORBIT =      F    spin-orbit coupling
   INIWAV =      1    electr: 0-lowe 1-rand  2-diag
   LASPH  =      F    aspherical Exc in radial PAW
   METAGGA=      F    non-selfconsistent MetaGGA calc.

 Electronic Relaxation 1
   ENCUT  =  500.0 eV  36.75 Ry    6.06 a.u.  10.25 18.38 18.03*2*pi/ulx,y,z
   ENINI  =  500.0     initial cutoff
   ENAUG  =  628.9 eV  augmentation charge cutoff
   NELM   =     80;   NELMIN=  2; NELMDL= -5     # of ELM steps 
   EDIFF  = 0.1E-04   stopping-criterion for ELM
   LREAL  =      T    real-space projection
   NLSPLINE    = F    spline interpolate recip. space projectors
   LCOMPAT=      F    compatible to vasp.4.4
   GGA_COMPAT  = T    GGA compatible to vasp.4.4-vasp.4.6
   LMAXPAW     = -100 max onsite density
   LMAXMIX     =    2 max onsite mixed and CHGCAR
   VOSKOWN=      1    Vosko Wilk Nusair interpolation
   ROPT   =   -0.00025  -0.00025  -0.00025
 Ionic relaxation
   EDIFFG = -.2E-01   stopping-criterion for IOM
   NSW    =     20    number of steps for IOM
   NBLOCK =      1;   KBLOCK =     20    inner block; outer block 
   IBRION =      1    ionic relax: 0-MD 1-quasi-New 2-CG
   NFREE  =      0    steps in history (QN), initial steepest desc. (CG)
   ISIF   =      3    stress and relaxation
   IWAVPR =     11    prediction:  0-non 1-charg 2-wave 3-comb
   ISYM   =      2    0-nonsym 1-usesym 2-fastsym
   LCORR  =      T    Harris-Foulkes like correction to forces

   POTIM  = 0.5000    time-step for ionic-motion
   TEIN   =    0.0    initial temperature
   TEBEG  =    0.0;   TEEND  =   0.0 temperature during run
   SMASS  =  -3.00    Nose mass-parameter (am)
   estimated Nose-frequenzy (Omega)   =  0.10E-29 period in steps =****** mass=  -0.722E-27a.u.
   SCALEE = 1.0000    scale energy and forces
   NPACO  =    256;   APACO  = 16.0  distance and # of slots for P.C.
   PSTRESS=    0.0 pullay stress

  Mass of Ions in am
   POMASS =   7.01 58.69 16.00
  Ionic Valenz
   ZVAL   =   3.00 10.00  6.00
  Atomic Wigner-Seitz radii
   RWIGS  =   1.23  1.15  0.73
  virtual crystal weights 
   VCA    =   1.00  1.00  1.00
   NELECT =     382.0000    total number of electrons
   NUPDOWN=      -1.0000    fix difference up-down

 DOS related values:
   EMIN   =  10.00;   EMAX   =-10.00  energy-range for DOS
   EFERMI =   0.00
   ISMEAR =     0;   SIGMA  =   0.05  broadening in eV -4-tet -1-fermi 0-gaus

 Electronic relaxation 2 (details)
   IALGO  =     38    algorithm
   LDIAG  =      T    sub-space diagonalisation (order eigenvalues)
   LSUBROT=      F    optimize rotation matrix (better conditioning)
   TURBO    =      0    0=normal 1=particle mesh
   IRESTART =      0    0=no restart 2=restart with 2 vectors
   NREBOOT  =      0    no. of reboots
   NMIN     =      0    reboot dimension
   EREF     =   0.00    reference energy to select bands
   IMIX   =      4    mixing-type and parameters
     AMIX     =   0.40;   BMIX     =  1.00
     AMIX_MAG =   1.60;   BMIX_MAG =  1.00
     AMIN     =   0.10
     WC   =   100.;   INIMIX=   1;  MIXPRE=   1;  MAXMIX= -45

 Intra band minimization:
   WEIMIN = 0.0010     energy-eigenvalue tresh-hold
   EBREAK =  0.98E-08  absolut break condition
   DEPER  =   0.30     relativ break condition  

   TIME   =   0.40     timestep for ELM

  volume/ion in A,a.u.               =       9.05        61.06
  Fermi-wavevector in a.u.,A,eV,Ry     =   1.472623  2.782855 29.505862  2.168620
  Thomas-Fermi vector in A             =   2.587616
 
 Write flags
   LWAVE        =      F    write WAVECAR
   LDOWNSAMPLE  =      F    k-point downsampling of WAVECAR
   LCHARG       =      T    write CHGCAR
   LVTOT        =      F    write LOCPOT, total local potential
   LVHAR        =      F    write LOCPOT, Hartree potential only
   LELF         =      F    write electronic localiz. function (ELF)
   LORBIT       =      0    0 simple, 1 ext, 2 COOP (PROOUT), +10 PAW based schemes


 Dipole corrections
   LMONO  =      F    monopole corrections only (constant potential shift)
   LDIPOL =      F    correct potential (dipole corrections)
   IDIPOL =      0    1-x, 2-y, 3-z, 4-all directions 
   EPSILON=  1.0000000 bulk dielectric constant

 Exchange correlation treatment:
   GGA     =    PS    GGA type
   LEXCH   =    14    internal setting for exchange type
   VOSKOWN=      1    Vosko Wilk Nusair interpolation
   LHFCALC =     F    Hartree Fock is set to
   LHFONE  =     F    Hartree Fock one center treatment
   AEXX    =    0.0000 exact exchange contribution

 Linear response parameters
   LEPSILON=     F    determine dielectric tensor
   LRPA    =     F    only Hartree local field effects (RPA)
   LNABLA  =     F    use nabla operator in PAW spheres
   LVEL    =     F    velocity operator in full k-point grid
   LINTERFAST=   F  fast interpolation
   KINTER  =     0    interpolate to denser k-point grid
   CSHIFT  =0.1000    complex shift for real part using Kramers Kronig
   OMEGAMAX=  -1.0    maximum frequency
   DEG_THRESHOLD= 0.2000000E-02 threshold for treating states as degnerate
   RTIME   =   -0.100 relaxation time in fs
  (WPLASMAI=    0.000 imaginary part of plasma frequency in eV, 0.658/RTIME)
   DFIELD  = 0.0000000 0.0000000 0.0000000 field for delta impulse in time
 
 Orbital magnetization related:
   ORBITALMAG=     F  switch on orbital magnetization
   LCHIMAG   =     F  perturbation theory with respect to B field
   DQ        =  0.001000  dq finite difference perturbation B field
   LLRAUG    =     F  two centre corrections for induced B field



--------------------------------------------------------------------------------------------------------


 quasi-Newton-method for relaxation of ions
 charge density and potential will be updated during run
 spin polarized calculation
 Variant of blocked Davidson
 Davidson routine will perform the subspace rotation
 perform sub-space diagonalisation
    after iterative eigenvector-optimisation
 modified Broyden-mixing scheme, WC =      100.0
 initial mixing is a Kerker type mixing with AMIX =  0.4000 and BMIX =      1.0000
 Hartree-type preconditioning will be used
 using additional bands           65
 real space projection scheme for non local part
 use partial core corrections
 calculate Harris-corrections to forces 
   (improved forces if not selfconsistent)
 use gradient corrections 
 use of overlap-Matrix (Vanderbilt PP)
 Gauss-broadening in eV      SIGMA  =   0.05


--------------------------------------------------------------------------------------------------------


  energy-cutoff  :      500.00
  volume of cell :      524.82
      direct lattice vectors                 reciprocal lattice vectors
     0.000000000  5.621356315  0.000000000     0.000000000  0.177893011  0.000000000
    -3.595898063  0.000000000  9.416773227    -0.000708819  0.000000000  0.105922818
     9.889200141  0.000000000  0.066176998     0.100862673  0.000000000  0.038515517

  length of vectors
     5.621356315 10.079985163  9.889421561     0.177893011  0.105925190  0.107966309


 
 k-points in units of 2pi/SCALE and weight: Automatic mesh                          
   0.00000000  0.00000000  0.00000000       1.000
 
 k-points in reciprocal lattice and weights: Automatic mesh                          
   0.00000000  0.00000000  0.00000000       1.000
 
 position of ions in fractional coordinates (direct lattice) 
   0.24493837  0.24945699  0.48480083
   0.24493837  0.75054301  0.51519917
   0.75506163  0.75054301  0.51519917
   0.75506163  0.24945699  0.48480083
   0.24400839  0.25047888  0.01515815
   0.24400839  0.74952112  0.98484185
   0.75599161  0.74952112  0.98484185
   0.75599161  0.25047888  0.01515815
   0.50000000  0.25048520  0.75105114
   0.50000000  0.74951480  0.24894886
   0.00000000  0.00000000  0.00000000
   0.24931253  0.99958867  0.24867479
   0.24931253  0.00041133  0.75132521
   0.75068747  0.00041133  0.75132521
   0.75068747  0.99958867  0.24867479
   0.50000000  0.00000000  0.00000000
   0.00000000  0.00000000  0.50000000
   0.50000000  0.00000000  0.50000000
   0.00000000  0.50000000  0.50000000
   0.24932638  0.50034091  0.74869986
   0.24932638  0.49965909  0.25130014
   0.75067362  0.49965909  0.25130014
   0.75067362  0.50034091  0.74869986
   0.50000000  0.50000000  0.50000000
   0.00000000  0.50000000  0.00000000
   0.50000000  0.50000000  0.00000000
   0.00000000  0.39873694  0.62862316
   0.00000000  0.60126306  0.37137684
   0.00000000  0.10073612  0.36618334
   0.00000000  0.89926388  0.63381666
   0.25298082  0.39444119  0.89054892
   0.25298082  0.60555881  0.10945108
   0.74701918  0.60555881  0.10945108
   0.74701918  0.39444119  0.89054892
   0.25062269  0.10247692  0.10920974
   0.25062269  0.89752308  0.89079026
   0.74937731  0.89752308  0.89079026
   0.74937731  0.10247692  0.10920974
   0.50000000  0.39323814  0.63410972
   0.50000000  0.60676186  0.36589028
   0.50000000  0.10058388  0.37026784
   0.50000000  0.89941612  0.62973216
   0.00000000  0.39887482  0.13278121
   0.00000000  0.60112518  0.86721879
   0.00000000  0.10195368  0.87244273
   0.00000000  0.89804632  0.12755727
   0.25071779  0.39697958  0.39126634
   0.25071779  0.60302042  0.60873366
   0.74928221  0.60302042  0.60873366
   0.74928221  0.39697958  0.39126634
   0.25243863  0.10569681  0.60927791
   0.25243863  0.89430319  0.39072209
   0.74756137  0.89430319  0.39072209
   0.74756137  0.10569681  0.60927791
   0.50000000  0.39922966  0.13070513
   0.50000000  0.60077034  0.86929487
   0.50000000  0.10777704  0.86403594
   0.50000000  0.89222296  0.13596406
 
 position of ions in cartesian coordinates  (Angst):
   3.89727053  1.37688585  2.38116257
   2.39603155  1.37688585  7.10178766
   2.39603155  4.24447046  7.10178766
   3.89727053  4.24447046  2.38116257
  -0.75079454  1.37165810  2.35970593
   7.04409662  1.37165810  7.12324429
   7.04409662  4.24969821  7.12324429
  -0.75079454  4.24969821  2.35970593
   6.52657579  2.81067816  2.40846463
  -0.23327372  2.81067816  7.07448559
   0.00000000  0.00000000  0.00000000
  -1.13522419  1.40147456  9.42935638
   7.42852627  1.40147456  0.05359385
   7.42852627  4.21988175  0.05359385
  -1.13522419  4.21988175  9.42935638
   0.00000000  2.81067816  0.00000000
   4.94460007  0.00000000  0.03308850
   4.94460007  2.81067816  0.03308850
   3.14665104  0.00000000  4.74147511
   5.60486785  1.40155242  4.76114359
   0.68843423  1.40155242  4.72180663
   0.68843423  4.21980389  4.72180663
   5.60486785  4.21980389  4.76114359
   3.14665104  2.81067816  4.74147511
  -1.79794903  0.00000000  4.70838661
  -1.79794903  2.81067816  4.70838661
   4.78276285  0.00000000  3.79641573
   1.51053923  0.00000000  5.68653449
   3.25902352  0.00000000  0.97284211
   3.03427856  0.00000000  8.51010811
   7.38844619  1.42209533  3.77329709
  -1.09514412  1.42209533  5.70965313
  -1.09514412  4.19926099  5.70965313
   7.38844619  4.19926099  3.77329709
   0.71150042  1.40883944  0.97222909
   5.58180166  1.40883944  8.51072114
   5.58180166  4.21251687  8.51072114
   0.71150042  4.21251687  0.97222909
   4.85679367  2.81067816  3.74499787
   1.43650841  2.81067816  5.73795236
   3.29996340  2.81067816  0.97167880
   2.99333868  2.81067816  8.51127142
  -0.12121323  0.00000000  3.76490079
   6.41451531  0.00000000  5.71804944
   8.26114573  0.00000000  1.01781033
  -1.96784365  0.00000000  8.46513990
   2.44181304  1.40937403  3.76415951
   3.85148904  1.40937403  5.71879071
   3.85148904  4.21198228  5.71879071
   2.44181304  4.21198228  3.76415951
   5.64519624  1.41904749  1.03564307
   0.64810584  1.41904749  8.44730715
   0.64810584  4.20230883  8.44730715
   5.64519624  4.20230883  1.03564307
  -0.14301997  2.81067816  3.76810485
   6.43632205  2.81067816  5.71484538
   8.15706909  2.81067816  1.07209125
  -1.86376701  2.81067816  8.41085898
 


--------------------------------------------------------------------------------------------------------


 use serial FFT for orbitals x direction half grid
 k-point  1 :   0.0000 0.0000 0.0000  plane waves:    6661

 maximum and minimum number of plane-waves per node :      6661     6661

 maximum number of plane-waves:      6661
 maximum index in each direction: 
   IXMAX=   10   IYMAX=   18   IZMAX=   17
   IXMIN=    0   IYMIN=  -18   IZMIN=  -18

 The following grids will avoid any aliasing or wrap around errors in the Hartre
 e energy
  - symmetry arguments have not been applied
  - exchange correlation energies might require even more grid points
  - we recommend to set PREC=Normal or Accurate and rely on VASP defaults
 NGX is ok and might be reduce to    42
 NGY is ok and might be reduce to    80
 NGZ is ok and might be reduce to    72

 serial   3D FFT for wavefunctions
 parallel 3D FFT for charge:
    minimum data exchange during FFTs selected (reduces bandwidth)


 total amount of memory used by VASP MPI-rank0    93703. kBytes
=======================================================================

   base      :      30000. kBytes
   nonlr-proj:      21922. kBytes
   fftplans  :       5544. kBytes
   grid      :      31764. kBytes
   one-center:        902. kBytes
   wavefun   :       3571. kBytes
 
     INWAV:  cpu time    0.0000: real time    0.0000
 Broyden mixing: mesh for mixing (old mesh)
   NGX = 21   NGY = 37   NGZ = 37
  (NGX  = 84   NGY  =160   NGZ  =144)
  gives a total of  28749 points

 initial charge density was supplied:
 charge density of overlapping atoms calculated
 number of electron     382.0000000 magnetization      40.0000000
 keeping initial charge density in first step


--------------------------------------------------------------------------------------------------------


 Maximum index for non-local projection operator         6027
 Maximum index for augmentation-charges         1430 (set IRDMAX)


--------------------------------------------------------------------------------------------------------


 First call to EWALD:  gamma=   0.220
 Maximum number of real-space cells 4x 2x 2
 Maximum number of reciprocal cells 2x 3x 3

    FEWALD:  cpu time    0.0031: real time    0.0031


--------------------------------------- Iteration      1(   1)  ---------------------------------------


    POTLOK:  cpu time    0.1583: real time    0.1655
    SETDIJ:  cpu time    0.0207: real time    0.0207
     EDDAV:  cpu time    1.6500: real time    1.6860
    --------------------------------------------
      LOOP:  cpu time    1.8294: real time    1.8727

 eigenvalue-minimisations  :  1040
 total energy-change (2. order) : 0.6714258E+04  (-0.1691113E+05)
 number of electron     382.0000000 magnetization      40.0000000
 augmentation part      382.0000000 magnetization      40.0000000

 Free energy of the ion-electron system (eV)
  ---------------------------------------------------
  alpha Z        PSCENC =      1189.19523074
  Ewald energy   TEWEN  =    -22833.42399639
  -Hartree energ DENC   =    -10926.06100495
  -exchange      EXHF   =         0.00000000
  -V(xc)+E(xc)   XCENC  =      1556.30677832
  PAW double counting   =     27261.33954750   -28529.28305776
  entropy T*S    EENTRO =        -0.00000029
  eigenvalues    EBANDS =      5972.33892337
  atomic energy  EATOM  =     33023.84575915
  Solvation  Ediel_sol  =         0.00000000
  ---------------------------------------------------
  free energy    TOTEN  =      6714.25817970 eV

  energy without entropy =     6714.25817999  energy(sigma->0) =     6714.25817984


--------------------------------------------------------------------------------------------------------




--------------------------------------- Iteration      1(   2)  ---------------------------------------


     EDDAV:  cpu time    1.3871: real time    1.3903
    --------------------------------------------
      LOOP:  cpu time    1.3869: real time    1.3902

 eigenvalue-minimisations  :  1072
 total energy-change (2. order) :-0.5437715E+04  (-0.4824074E+04)
 number of electron     382.0000000 magnetization      40.0000000
 augmentation part      382.0000000 magnetization      40.0000000

 Free energy of the ion-electron system (eV)
  ---------------------------------------------------
  alpha Z        PSCENC =      1189.19523074
  Ewald energy   TEWEN  =    -22833.42399639
  -Hartree energ DENC   =    -10926.06100495
  -exchange      EXHF   =         0.00000000
  -V(xc)+E(xc)   XCENC  =      1556.30677832
  PAW double counting   =     27261.33954750   -28529.28305776
  entropy T*S    EENTRO =        -0.03036461
  eigenvalues    EBANDS =       534.65381089
  atomic energy  EATOM  =     33023.84575915
  Solvation  Ediel_sol  =         0.00000000
  ---------------------------------------------------
  free energy    TOTEN  =      1276.54270289 eV

  energy without entropy =     1276.57306750  energy(sigma->0) =     1276.55788519


--------------------------------------------------------------------------------------------------------




--------------------------------------- Iteration      1(   3)  ---------------------------------------


     EDDAV:  cpu time    1.4668: real time    1.4703
    --------------------------------------------
      LOOP:  cpu time    1.4668: real time    1.4703

 eigenvalue-minimisations  :  1152
 total energy-change (2. order) :-0.1490000E+04  (-0.1226010E+04)
 number of electron     382.0000000 magnetization      40.0000000
 augmentation part      382.0000000 magnetization      40.0000000

 Free energy of the ion-electron system (eV)
  ---------------------------------------------------
  alpha Z        PSCENC =      1189.19523074
  Ewald energy   TEWEN  =    -22833.42399639
  -Hartree energ DENC   =    -10926.06100495
  -exchange      EXHF   =         0.00000000
  -V(xc)+E(xc)   XCENC  =      1556.30677832
  PAW double counting   =     27261.33954750   -28529.28305776
  entropy T*S    EENTRO =        -0.08383329
  eigenvalues    EBANDS =      -955.29274036
  atomic energy  EATOM  =     33023.84575915
  Solvation  Ediel_sol  =         0.00000000
  ---------------------------------------------------
  free energy    TOTEN  =      -213.45731704 eV

  energy without entropy =     -213.37348375  energy(sigma->0) =     -213.41540039


--------------------------------------------------------------------------------------------------------




--------------------------------------- Iteration      1(   4)  ---------------------------------------


     EDDAV:  cpu time    1.5317: real time    1.5353
    --------------------------------------------
      LOOP:  cpu time    1.5316: real time    1.5353

 eigenvalue-minimisations  :  1248
 total energy-change (2. order) :-0.2380381E+03  (-0.2299725E+03)
 number of electron     382.0000000 magnetization      40.0000000
 augmentation part      382.0000000 magnetization      40.0000000

 Free energy of the ion-electron system (eV)
  ---------------------------------------------------
  alpha Z        PSCENC =      1189.19523074
  Ewald energy   TEWEN  =    -22833.42399639
  -Hartree energ DENC   =    -10926.06100495
  -exchange      EXHF   =         0.00000000
  -V(xc)+E(xc)   XCENC  =      1556.30677832
  PAW double counting   =     27261.33954750   -28529.28305776
  entropy T*S    EENTRO =        -0.15279237
  eigenvalues    EBANDS =     -1193.26191243
  atomic energy  EATOM  =     33023.84575915
  Solvation  Ediel_sol  =         0.00000000
  ---------------------------------------------------
  free energy    TOTEN  =      -451.49544818 eV

  energy without entropy =     -451.34265581  energy(sigma->0) =     -451.41905200


--------------------------------------------------------------------------------------------------------




--------------------------------------- Iteration      1(   5)  ---------------------------------------


     EDDAV:  cpu time    1.9312: real time    1.9358
    CHARGE:  cpu time    0.1114: real time    0.1116
    MIXING:  cpu time    0.0028: real time    0.0028
    --------------------------------------------
      LOOP:  cpu time    2.0451: real time    2.0500

 eigenvalue-minimisations  :  1696
 total energy-change (2. order) :-0.1213003E+02  (-0.1202692E+02)
 number of electron     381.9999941 magnetization      41.8083225
 augmentation part      114.7851950 magnetization      31.3330990

 Broyden mixing:
  rms(total) = 0.11483E+02    rms(broyden)= 0.11483E+02
  rms(prec ) = 0.13967E+02
  weight for this iteration     100.00

 Free energy of the ion-electron system (eV)
  ---------------------------------------------------
  alpha Z        PSCENC =      1189.19523074
  Ewald energy   TEWEN  =    -22833.42399639
  -Hartree energ DENC   =    -10926.06100495
  -exchange      EXHF   =         0.00000000
  -V(xc)+E(xc)   XCENC  =      1556.30677832
  PAW double counting   =     27261.33954750   -28529.28305776
  entropy T*S    EENTRO =        -0.15160650
  eigenvalues    EBANDS =     -1205.39313052
  atomic energy  EATOM  =     33023.84575915
  Solvation  Ediel_sol  =         0.00000000
  ---------------------------------------------------
  free energy    TOTEN  =      -463.62548040 eV

  energy without entropy =     -463.47387390  energy(sigma->0) =     -463.54967715


--------------------------------------------------------------------------------------------------------




--------------------------------------- Iteration      1(   6)  ---------------------------------------


    POTLOK:  cpu time    0.1276: real time    0.1279
    SETDIJ:  cpu time    0.0197: real time    0.0197
     EDDAV:  cpu time    1.7644: real time    1.7685
    CHARGE:  cpu time    0.1060: real time    0.1063
    MIXING:  cpu time    0.0026: real time    0.0026
    --------------------------------------------
      LOOP:  cpu time    2.0202: real time    2.0250

 eigenvalue-minimisations  :  1472
 total energy-change (2. order) :-0.2876735E+02  (-0.1147988E+03)
 number of electron     382.0000010 magnetization      35.3530716
 augmentation part      143.8463208 magnetization      35.3850671

 Broyden mixing:
  rms(total) = 0.18854E+02    rms(broyden)= 0.18853E+02
  rms(prec ) = 0.20855E+02
  weight for this iteration     100.00

 eigenvalues of (default mixing * dielectric matrix)
  average eigenvalue GAMMA=   0.2593
  0.2593

 Free energy of the ion-electron system (eV)
  ---------------------------------------------------
  alpha Z        PSCENC =      1189.19523074
  Ewald energy   TEWEN  =    -22833.42399639
  -Hartree energ DENC   =    -10441.40785517
  -exchange      EXHF   =         0.00000000
  -V(xc)+E(xc)   XCENC  =      1570.10217111
  PAW double counting   =     30027.87171718   -31128.59018140
  entropy T*S    EENTRO =        -0.05319996
  eigenvalues    EBANDS =     -1899.93247098
  atomic energy  EATOM  =     33023.84575915
  Solvation  Ediel_sol  =         0.00000000
  ---------------------------------------------------
  free energy    TOTEN  =      -492.39282573 eV

  energy without entropy =     -492.33962576  energy(sigma->0) =     -492.36622574


--------------------------------------------------------------------------------------------------------




--------------------------------------- Iteration      1(   7)  ---------------------------------------


    POTLOK:  cpu time    0.1139: real time    0.1141
    SETDIJ:  cpu time    0.0192: real time    0.0193
     EDDAV:  cpu time    1.5700: real time    1.5737
    CHARGE:  cpu time    0.1057: real time    0.1059
    MIXING:  cpu time    0.0027: real time    0.0027
    --------------------------------------------
      LOOP:  cpu time    1.8114: real time    1.8157

 eigenvalue-minimisations  :  1328
 total energy-change (2. order) : 0.1278903E+03  (-0.2894652E+02)
 number of electron     382.0000004 magnetization      27.2183665
 augmentation part      132.6685102 magnetization      24.4006902

 Broyden mixing:
  rms(total) = 0.60605E+01    rms(broyden)= 0.60598E+01
  rms(prec ) = 0.70055E+01
  weight for this iteration     100.00

 eigenvalues of (default mixing * dielectric matrix)
  average eigenvalue GAMMA=   0.5658
  0.5658  0.5658

 Free energy of the ion-electron system (eV)
  ---------------------------------------------------
  alpha Z        PSCENC =      1189.19523074
  Ewald energy   TEWEN  =    -22833.42399639
  -Hartree energ DENC   =    -10631.38301389
  -exchange      EXHF   =         0.00000000
  -V(xc)+E(xc)   XCENC  =      1556.33456491
  PAW double counting   =     31308.57297607   -32532.83905113
  entropy T*S    EENTRO =        -0.01593142
  eigenvalues    EBANDS =     -1444.78906340
  atomic energy  EATOM  =     33023.84575915
  Solvation  Ediel_sol  =         0.00000000
  ---------------------------------------------------
  free energy    TOTEN  =      -364.50252536 eV

  energy without entropy =     -364.48659394  energy(sigma->0) =     -364.49455965


--------------------------------------------------------------------------------------------------------




--------------------------------------- Iteration      1(   8)  ---------------------------------------


    POTLOK:  cpu time    0.1128: real time    0.1131
    SETDIJ:  cpu time    0.0179: real time    0.0180
     EDDAV:  cpu time    1.7735: real time    1.7777
    CHARGE:  cpu time    0.1120: real time    0.1123
    MIXING:  cpu time    0.0027: real time    0.0027
    --------------------------------------------
      LOOP:  cpu time    2.0189: real time    2.0237

 eigenvalue-minimisations  :  1536
 total energy-change (2. order) :-0.2748912E+02  (-0.1187663E+02)
 number of electron     381.9999963 magnetization      24.3194590
 augmentation part      123.5174786 magnetization      21.4088595

 Broyden mixing:
  rms(total) = 0.10811E+02    rms(broyden)= 0.10811E+02
  rms(prec ) = 0.15242E+02
  weight for this iteration     100.00

 eigenvalues of (default mixing * dielectric matrix)
  average eigenvalue GAMMA=   0.4865
  0.6355  0.6355  0.1885

 Free energy of the ion-electron system (eV)
  ---------------------------------------------------
  alpha Z        PSCENC =      1189.19523074
  Ewald energy   TEWEN  =    -22833.42399639
  -Hartree energ DENC   =    -10679.21807642
  -exchange      EXHF   =         0.00000000
  -V(xc)+E(xc)   XCENC  =      1548.48315996
  PAW double counting   =     32557.63050319   -33848.36639069
  entropy T*S    EENTRO =        -0.01741225
  eigenvalues    EBANDS =     -1350.12042511
  atomic energy  EATOM  =     33023.84575915
  Solvation  Ediel_sol  =         0.00000000
  ---------------------------------------------------
  free energy    TOTEN  =      -391.99164782 eV

  energy without entropy =     -391.97423557  energy(sigma->0) =     -391.98294169


--------------------------------------------------------------------------------------------------------




--------------------------------------- Iteration      1(   9)  ---------------------------------------


    POTLOK:  cpu time    0.1130: real time    0.1132
    SETDIJ:  cpu time    0.0179: real time    0.0179
     EDDAV:  cpu time    1.5778: real time    1.5816
    CHARGE:  cpu time    0.1053: real time    0.1056
    MIXING:  cpu time    0.0029: real time    0.0029
    --------------------------------------------
      LOOP:  cpu time    1.8169: real time    1.8212

 eigenvalue-minimisations  :  1344
 total energy-change (2. order) : 0.2998057E+02  (-0.9433810E+01)
 number of electron     381.9999971 magnetization      18.5958269
 augmentation part      125.9003979 magnetization      16.0833778

 Broyden mixing:
  rms(total) = 0.40832E+01    rms(broyden)= 0.40824E+01
  rms(prec ) = 0.49218E+01
  weight for this iteration     100.00

 eigenvalues of (default mixing * dielectric matrix)
  average eigenvalue GAMMA=   0.5008
  0.7333  0.7333  0.4018  0.1347

 Free energy of the ion-electron system (eV)
  ---------------------------------------------------
  alpha Z        PSCENC =      1189.19523074
  Ewald energy   TEWEN  =    -22833.42399639
  -Hartree energ DENC   =    -10644.09784579
  -exchange      EXHF   =         0.00000000
  -V(xc)+E(xc)   XCENC  =      1546.58697074
  PAW double counting   =     33003.43491988   -34296.93876848
  entropy T*S    EENTRO =        -0.02657217
  eigenvalues    EBANDS =     -1350.58677138
  atomic energy  EATOM  =     33023.84575915
  Solvation  Ediel_sol  =         0.00000000
  ---------------------------------------------------
  free energy    TOTEN  =      -362.01107370 eV

  energy without entropy =     -361.98450153  energy(sigma->0) =     -361.99778761


--------------------------------------------------------------------------------------------------------




--------------------------------------- Iteration      1(  10)  ---------------------------------------


    POTLOK:  cpu time    0.1130: real time    0.1132
    SETDIJ:  cpu time    0.0188: real time    0.0189
     EDDAV:  cpu time    1.7315: real time    1.7356
    CHARGE:  cpu time    0.1057: real time    0.1059
    MIXING:  cpu time    0.0030: real time    0.0030
    --------------------------------------------
      LOOP:  cpu time    1.9720: real time    1.9767

 eigenvalue-minimisations  :  1488
 total energy-change (2. order) : 0.7064614E+01  (-0.2087054E+01)
 number of electron     381.9999978 magnetization      14.1486953
 augmentation part      126.9396802 magnetization      10.9552674

 Broyden mixing:
  rms(total) = 0.21891E+01    rms(broyden)= 0.21887E+01
  rms(prec ) = 0.27521E+01
  weight for this iteration     100.00

 eigenvalues of (default mixing * dielectric matrix)
  average eigenvalue GAMMA=   0.5778
  1.2818  0.5524  0.4572  0.4572  0.1402

 Free energy of the ion-electron system (eV)
  ---------------------------------------------------
  alpha Z        PSCENC =      1189.19523074
  Ewald energy   TEWEN  =    -22833.42399639
  -Hartree energ DENC   =    -10620.65020424
  -exchange      EXHF   =         0.00000000
  -V(xc)+E(xc)   XCENC  =      1544.80147141
  PAW double counting   =     33896.52210887   -35202.24201295
  entropy T*S    EENTRO =        -0.02812633
  eigenvalues    EBANDS =     -1352.96669032
  atomic energy  EATOM  =     33023.84575915
  Solvation  Ediel_sol  =         0.00000000
  ---------------------------------------------------
  free energy    TOTEN  =      -354.94646006 eV

  energy without entropy =     -354.91833373  energy(sigma->0) =     -354.93239690


--------------------------------------------------------------------------------------------------------




--------------------------------------- Iteration      1(  11)  ---------------------------------------


    POTLOK:  cpu time    0.1137: real time    0.1140
    SETDIJ:  cpu time    0.0178: real time    0.0179
     EDDAV:  cpu time    1.5562: real time    1.5599
    CHARGE:  cpu time    0.1061: real time    0.1063
    MIXING:  cpu time    0.0034: real time    0.0034
    --------------------------------------------
      LOOP:  cpu time    1.7972: real time    1.8015

 eigenvalue-minimisations  :  1312
 total energy-change (2. order) :-0.5876115E+01  (-0.3054810E+01)
 number of electron     381.9999982 magnetization      11.0104962
 augmentation part      126.3837324 magnetization       9.7629064

 Broyden mixing:
  rms(total) = 0.44946E+01    rms(broyden)= 0.44942E+01
  rms(prec ) = 0.58960E+01
  weight for this iteration     100.00

 eigenvalues of (default mixing * dielectric matrix)
  average eigenvalue GAMMA=   0.5609
  1.3996  0.5945  0.5282  0.5282  0.1395  0.1752

 Free energy of the ion-electron system (eV)
  ---------------------------------------------------
  alpha Z        PSCENC =      1189.19523074
  Ewald energy   TEWEN  =    -22833.42399639
  -Hartree energ DENC   =    -10620.84339642
  -exchange      EXHF   =         0.00000000
  -V(xc)+E(xc)   XCENC  =      1544.48212348
  PAW double counting   =     34652.94496420   -35968.90255761
  entropy T*S    EENTRO =        -0.03223975
  eigenvalues    EBANDS =     -1348.08846218
  atomic energy  EATOM  =     33023.84575915
  Solvation  Ediel_sol  =         0.00000000
  ---------------------------------------------------
  free energy    TOTEN  =      -360.82257478 eV

  energy without entropy =     -360.79033504  energy(sigma->0) =     -360.80645491


--------------------------------------------------------------------------------------------------------




--------------------------------------- Iteration      1(  12)  ---------------------------------------


    POTLOK:  cpu time    0.1212: real time    0.1215
    SETDIJ:  cpu time    0.0179: real time    0.0180
     EDDAV:  cpu time    1.4980: real time    1.5015
    CHARGE:  cpu time    0.1058: real time    0.1060
    MIXING:  cpu time    0.0032: real time    0.0032
    --------------------------------------------
      LOOP:  cpu time    1.7461: real time    1.7502

 eigenvalue-minimisations  :  1248
 total energy-change (2. order) : 0.5999995E+01  (-0.1684023E+01)
 number of electron     381.9999976 magnetization      10.2359148
 augmentation part      126.8232381 magnetization       7.7194847

 Broyden mixing:
  rms(total) = 0.12869E+01    rms(broyden)= 0.12861E+01
  rms(prec ) = 0.15599E+01
  weight for this iteration     100.00

 eigenvalues of (default mixing * dielectric matrix)
  average eigenvalue GAMMA=   0.5736
  1.5256  0.6422  0.6422  0.4497  0.4497  0.1389  0.1668

 Free energy of the ion-electron system (eV)
  ---------------------------------------------------
  alpha Z        PSCENC =      1189.19523074
  Ewald energy   TEWEN  =    -22833.42399639
  -Hartree energ DENC   =    -10625.10925073
  -exchange      EXHF   =         0.00000000
  -V(xc)+E(xc)   XCENC  =      1544.44254746
  PAW double counting   =     35123.43185861   -36447.06786392
  entropy T*S    EENTRO =        -0.05075907
  eigenvalues    EBANDS =     -1330.08610522
  atomic energy  EATOM  =     33023.84575915
  Solvation  Ediel_sol  =         0.00000000
  ---------------------------------------------------
  free energy    TOTEN  =      -354.82257936 eV

  energy without entropy =     -354.77182030  energy(sigma->0) =     -354.79719983


--------------------------------------------------------------------------------------------------------




--------------------------------------- Iteration      1(  13)  ---------------------------------------


    POTLOK:  cpu time    0.1134: real time    0.1137
    SETDIJ:  cpu time    0.0178: real time    0.0179
     EDDAV:  cpu time    1.6157: real time    1.6196
    CHARGE:  cpu time    0.1058: real time    0.1060
    MIXING:  cpu time    0.0034: real time    0.0034
    --------------------------------------------
      LOOP:  cpu time    1.8561: real time    1.8606

 eigenvalue-minimisations  :  1360
 total energy-change (2. order) :-0.6694597E+00  (-0.8667722E+00)
 number of electron     381.9999978 magnetization       9.9512041
 augmentation part      126.6560881 magnetization       7.1884053

 Broyden mixing:
  rms(total) = 0.17331E+01    rms(broyden)= 0.17328E+01
  rms(prec ) = 0.22889E+01
  weight for this iteration     100.00

 eigenvalues of (default mixing * dielectric matrix)
  average eigenvalue GAMMA=   0.5386
  1.5922  0.6767  0.6767  0.4440  0.4440  0.2047  0.1411  0.1293

 Free energy of the ion-electron system (eV)
  ---------------------------------------------------
  alpha Z        PSCENC =      1189.19523074
  Ewald energy   TEWEN  =    -22833.42399639
  -Hartree energ DENC   =    -10627.04768848
  -exchange      EXHF   =         0.00000000
  -V(xc)+E(xc)   XCENC  =      1544.46706769
  PAW double counting   =     35254.01855233   -36578.22640952
  entropy T*S    EENTRO =        -0.04346071
  eigenvalues    EBANDS =     -1328.27709388
  atomic energy  EATOM  =     33023.84575915
  Solvation  Ediel_sol  =         0.00000000
  ---------------------------------------------------
  free energy    TOTEN  =      -355.49203906 eV

  energy without entropy =     -355.44857835  energy(sigma->0) =     -355.47030870


--------------------------------------------------------------------------------------------------------




--------------------------------------- Iteration      1(  14)  ---------------------------------------


    POTLOK:  cpu time    0.1148: real time    0.1151
    SETDIJ:  cpu time    0.0179: real time    0.0179
     EDDAV:  cpu time    1.4867: real time    1.4903
    CHARGE:  cpu time    0.1064: real time    0.1066
    MIXING:  cpu time    0.0035: real time    0.0036
    --------------------------------------------
      LOOP:  cpu time    1.7293: real time    1.7335

 eigenvalue-minimisations  :  1232
 total energy-change (2. order) : 0.6768896E+00  (-0.4012849E+00)
 number of electron     381.9999978 magnetization       9.7977042
 augmentation part      126.6165815 magnetization       7.1745566

 Broyden mixing:
  rms(total) = 0.93352E+00    rms(broyden)= 0.93318E+00
  rms(prec ) = 0.11956E+01
  weight for this iteration     100.00

 eigenvalues of (default mixing * dielectric matrix)
  average eigenvalue GAMMA=   0.5546
  1.6437  0.7761  0.7761  0.4642  0.4642  0.4147  0.1701  0.1383  0.1441

 Free energy of the ion-electron system (eV)
  ---------------------------------------------------
  alpha Z        PSCENC =      1189.19523074
  Ewald energy   TEWEN  =    -22833.42399639
  -Hartree energ DENC   =    -10628.90359799
  -exchange      EXHF   =         0.00000000
  -V(xc)+E(xc)   XCENC  =      1544.51558675
  PAW double counting   =     35337.03720426   -36662.04088303
  entropy T*S    EENTRO =        -0.03775564
  eigenvalues    EBANDS =     -1325.00269734
  atomic energy  EATOM  =     33023.84575915
  Solvation  Ediel_sol  =         0.00000000
  ---------------------------------------------------
  free energy    TOTEN  =      -354.81514950 eV

  energy without entropy =     -354.77739386  energy(sigma->0) =     -354.79627168


--------------------------------------------------------------------------------------------------------




--------------------------------------- Iteration      1(  15)  ---------------------------------------


    POTLOK:  cpu time    0.1130: real time    0.1132
    SETDIJ:  cpu time    0.0179: real time    0.0180
     EDDAV:  cpu time    1.5042: real time    1.5078
    CHARGE:  cpu time    0.1058: real time    0.1060
    MIXING:  cpu time    0.0039: real time    0.0039
    --------------------------------------------
      LOOP:  cpu time    1.7447: real time    1.7488

 eigenvalue-minimisations  :  1248
 total energy-change (2. order) :-0.9620849E-01  (-0.3077084E+00)
 number of electron     381.9999978 magnetization       9.5771409
 augmentation part      126.5501781 magnetization       7.0276830

 Broyden mixing:
  rms(total) = 0.10352E+01    rms(broyden)= 0.10350E+01
  rms(prec ) = 0.13115E+01
  weight for this iteration     100.00

 eigenvalues of (default mixing * dielectric matrix)
  average eigenvalue GAMMA=   0.5560
  1.6503  0.9483  0.9483  0.4887  0.4887  0.4463  0.1837  0.1473  0.1378  0.1209

 Free energy of the ion-electron system (eV)
  ---------------------------------------------------
  alpha Z        PSCENC =      1189.19523074
  Ewald energy   TEWEN  =    -22833.42399639
  -Hartree energ DENC   =    -10630.39402448
  -exchange      EXHF   =         0.00000000
  -V(xc)+E(xc)   XCENC  =      1544.56921138
  PAW double counting   =     35402.51109957   -36727.99133346
  entropy T*S    EENTRO =        -0.01696400
  eigenvalues    EBANDS =     -1323.20634050
  atomic energy  EATOM  =     33023.84575915
  Solvation  Ediel_sol  =         0.00000000
  ---------------------------------------------------
  free energy    TOTEN  =      -354.91135799 eV

  energy without entropy =     -354.89439399  energy(sigma->0) =     -354.90287599


--------------------------------------------------------------------------------------------------------




--------------------------------------- Iteration      1(  16)  ---------------------------------------


    POTLOK:  cpu time    0.1130: real time    0.1132
    SETDIJ:  cpu time    0.0202: real time    0.0203
     EDDAV:  cpu time    1.5737: real time    1.5775
    CHARGE:  cpu time    0.1059: real time    0.1061
    MIXING:  cpu time    0.0040: real time    0.0040
    --------------------------------------------
      LOOP:  cpu time    1.8168: real time    1.8212

 eigenvalue-minimisations  :  1328
 total energy-change (2. order) : 0.1379929E+00  (-0.1358432E+00)
 number of electron     381.9999977 magnetization       9.1152806
 augmentation part      126.5829627 magnetization       6.6734361

 Broyden mixing:
  rms(total) = 0.65216E+00    rms(broyden)= 0.65193E+00
  rms(prec ) = 0.80687E+00
  weight for this iteration     100.00

 eigenvalues of (default mixing * dielectric matrix)
  average eigenvalue GAMMA=   0.5646
  1.6730  1.0748  1.0748  0.4849  0.4849  0.4017  0.4017  0.2058  0.1578  0.1380
  0.1125

 Free energy of the ion-electron system (eV)
  ---------------------------------------------------
  alpha Z        PSCENC =      1189.19523074
  Ewald energy   TEWEN  =    -22833.42399639
  -Hartree energ DENC   =    -10631.28502987
  -exchange      EXHF   =         0.00000000
  -V(xc)+E(xc)   XCENC  =      1544.68159940
  PAW double counting   =     35515.30232763   -36840.64700901
  entropy T*S    EENTRO =        -0.00204379
  eigenvalues    EBANDS =     -1322.44020292
  atomic energy  EATOM  =     33023.84575915
  Solvation  Ediel_sol  =         0.00000000
  ---------------------------------------------------
  free energy    TOTEN  =      -354.77336506 eV

  energy without entropy =     -354.77132126  energy(sigma->0) =     -354.77234316


--------------------------------------------------------------------------------------------------------




--------------------------------------- Iteration      1(  17)  ---------------------------------------


    POTLOK:  cpu time    0.1131: real time    0.1134
    SETDIJ:  cpu time    0.0179: real time    0.0179
     EDDAV:  cpu time    1.4965: real time    1.5000
    CHARGE:  cpu time    0.1052: real time    0.1055
    MIXING:  cpu time    0.0042: real time    0.0042
    --------------------------------------------
      LOOP:  cpu time    1.7369: real time    1.7410

 eigenvalue-minimisations  :  1248
 total energy-change (2. order) :-0.1363603E-01  (-0.4487444E-01)
 number of electron     381.9999978 magnetization       8.7003025
 augmentation part      126.7315820 magnetization       6.3094916

 Broyden mixing:
  rms(total) = 0.54698E+00    rms(broyden)= 0.54687E+00
  rms(prec ) = 0.70288E+00
  weight for this iteration     100.00

 eigenvalues of (default mixing * dielectric matrix)
  average eigenvalue GAMMA=   0.5744
  1.6120  1.2043  1.2043  0.5253  0.5253  0.4789  0.3770  0.3770  0.1872  0.1531
  0.1378  0.1104

 Free energy of the ion-electron system (eV)
  ---------------------------------------------------
  alpha Z        PSCENC =      1189.19523074
  Ewald energy   TEWEN  =    -22833.42399639
  -Hartree energ DENC   =    -10630.17345622
  -exchange      EXHF   =         0.00000000
  -V(xc)+E(xc)   XCENC  =      1544.73328861
  PAW double counting   =     35634.57709991   -36959.59431454
  entropy T*S    EENTRO =        -0.01446042
  eigenvalues    EBANDS =     -1323.93215192
  atomic energy  EATOM  =     33023.84575915
  Solvation  Ediel_sol  =         0.00000000
  ---------------------------------------------------
  free energy    TOTEN  =      -354.78700109 eV

  energy without entropy =     -354.77254067  energy(sigma->0) =     -354.77977088


--------------------------------------------------------------------------------------------------------




--------------------------------------- Iteration      1(  18)  ---------------------------------------


    POTLOK:  cpu time    0.1128: real time    0.1131
    SETDIJ:  cpu time    0.0198: real time    0.0198
     EDDAV:  cpu time    1.5710: real time    1.5747
    CHARGE:  cpu time    0.1060: real time    0.1063
    MIXING:  cpu time    0.0043: real time    0.0044
    --------------------------------------------
      LOOP:  cpu time    1.8139: real time    1.8183

 eigenvalue-minimisations  :  1312
 total energy-change (2. order) : 0.1318780E-01  (-0.5120043E-01)
 number of electron     381.9999978 magnetization       8.4623900
 augmentation part      126.7812235 magnetization       6.0873365

 Broyden mixing:
  rms(total) = 0.56608E+00    rms(broyden)= 0.56597E+00
  rms(prec ) = 0.71983E+00
  weight for this iteration     100.00

 eigenvalues of (default mixing * dielectric matrix)
  average eigenvalue GAMMA=   0.5815
  1.6632  1.2477  1.2477  0.6042  0.6042  0.5225  0.4634  0.4634  0.1888  0.1376
  0.1510  0.1563  0.1093

 Free energy of the ion-electron system (eV)
  ---------------------------------------------------
  alpha Z        PSCENC =      1189.19523074
  Ewald energy   TEWEN  =    -22833.42399639
  -Hartree energ DENC   =    -10631.63315941
  -exchange      EXHF   =         0.00000000
  -V(xc)+E(xc)   XCENC  =      1544.86229591
  PAW double counting   =     35745.45324653   -37070.48484272
  entropy T*S    EENTRO =        -0.00141205
  eigenvalues    EBANDS =     -1322.58693504
  atomic energy  EATOM  =     33023.84575915
  Solvation  Ediel_sol  =         0.00000000
  ---------------------------------------------------
  free energy    TOTEN  =      -354.77381329 eV

  energy without entropy =     -354.77240124  energy(sigma->0) =     -354.77310726


--------------------------------------------------------------------------------------------------------




--------------------------------------- Iteration      1(  19)  ---------------------------------------


    POTLOK:  cpu time    0.1128: real time    0.1130
    SETDIJ:  cpu time    0.0178: real time    0.0179
     EDDAV:  cpu time    1.6770: real time    1.6810
    CHARGE:  cpu time    0.1117: real time    0.1120
    MIXING:  cpu time    0.0050: real time    0.0050
    --------------------------------------------
      LOOP:  cpu time    1.9244: real time    1.9289

 eigenvalue-minimisations  :  1424
 total energy-change (2. order) : 0.4013765E-01  (-0.4042767E-01)
 number of electron     381.9999978 magnetization       8.3634346
 augmentation part      126.7241560 magnetization       6.0091072

 Broyden mixing:
  rms(total) = 0.31724E+00    rms(broyden)= 0.31717E+00
  rms(prec ) = 0.38443E+00
  weight for this iteration     100.00

 eigenvalues of (default mixing * dielectric matrix)
  average eigenvalue GAMMA=   0.6000
  1.5938  1.5938  1.2754  0.6912  0.6912  0.5732  0.4849  0.4849  0.2699  0.1849
  0.1378  0.1520  0.1568  0.1095

 Free energy of the ion-electron system (eV)
  ---------------------------------------------------
  alpha Z        PSCENC =      1189.19523074
  Ewald energy   TEWEN  =    -22833.42399639
  -Hartree energ DENC   =    -10634.52494195
  -exchange      EXHF   =         0.00000000
  -V(xc)+E(xc)   XCENC  =      1544.98554005
  PAW double counting   =     35816.62543054   -37142.26868941
  entropy T*S    EENTRO =        -0.00061800
  eigenvalues    EBANDS =     -1319.16739037
  atomic energy  EATOM  =     33023.84575915
  Solvation  Ediel_sol  =         0.00000000
  ---------------------------------------------------
  free energy    TOTEN  =      -354.73367564 eV

  energy without entropy =     -354.73305764  energy(sigma->0) =     -354.73336664


--------------------------------------------------------------------------------------------------------




--------------------------------------- Iteration      1(  20)  ---------------------------------------


    POTLOK:  cpu time    0.1237: real time    0.1240
    SETDIJ:  cpu time    0.0178: real time    0.0179
     EDDAV:  cpu time    1.6004: real time    1.6042
    CHARGE:  cpu time    0.1053: real time    0.1056
    MIXING:  cpu time    0.0047: real time    0.0047
    --------------------------------------------
      LOOP:  cpu time    1.8520: real time    1.8564

 eigenvalue-minimisations  :  1360
 total energy-change (2. order) : 0.3218837E-01  (-0.9593212E-02)
 number of electron     381.9999978 magnetization       8.1952777
 augmentation part      126.7339673 magnetization       5.8917901

 Broyden mixing:
  rms(total) = 0.19392E+00    rms(broyden)= 0.19390E+00
  rms(prec ) = 0.24995E+00
  weight for this iteration     100.00

 eigenvalues of (default mixing * dielectric matrix)
  average eigenvalue GAMMA=   0.6227
  1.8542  1.8542  0.9002  0.9002  0.7636  0.6196  0.4955  0.4955  0.4704  0.2460
  0.1869  0.1377  0.1514  0.1552  0.1094

 Free energy of the ion-electron system (eV)
  ---------------------------------------------------
  alpha Z        PSCENC =      1189.19523074
  Ewald energy   TEWEN  =    -22833.42399639
  -Hartree energ DENC   =    -10636.27729076
  -exchange      EXHF   =         0.00000000
  -V(xc)+E(xc)   XCENC  =      1545.10459584
  PAW double counting   =     35867.68253729   -37193.27565744
  entropy T*S    EENTRO =        -0.00262272
  eigenvalues    EBANDS =     -1317.55004298
  atomic energy  EATOM  =     33023.84575915
  Solvation  Ediel_sol  =         0.00000000
  ---------------------------------------------------
  free energy    TOTEN  =      -354.70148727 eV

  energy without entropy =     -354.69886456  energy(sigma->0) =     -354.70017591


--------------------------------------------------------------------------------------------------------




--------------------------------------- Iteration      1(  21)  ---------------------------------------


    POTLOK:  cpu time    0.1128: real time    0.1131
    SETDIJ:  cpu time    0.0179: real time    0.0179
     EDDAV:  cpu time    1.7027: real time    1.7067
    CHARGE:  cpu time    0.1058: real time    0.1060
    MIXING:  cpu time    0.0051: real time    0.0051
    --------------------------------------------
      LOOP:  cpu time    1.9442: real time    1.9488

 eigenvalue-minimisations  :  1488
 total energy-change (2. order) : 0.1233106E-02  (-0.7264524E-02)
 number of electron     381.9999978 magnetization       8.1257541
 augmentation part      126.7364315 magnetization       5.8253420

 Broyden mixing:
  rms(total) = 0.16229E+00    rms(broyden)= 0.16225E+00
  rms(prec ) = 0.20842E+00
  weight for this iteration     100.00

 eigenvalues of (default mixing * dielectric matrix)
  average eigenvalue GAMMA=   0.6198
  1.9736  1.9736  0.9581  0.9581  0.6824  0.6824  0.5026  0.5026  0.4696  0.2697
  0.2018  0.1898  0.1377  0.1524  0.1524  0.1094

 Free energy of the ion-electron system (eV)
  ---------------------------------------------------
  alpha Z        PSCENC =      1189.19523074
  Ewald energy   TEWEN  =    -22833.42399639
  -Hartree energ DENC   =    -10637.17686229
  -exchange      EXHF   =         0.00000000
  -V(xc)+E(xc)   XCENC  =      1545.13536415
  PAW double counting   =     35902.74375467   -37228.52796920
  entropy T*S    EENTRO =        -0.00428400
  eigenvalues    EBANDS =     -1316.48725099
  atomic energy  EATOM  =     33023.84575915
  Solvation  Ediel_sol  =         0.00000000
  ---------------------------------------------------
  free energy    TOTEN  =      -354.70025416 eV

  energy without entropy =     -354.69597016  energy(sigma->0) =     -354.69811216


--------------------------------------------------------------------------------------------------------




--------------------------------------- Iteration      1(  22)  ---------------------------------------


    POTLOK:  cpu time    0.1130: real time    0.1132
    SETDIJ:  cpu time    0.0178: real time    0.0178
     EDDAV:  cpu time    1.6149: real time    1.6187
    CHARGE:  cpu time    0.1059: real time    0.1061
    MIXING:  cpu time    0.0051: real time    0.0051
    --------------------------------------------
      LOOP:  cpu time    1.8566: real time    1.8610

 eigenvalue-minimisations  :  1392
 total energy-change (2. order) : 0.6562545E-02  (-0.3809231E-02)
 number of electron     381.9999978 magnetization       8.0849167
 augmentation part      126.7314805 magnetization       5.7814963

 Broyden mixing:
  rms(total) = 0.97890E-01    rms(broyden)= 0.97866E-01
  rms(prec ) = 0.13094E+00
  weight for this iteration     100.00

 eigenvalues of (default mixing * dielectric matrix)
  average eigenvalue GAMMA=   0.6531
  2.0978  2.0978  1.1187  0.9932  0.9932  0.5506  0.5506  0.5601  0.4906  0.4906
  0.2489  0.1094  0.1377  0.1866  0.1521  0.1521  0.1729

 Free energy of the ion-electron system (eV)
  ---------------------------------------------------
  alpha Z        PSCENC =      1189.19523074
  Ewald energy   TEWEN  =    -22833.42399639
  -Hartree energ DENC   =    -10637.80797291
  -exchange      EXHF   =         0.00000000
  -V(xc)+E(xc)   XCENC  =      1545.16214770
  PAW double counting   =     35921.47729875   -37247.33237934
  entropy T*S    EENTRO =        -0.00212300
  eigenvalues    EBANDS =     -1315.80765631
  atomic energy  EATOM  =     33023.84575915
  Solvation  Ediel_sol  =         0.00000000
  ---------------------------------------------------
  free energy    TOTEN  =      -354.69369162 eV

  energy without entropy =     -354.69156862  energy(sigma->0) =     -354.69263012


--------------------------------------------------------------------------------------------------------




--------------------------------------- Iteration      1(  23)  ---------------------------------------


    POTLOK:  cpu time    0.1126: real time    0.1128
    SETDIJ:  cpu time    0.0178: real time    0.0178
     EDDAV:  cpu time    1.6569: real time    1.6609
    CHARGE:  cpu time    0.1059: real time    0.1061
    MIXING:  cpu time    0.0052: real time    0.0052
    --------------------------------------------
      LOOP:  cpu time    1.8984: real time    1.9029

 eigenvalue-minimisations  :  1440
 total energy-change (2. order) : 0.1987072E-02  (-0.1508251E-02)
 number of electron     381.9999978 magnetization       8.0531784
 augmentation part      126.7206620 magnetization       5.7550262

 Broyden mixing:
  rms(total) = 0.71058E-01    rms(broyden)= 0.71042E-01
  rms(prec ) = 0.90815E-01
  weight for this iteration     100.00

 eigenvalues of (default mixing * dielectric matrix)
  average eigenvalue GAMMA=   0.6438
  2.1261  2.1261  1.2003  1.0197  1.0197  0.5721  0.5721  0.5178  0.4971  0.4971
  0.3029  0.2393  0.1867  0.1094  0.1377  0.1518  0.1518  0.1605

 Free energy of the ion-electron system (eV)
  ---------------------------------------------------
  alpha Z        PSCENC =      1189.19523074
  Ewald energy   TEWEN  =    -22833.42399639
  -Hartree energ DENC   =    -10638.62286331
  -exchange      EXHF   =         0.00000000
  -V(xc)+E(xc)   XCENC  =      1545.19993610
  PAW double counting   =     35936.46431380   -37262.36115748
  entropy T*S    EENTRO =        -0.00293354
  eigenvalues    EBANDS =     -1314.98599362
  atomic energy  EATOM  =     33023.84575915
  Solvation  Ediel_sol  =         0.00000000
  ---------------------------------------------------
  free energy    TOTEN  =      -354.69170455 eV

  energy without entropy =     -354.68877101  energy(sigma->0) =     -354.69023778


--------------------------------------------------------------------------------------------------------




--------------------------------------- Iteration      1(  24)  ---------------------------------------


    POTLOK:  cpu time    0.1127: real time    0.1129
    SETDIJ:  cpu time    0.0175: real time    0.0176
     EDDAV:  cpu time    1.6851: real time    1.6891
    CHARGE:  cpu time    0.1058: real time    0.1060
    MIXING:  cpu time    0.0054: real time    0.0055
    --------------------------------------------
      LOOP:  cpu time    1.9265: real time    1.9311

 eigenvalue-minimisations  :  1472
 total energy-change (2. order) : 0.1785801E-03  (-0.5560390E-03)
 number of electron     381.9999978 magnetization       8.0433836
 augmentation part      126.7213928 magnetization       5.7454872

 Broyden mixing:
  rms(total) = 0.66807E-01    rms(broyden)= 0.66796E-01
  rms(prec ) = 0.82230E-01
  weight for this iteration     100.00

 eigenvalues of (default mixing * dielectric matrix)
  average eigenvalue GAMMA=   0.6101
  2.1258  2.1258  1.2006  1.0195  1.0195  0.5720  0.5720  0.5181  0.4972  0.4972
  0.3031  0.2394  0.1867  0.1094  0.1377  0.1519  0.1519  0.1606  0.0041

 Free energy of the ion-electron system (eV)
  ---------------------------------------------------
  alpha Z        PSCENC =      1189.19523074
  Ewald energy   TEWEN  =    -22833.42399639
  -Hartree energ DENC   =    -10638.81432330
  -exchange      EXHF   =         0.00000000
  -V(xc)+E(xc)   XCENC  =      1545.20957350
  PAW double counting   =     35943.60943276   -37269.52070927
  entropy T*S    EENTRO =        -0.00363034
  eigenvalues    EBANDS =     -1314.78886282
  atomic energy  EATOM  =     33023.84575915
  Solvation  Ediel_sol  =         0.00000000
  ---------------------------------------------------
  free energy    TOTEN  =      -354.69152597 eV

  energy without entropy =     -354.68789562  energy(sigma->0) =     -354.68971080


--------------------------------------------------------------------------------------------------------




--------------------------------------- Iteration      1(  25)  ---------------------------------------


    POTLOK:  cpu time    0.1127: real time    0.1130
    SETDIJ:  cpu time    0.0176: real time    0.0176
     EDDAV:  cpu time    1.6028: real time    1.6066
    CHARGE:  cpu time    0.1057: real time    0.1059
    MIXING:  cpu time    0.0057: real time    0.0057
    --------------------------------------------
      LOOP:  cpu time    1.8444: real time    1.8488

 eigenvalue-minimisations  :  1376
 total energy-change (2. order) : 0.1121277E-03  (-0.1859328E-03)
 number of electron     381.9999978 magnetization       8.0435384
 augmentation part      126.7224019 magnetization       5.7445525

 Broyden mixing:
  rms(total) = 0.56384E-01    rms(broyden)= 0.56381E-01
  rms(prec ) = 0.66970E-01
  weight for this iteration     100.00

 eigenvalues of (default mixing * dielectric matrix)
  average eigenvalue GAMMA=   0.6322
  2.2555  2.0289  1.1792  1.0170  1.0170  0.7012  0.5982  0.5982  0.5072  0.5072
  0.5009  0.4312  0.2452  0.1865  0.1094  0.1377  0.1669  0.1547  0.1507  0.1507

 Free energy of the ion-electron system (eV)
  ---------------------------------------------------
  alpha Z        PSCENC =      1189.19523074
  Ewald energy   TEWEN  =    -22833.42399639
  -Hartree energ DENC   =    -10638.88132939
  -exchange      EXHF   =         0.00000000
  -V(xc)+E(xc)   XCENC  =      1545.21347998
  PAW double counting   =     35945.23025939   -37271.12901955
  entropy T*S    EENTRO =        -0.00338899
  eigenvalues    EBANDS =     -1314.73840879
  atomic energy  EATOM  =     33023.84575915
  Solvation  Ediel_sol  =         0.00000000
  ---------------------------------------------------
  free energy    TOTEN  =      -354.69141384 eV

  energy without entropy =     -354.68802485  energy(sigma->0) =     -354.68971935


--------------------------------------------------------------------------------------------------------




--------------------------------------- Iteration      1(  26)  ---------------------------------------


    POTLOK:  cpu time    0.1130: real time    0.1133
    SETDIJ:  cpu time    0.0179: real time    0.0179
     EDDAV:  cpu time    1.3661: real time    1.3694
    CHARGE:  cpu time    0.1067: real time    0.1070
    MIXING:  cpu time    0.0058: real time    0.0058
    --------------------------------------------
      LOOP:  cpu time    1.6095: real time    1.6133

 eigenvalue-minimisations  :  1136
 total energy-change (2. order) :-0.1761078E-04  (-0.2619545E-04)
 number of electron     381.9999978 magnetization       8.0233980
 augmentation part      126.7220317 magnetization       5.7248697

 Broyden mixing:
  rms(total) = 0.59388E-01    rms(broyden)= 0.59388E-01
  rms(prec ) = 0.69767E-01
  weight for this iteration     100.00

 eigenvalues of (default mixing * dielectric matrix)
  average eigenvalue GAMMA=   0.6442
  2.6708  2.0629  1.1793  1.1793  0.8851  0.7830  0.7830  0.5194  0.5194  0.5227
  0.4853  0.4853  0.2453  0.1094  0.1870  0.1377  0.1520  0.1520  0.1644  0.1521
  0.1521

 Free energy of the ion-electron system (eV)
  ---------------------------------------------------
  alpha Z        PSCENC =      1189.19523074
  Ewald energy   TEWEN  =    -22833.42399639
  -Hartree energ DENC   =    -10638.87947180
  -exchange      EXHF   =         0.00000000
  -V(xc)+E(xc)   XCENC  =      1545.21336556
  PAW double counting   =     35945.21073216   -37271.10906085
  entropy T*S    EENTRO =        -0.00342710
  eigenvalues    EBANDS =     -1314.74056291
  atomic energy  EATOM  =     33023.84575915
  Solvation  Ediel_sol  =         0.00000000
  ---------------------------------------------------
  free energy    TOTEN  =      -354.69143145 eV

  energy without entropy =     -354.68800435  energy(sigma->0) =     -354.68971790


--------------------------------------------------------------------------------------------------------




--------------------------------------- Iteration      1(  27)  ---------------------------------------


    POTLOK:  cpu time    0.1132: real time    0.1135
    SETDIJ:  cpu time    0.0179: real time    0.0179
     EDDAV:  cpu time    1.6344: real time    1.6382
    CHARGE:  cpu time    0.1064: real time    0.1066
    MIXING:  cpu time    0.0061: real time    0.0061
    --------------------------------------------
      LOOP:  cpu time    1.8779: real time    1.8823

 eigenvalue-minimisations  :  1408
[...]
   -.772E+01 -.170E+01 0.134E+01   0.831E+01 0.182E+01 -.140E+01   -.584E+00 -.127E+00 0.686E-01   -.152E-02 0.364E-02 0.114E-02
   0.148E+01 0.215E-12 0.464E-01   -.134E+01 0.759E-14 -.919E-01   -.139E+00 0.000E+00 0.447E-01   0.563E-03 0.126E-12 0.583E-03
   -.148E+01 0.208E-12 -.464E-01   0.134E+01 -.260E-14 0.919E-01   0.139E+00 0.000E+00 -.447E-01   -.563E-03 0.274E-12 -.583E-03
   -.393E-12 0.171E-13 -.182E-12   -.327E-12 -.120E-12 0.225E-11   0.103E-24 0.000E+00 0.404E-25   0.207E-11 0.105E-11 0.995E-12
   0.131E+02 0.135E+02 -.242E+02   -.136E+02 -.137E+02 0.247E+02   0.483E+00 0.225E+00 -.557E+00   -.462E-03 -.123E-01 -.190E-02
   -.131E+02 0.135E+02 0.242E+02   0.136E+02 -.137E+02 -.247E+02   -.483E+00 0.225E+00 0.557E+00   0.462E-03 -.123E-01 0.190E-02
   -.131E+02 -.135E+02 0.242E+02   0.136E+02 0.137E+02 -.247E+02   -.483E+00 -.225E+00 0.557E+00   0.462E-03 0.123E-01 0.190E-02
   0.131E+02 -.135E+02 -.242E+02   -.136E+02 0.137E+02 0.247E+02   0.483E+00 -.225E+00 -.557E+00   -.462E-03 0.123E-01 -.190E-02
   -.155E-10 0.101E-11 -.223E-11   -.199E-12 0.510E-13 0.206E-11   0.000E+00 0.000E+00 0.303E-27   0.206E-11 -.106E-11 0.992E-12
   0.146E-11 -.487E-13 -.150E-12   -.110E-11 -.595E-13 -.603E-11   0.000E+00 0.000E+00 -.452E-25   -.907E-12 -.125E-11 -.952E-12
   0.116E-11 0.975E-12 -.231E-11   -.119E-11 0.256E-12 -.870E-11   0.000E+00 0.000E+00 0.000E+00   -.819E-12 0.124E-11 -.951E-12
   0.207E-11 -.660E-13 0.107E-12   -.475E-11 0.591E-13 0.305E-11   0.000E+00 0.000E+00 0.162E-26   -.223E-11 -.473E-12 -.335E-12
   0.983E+01 0.122E+02 -.250E+02   -.102E+02 -.125E+02 0.256E+02   0.332E+00 0.297E+00 -.575E+00   0.226E-02 -.855E-02 -.232E-02
   -.983E+01 0.122E+02 0.250E+02   0.102E+02 -.125E+02 -.256E+02   -.332E+00 0.297E+00 0.575E+00   -.226E-02 -.855E-02 0.232E-02
   -.983E+01 -.122E+02 0.250E+02   0.102E+02 0.125E+02 -.256E+02   -.332E+00 -.297E+00 0.575E+00   -.226E-02 0.855E-02 0.232E-02
   0.983E+01 -.122E+02 -.250E+02   -.102E+02 0.125E+02 0.256E+02   0.332E+00 -.297E+00 -.575E+00   0.226E-02 0.855E-02 -.232E-02
   -.951E-12 0.933E-12 0.117E-11   0.197E-10 -.113E-12 -.361E-11   0.000E+00 0.000E+00 0.162E-26   -.215E-11 0.471E-12 -.133E-12
   0.186E-13 0.553E-13 0.247E-12   0.210E-10 -.146E-13 -.205E-10   0.000E+00 0.000E+00 -.808E-26   0.319E-11 0.577E-12 0.232E-12
   -.142E-11 0.106E-11 -.487E-11   0.214E-10 -.163E-12 -.211E-10   0.000E+00 0.000E+00 0.202E-26   0.317E-11 -.556E-12 0.153E-12
   -.379E+02 0.439E-13 0.305E+03   0.415E+02 0.939E-15 -.322E+03   -.359E+01 0.000E+00 0.166E+02   -.137E-01 0.132E-12 -.784E-03
   0.379E+02 0.128E-12 -.305E+03   -.415E+02 0.122E-13 0.322E+03   0.359E+01 0.000E+00 -.166E+02   0.137E-01 -.763E-12 0.784E-03
   0.385E+02 0.808E-13 -.304E+03   -.406E+02 -.417E-13 0.319E+03   0.210E+01 0.000E+00 -.150E+02   0.865E-03 0.747E-13 -.526E-02
   -.385E+02 -.634E-14 0.304E+03   0.406E+02 0.390E-14 -.319E+03   -.210E+01 0.000E+00 0.150E+02   -.865E-03 -.176E-12 0.526E-02
   0.414E+02 0.376E+02 0.320E+03   -.455E+02 -.403E+02 -.336E+03   0.403E+01 0.276E+01 0.160E+02   0.119E-01 -.174E-01 0.845E-02
   -.414E+02 0.376E+02 -.320E+03   0.455E+02 -.403E+02 0.336E+03   -.403E+01 0.276E+01 -.160E+02   -.119E-01 -.174E-01 -.845E-02
   -.414E+02 -.376E+02 -.320E+03   0.455E+02 0.403E+02 0.336E+03   -.403E+01 -.276E+01 -.160E+02   -.119E-01 0.174E-01 -.845E-02
   0.414E+02 -.376E+02 0.320E+03   -.455E+02 0.403E+02 -.336E+03   0.403E+01 -.276E+01 0.160E+02   0.119E-01 0.174E-01 0.845E-02
   -.620E+02 -.474E+01 -.343E+03   0.675E+02 0.495E+01 0.363E+03   -.547E+01 -.192E+00 -.192E+02   0.166E-02 -.205E-01 -.181E-02
   0.620E+02 -.474E+01 0.343E+03   -.675E+02 0.495E+01 -.363E+03   0.547E+01 -.192E+00 0.192E+02   -.166E-02 -.205E-01 0.181E-02
   0.620E+02 0.474E+01 0.343E+03   -.675E+02 -.495E+01 -.363E+03   0.547E+01 0.192E+00 0.192E+02   -.166E-02 0.205E-01 0.181E-02
   -.620E+02 0.474E+01 -.343E+03   0.675E+02 -.495E+01 0.363E+03   -.547E+01 0.192E+00 -.192E+02   0.166E-02 0.205E-01 -.181E-02
   0.438E+01 0.293E-12 0.281E+03   -.533E+01 0.825E-14 -.294E+03   0.972E+00 0.000E+00 0.132E+02   -.847E-02 -.143E-12 -.465E-02
   -.438E+01 0.303E-12 -.281E+03   0.533E+01 -.752E-14 0.294E+03   -.972E+00 0.000E+00 -.132E+02   0.847E-02 0.815E-12 0.465E-02
   0.565E+02 0.236E-12 -.313E+03   -.596E+02 0.539E-13 0.328E+03   0.318E+01 0.000E+00 -.152E+02   -.580E-02 -.349E-13 0.259E-02
   -.565E+02 0.223E-12 0.313E+03   0.596E+02 0.419E-13 -.328E+03   -.318E+01 0.646E-26 0.152E+02   0.580E-02 0.193E-12 -.259E-02
   -.375E+02 0.601E-13 0.304E+03   0.394E+02 0.647E-13 -.319E+03   -.188E+01 0.000E+00 0.147E+02   -.204E-01 -.730E-12 0.510E-02
   0.375E+02 0.103E-12 -.304E+03   -.394E+02 0.720E-13 0.319E+03   0.188E+01 0.000E+00 -.147E+02   0.204E-01 0.132E-11 -.510E-02
   0.366E+02 0.236E-13 -.304E+03   -.403E+02 0.512E-13 0.321E+03   0.367E+01 0.000E+00 -.164E+02   0.844E-02 -.500E-13 -.541E-02
   -.366E+02 -.102E-13 0.304E+03   0.403E+02 0.637E-13 -.321E+03   -.367E+01 0.000E+00 0.164E+02   -.844E-02 0.382E-12 0.541E-02
   0.637E+02 -.360E+01 0.345E+03   -.692E+02 0.382E+01 -.364E+03   0.555E+01 -.219E+00 0.192E+02   0.939E-02 -.624E-02 0.634E-02
   -.637E+02 -.360E+01 -.345E+03   0.692E+02 0.382E+01 0.364E+03   -.555E+01 -.219E+00 -.192E+02   -.939E-02 -.624E-02 -.634E-02
   -.637E+02 0.360E+01 -.345E+03   0.692E+02 -.382E+01 0.364E+03   -.555E+01 0.219E+00 -.192E+02   -.939E-02 0.624E-02 -.634E-02
   0.637E+02 0.360E+01 0.345E+03   -.692E+02 -.382E+01 -.364E+03   0.555E+01 0.219E+00 0.192E+02   0.939E-02 0.624E-02 0.634E-02
   -.412E+02 0.374E+02 -.321E+03   0.452E+02 -.400E+02 0.337E+03   -.403E+01 0.259E+01 -.163E+02   0.109E-02 -.116E-01 0.548E-03
   0.412E+02 0.374E+02 0.321E+03   -.452E+02 -.400E+02 -.337E+03   0.403E+01 0.259E+01 0.163E+02   -.109E-02 -.116E-01 -.548E-03
   0.412E+02 -.374E+02 0.321E+03   -.452E+02 0.400E+02 -.337E+03   0.403E+01 -.259E+01 0.163E+02   -.109E-02 0.116E-01 -.548E-03
   -.412E+02 -.374E+02 -.321E+03   0.452E+02 0.400E+02 0.337E+03   -.403E+01 -.259E+01 -.163E+02   0.109E-02 0.116E-01 0.548E-03
   -.535E+02 0.239E-12 0.314E+03   0.564E+02 -.284E-13 -.329E+03   -.289E+01 0.000E+00 0.153E+02   -.710E-02 0.717E-12 -.227E-02
   0.535E+02 0.336E-12 -.314E+03   -.564E+02 -.751E-13 0.329E+03   0.289E+01 0.000E+00 -.153E+02   0.710E-02 -.129E-11 0.227E-02
   -.122E+02 0.281E-12 -.280E+03   0.138E+02 0.215E-13 0.293E+03   -.153E+01 0.000E+00 -.132E+02   -.106E-01 0.159E-12 0.618E-02
   0.122E+02 0.187E-12 0.280E+03   -.138E+02 0.106E-13 -.293E+03   0.153E+01 0.000E+00 0.132E+02   0.106E-01 -.370E-12 -.618E-02
 -----------------------------------------------------------------------------------------------
   -.205E-10 0.140E-10 -.174E-10   0.711E-14 0.113E-12 0.227E-12   0.178E-14 0.000E+00 -.178E-14   -.939E-12 0.510E-12 0.323E-11
 
 
 POSITION                                       TOTAL-FORCE (eV/Angst)
 -----------------------------------------------------------------------------------
      3.89046      1.38165      2.38215        -0.008420      0.001640     -0.005185
      2.39207      1.38165      7.11655         0.008420      0.001640      0.005185
      2.39207      4.24283      7.11655         0.008420     -0.001640      0.005185
      3.89046      4.24283      2.38215        -0.008420     -0.001640     -0.005185
     -0.74893      1.37778      2.36683         0.007252      0.004268      0.005026
      7.03145      1.37778      7.13188        -0.007252      0.004268     -0.005026
      7.03145      4.24670      7.13188        -0.007252     -0.004268     -0.005026
     -0.74893      4.24670      2.36683         0.007252     -0.004268      0.005026
      6.51312      2.81224      2.41275        -0.001817     -0.000000     -0.000166
     -0.23060      2.81224      7.08596         0.001817     -0.000000      0.000166
      0.00000     -0.00000     -0.00000         0.000000     -0.000000     -0.000000
     -1.13439      1.40213      9.44152        -0.001282      0.006951     -0.013177
      7.41692      1.40213      0.05718         0.001282      0.006951      0.013177
      7.41692      4.22235      0.05718         0.001282     -0.006951      0.013177
     -1.13439      4.22235      9.44152        -0.001282     -0.006951     -0.013177
      0.00000      2.81224     -0.00000         0.000000     -0.000000     -0.000000
      4.93656     -0.00000      0.03286         0.000000     -0.000000     -0.000000
      4.93656      2.81224      0.03286         0.000000     -0.000000     -0.000000
      3.14126     -0.00000      4.74935         0.000000     -0.000000     -0.000000
      5.59468      1.40178      4.76300        -0.001059      0.004738     -0.011386
      0.68785      1.40178      4.73571         0.001059      0.004738      0.011386
      0.68785      4.22269      4.73571         0.001059     -0.004738      0.011386
      5.59468      4.22269      4.76300        -0.001059     -0.004738     -0.011386
      3.14126      2.81224      4.74935         0.000000     -0.000000     -0.000000
     -1.79530     -0.00000      4.71649         0.000000     -0.000000     -0.000000
     -1.79530      2.81224      4.71649         0.000000     -0.000000     -0.000000
      4.76868     -0.00000      3.79728        -0.005347     -0.000000     -0.008708
      1.51384     -0.00000      5.70143         0.005347     -0.000000      0.008708
      3.25468     -0.00000      0.96667        -0.007204     -0.000000     -0.008701
      3.02784     -0.00000      8.53203         0.007204     -0.000000      0.008701
      7.37884      1.42254      3.77823         0.004185     -0.003336      0.001113
     -1.09631      1.42254      5.72047        -0.004185     -0.003336     -0.001113
     -1.09631      4.20193      5.72047        -0.004185      0.003336     -0.001113
      7.37884      4.20193      3.77823         0.004185      0.003336      0.001113
      0.71281      1.41084      0.96970         0.005799     -0.000234     -0.007057
      5.56971      1.41084      8.52900        -0.005799     -0.000234      0.007057
      5.56971      4.21363      8.52900        -0.005799      0.000234      0.007057
      0.71281      4.21363      0.96970         0.005799      0.000234     -0.007057
      4.84828      2.81224      3.74646         0.007834     -0.000000     -0.008362
      1.43425      2.81224      5.75224        -0.007834     -0.000000      0.008362
      3.29251      2.81224      0.96904        -0.002029     -0.000000     -0.008723
      2.99002      2.81224      8.52967         0.002029     -0.000000      0.008723
     -0.11549     -0.00000      3.77747         0.004312     -0.000000      0.011073
      6.39802     -0.00000      5.72123        -0.004312     -0.000000     -0.011073
      8.25000     -0.00000      1.02485         0.005478     -0.000000      0.009237
     -1.96748     -0.00000      8.47386        -0.005478     -0.000000     -0.009237
      2.43585      1.40974      3.77421        -0.004502      0.000625      0.008485
      3.84667      1.40974      5.72449         0.004502      0.000625     -0.008485
      3.84667      4.21474      5.72449         0.004502     -0.000625     -0.008485
      2.43585      4.21474      3.77421        -0.004502     -0.000625      0.008485
      5.63237      1.42119      1.03787        -0.004470     -0.003264      0.000891
      0.65015      1.42119      8.46084         0.004470     -0.003264     -0.000891
      0.65015      4.20328      8.46084         0.004470      0.003264     -0.000891
      5.63237      4.20328      1.03787        -0.004470      0.003264      0.000891
     -0.14477      2.81224      3.78162         0.003769     -0.000000      0.007303
      6.42730      2.81224      5.71708        -0.003769     -0.000000     -0.007303
      8.14083      2.81224      1.07799        -0.012040     -0.000000      0.013371
     -1.85830      2.81224      8.42072         0.012040     -0.000000     -0.013371
 -----------------------------------------------------------------------------------
    total drift:                               -0.000000      0.000000     -0.000000


--------------------------------------------------------------------------------------------------------



  FREE ENERGIE OF THE ION-ELECTRON SYSTEM (eV)
  ---------------------------------------------------
  free  energy   TOTEN  =      -354.7169992154 eV

  energy  without entropy=     -354.7063907729  energy(sigma->0) =     -354.71169499
 
 d Force = 0.9809679E-03[ 0.855E-03, 0.111E-02]  d Energy = 0.9577816E-03 0.232E-04
 d Force =-0.3591844E+01[-0.360E+01,-0.358E+01]  d Ewald  =-0.1144291E+02 0.785E+01


--------------------------------------------------------------------------------------------------------


    POTLOK:  cpu time    0.1543: real time    0.1547


--------------------------------------------------------------------------------------------------------


 Quasi-Newton relaxation of ions (Broydens 2nd method)
  g(Force)  = 0.262E-03   g(Stress)= 0.916E-05

 retain information from N=  2 steps
 eigenvalues of (default step * inverse Hessian matrix)
  average eigenvalue of G=   1.5675
 eigenvalue spectrum of G is  1.5675  1.5675


--------------------------------------------------------------------------------------------------------


  
 reached required accuracy - stopping structural energy minimisation
     LOOP+:  cpu time   23.9983: real time   24.1151
    4ORBIT:  cpu time    0.0000: real time    0.0000

volume of typ            1:    14.8 %

volume of typ            2:    19.4 %

volume of typ            3:     9.9 %
 
total charge     
 
# of ion       s       p       d       tot
------------------------------------------
    1        2.076   0.249   0.090   2.416
    2        2.076   0.249   0.090   2.416
    3        2.076   0.249   0.090   2.416
    4        2.076   0.249   0.090   2.416
    5        2.076   0.248   0.090   2.413
    6        2.076   0.248   0.090   2.413
    7        2.076   0.248   0.090   2.413
    8        2.076   0.248   0.090   2.413
    9        2.075   0.227   0.085   2.388
   10        2.075   0.227   0.085   2.388
   11        0.300   0.426   7.843   8.569
   12        0.262   0.343   7.859   8.463
   13        0.262   0.343   7.859   8.463
   14        0.262   0.343   7.859   8.463
   15        0.262   0.343   7.859   8.463
   16        0.283   0.390   7.859   8.532
   17        0.281   0.386   7.846   8.513
   18        0.300   0.428   7.850   8.578
   19        0.300   0.427   7.842   8.570
   20        0.261   0.342   7.861   8.464
   21        0.261   0.342   7.861   8.464
   22        0.261   0.342   7.861   8.464
   23        0.261   0.342   7.861   8.464
   24        0.285   0.397   7.855   8.536
   25        0.280   0.385   7.845   8.509
   26        0.300   0.426   7.851   8.577
   27        1.264   2.779   0.007   4.049
   28        1.264   2.779   0.007   4.049
   29        1.262   2.786   0.007   4.055
   30        1.262   2.786   0.007   4.055
   31        1.267   2.768   0.006   4.042
   32        1.267   2.768   0.006   4.042
   33        1.267   2.768   0.006   4.042
   34        1.267   2.768   0.006   4.042
   35        1.270   2.763   0.007   4.040
   36        1.270   2.763   0.007   4.040
   37        1.270   2.763   0.007   4.040
   38        1.270   2.763   0.007   4.040
   39        1.260   2.787   0.006   4.052
   40        1.260   2.787   0.006   4.052
   41        1.262   2.784   0.006   4.053
   42        1.262   2.784   0.006   4.053
   43        1.262   2.788   0.007   4.056
   44        1.262   2.788   0.007   4.056
   45        1.263   2.778   0.007   4.049
   46        1.263   2.778   0.007   4.049
   47        1.270   2.763   0.007   4.040
   48        1.270   2.763   0.007   4.040
   49        1.270   2.763   0.007   4.040
   50        1.270   2.763   0.007   4.040
   51        1.267   2.768   0.006   4.041
   52        1.267   2.768   0.006   4.041
   53        1.267   2.768   0.006   4.041
   54        1.267   2.768   0.006   4.041
   55        1.262   2.784   0.007   4.052
   56        1.262   2.784   0.007   4.052
   57        1.259   2.787   0.006   4.053
   58        1.259   2.787   0.006   4.053
--------------------------------------------------
tot          65.67   97.24  126.77  289.67
 
magnetization (x)
 
# of ion       s       p       d       tot
------------------------------------------
    1        0.005   0.017  -0.000   0.021
    2        0.005   0.017  -0.000   0.021
    3        0.005   0.017  -0.000   0.021
    4        0.005   0.017  -0.000   0.021
    5        0.005   0.016  -0.000   0.021
    6        0.005   0.016  -0.000   0.021
    7        0.005   0.016  -0.000   0.021
    8        0.005   0.016  -0.000   0.021
    9       -0.000   0.004  -0.000   0.003
   10       -0.000   0.004  -0.000   0.003
   11       -0.001  -0.000  -0.002  -0.003
   12        0.001  -0.000   0.708   0.709
   13        0.001  -0.000   0.708   0.709
   14        0.001  -0.000   0.708   0.709
   15        0.001  -0.000   0.708   0.709
   16       -0.004  -0.000  -0.413  -0.417
   17       -0.001  -0.000  -0.009  -0.010
   18       -0.001  -0.000   0.069   0.068
   19       -0.001  -0.000   0.027   0.026
   20        0.001   0.000   0.701   0.702
   21        0.001   0.000   0.701   0.702
   22        0.001   0.000   0.701   0.702
   23        0.001   0.000   0.701   0.702
   24        0.001  -0.000   0.299   0.300
   25       -0.001  -0.000   0.259   0.258
   26       -0.001  -0.000   0.106   0.105
   27        0.007   0.025   0.000   0.032
   28        0.007   0.025   0.000   0.032
   29        0.007   0.021   0.000   0.027
   30        0.007   0.021   0.000   0.027
   31        0.008   0.051   0.000   0.059
   32        0.008   0.051   0.000   0.059
   33        0.008   0.051   0.000   0.059
   34        0.008   0.051   0.000   0.059
   35        0.004   0.040   0.000   0.044
   36        0.004   0.040   0.000   0.044
   37        0.004   0.040   0.000   0.044
   38        0.004   0.040   0.000   0.044
   39        0.010   0.045   0.000   0.055
   40        0.010   0.045   0.000   0.055
   41        0.008   0.034   0.000   0.042
   42        0.008   0.034   0.000   0.042
   43        0.009   0.040   0.000   0.049
   44        0.009   0.040   0.000   0.049
   45        0.007   0.032   0.000   0.040
   46        0.007   0.032   0.000   0.040
   47        0.006   0.050   0.000   0.056
   48        0.006   0.050   0.000   0.056
   49        0.006   0.050   0.000   0.056
   50        0.006   0.050   0.000   0.056
   51        0.006   0.044   0.000   0.050
   52        0.006   0.044   0.000   0.050
   53        0.006   0.044   0.000   0.050
   54        0.006   0.044   0.000   0.050
   55        0.008   0.029   0.000   0.037
   56        0.008   0.029   0.000   0.037
   57        0.002  -0.018  -0.000  -0.016
   58        0.002  -0.018  -0.000  -0.016
--------------------------------------------------
tot           0.25    1.29    5.98    7.52
 

 total amount of memory used by VASP MPI-rank0    93703. kBytes
=======================================================================

   base      :      30000. kBytes
   nonlr-proj:      21922. kBytes
   fftplans  :       5544. kBytes
   grid      :      31764. kBytes
   one-center:        902. kBytes
   wavefun   :       3571. kBytes
 
  
  
 General timing and accounting informations for this job:
 ========================================================
  
                  Total CPU time used (sec):      218.549
                            User time (sec):      215.960
                          System time (sec):        2.589
                         Elapsed time (sec):      223.814
  
                   Maximum memory used (kb):      140260.
                   Average memory used (kb):           0.
  
                          Minor page faults:        37314
                          Major page faults:           41
                 Voluntary context switches:         1265
