 vasp.5.4.4.18Apr17-6-g9f103f2a35 (build May 12 2020 05:39:39) gamma-only       
  
 MD_VERSION_INFO: Compiled 2020-05-12T12:39:39-UTC in devlin.sd.materialsdesign.
 com:/home/medea2/data/build/wwolf/vasp-gpu5.4.4/13047/x86_64/src/src/build/gam 
 from svn 13047
 
 This VASP executable licensed from Materials Design, Inc.
 
 executed on                        Lin64 date 2023.03.07  05:15:05
 running on   16 total cores
 distrk:  each k-point on   16 cores,    1 groups
 distr:  one band on NCORES_PER_BAND=   1 cores,   16 groups


--------------------------------------------------------------------------------------------------------


 INCAR:
 POTCAR:    PAW_PBE Li_sv 10Sep2004               
 POTCAR:    PAW_PBE Ni 02Aug2007                  
 POTCAR:    PAW_PBE O 08Apr2002                   

 ----------------------------------------------------------------------------- 
|                                                                             |
|           W    W    AA    RRRRR   N    N  II  N    N   GGGG   !!!           |
|           W    W   A  A   R    R  NN   N  II  NN   N  G    G  !!!           |
|           W    W  A    A  R    R  N N  N  II  N N  N  G       !!!           |
|           W WW W  AAAAAA  RRRRR   N  N N  II  N  N N  G  GGG   !            |
|           WW  WW  A    A  R   R   N   NN  II  N   NN  G    G                |
|           W    W  A    A  R    R  N    N  II  N    N   GGGG   !!!           |
|                                                                             |
|      For optimal performance we recommend to set                            |
|        NCORE= 4 - approx SQRT( number of cores)                             |
|      NCORE specifies how many cores store one orbital (NPAR=cpu/NCORE).     |
|      This setting can  greatly improve the performance of VASP for DFT.     |
|      The default,   NCORE=1            might be grossly inefficient         |
|      on modern multi-core architectures or massively parallel machines.     |
|      Do your own testing !!!!                                               |
|      Unfortunately you need to use the default for GW and RPA calculations. |
|      (for HF NCORE is supported but not extensively tested yet)             |
|                                                                             |
 ----------------------------------------------------------------------------- 

 POTCAR:    PAW_PBE Li_sv 10Sep2004               
  local pseudopotential read in
  atomic valenz-charges read in
  non local Contribution for L=           0  read in
    real space projection operators read in
  non local Contribution for L=           0  read in
    real space projection operators read in
  non local Contribution for L=           1  read in
    real space projection operators read in
    PAW grid and wavefunctions read in
 
   number of l-projection  operators is LMAX  =           3
   number of lm-projection operators is LMMAX =           5
 
 POTCAR:    PAW_PBE Ni 02Aug2007                  
  local pseudopotential read in
  partial core-charges read in
  partial kinetic energy density read in
  atomic valenz-charges read in
  non local Contribution for L=           2  read in
    real space projection operators read in
  non local Contribution for L=           2  read in
    real space projection operators read in
  non local Contribution for L=           0  read in
    real space projection operators read in
  non local Contribution for L=           0  read in
    real space projection operators read in
  non local Contribution for L=           1  read in
    real space projection operators read in
  non local Contribution for L=           1  read in
    real space projection operators read in
    PAW grid and wavefunctions read in
 
   number of l-projection  operators is LMAX  =           6
   number of lm-projection operators is LMMAX =          18
 
 POTCAR:    PAW_PBE O 08Apr2002                   
  local pseudopotential read in
  partial core-charges read in
  partial kinetic energy density read in
  kinetic energy density of atom read in
  atomic valenz-charges read in
  non local Contribution for L=           0  read in
    real space projection operators read in
  non local Contribution for L=           0  read in
    real space projection operators read in
  non local Contribution for L=           1  read in
    real space projection operators read in
  non local Contribution for L=           1  read in
    real space projection operators read in
    PAW grid and wavefunctions read in
 
   number of l-projection  operators is LMAX  =           4
   number of lm-projection operators is LMMAX =           8
 
 Optimization of the real space projectors (new method)

 maximal supplied QI-value         = 22.11
 optimisation between [QCUT,QGAM] = [ 11.28, 22.77] = [ 35.61,145.23] Ry 
 Optimized for a Real-space Cutoff    1.10 Angstroem

   l    n(q)    QCUT    max X(q) W(low)/X(q) W(high)/X(q)  e(spline) 
   0      7    11.276    10.506    0.54E-04    0.58E-04    0.16E-07
   0      7    11.276     8.367    0.11E-03    0.14E-03    0.35E-07
   1      7    11.276     8.983    0.23E-03    0.43E-03    0.86E-07
 Optimization of the real space projectors (new method)

 maximal supplied QI-value         = 16.25
 optimisation between [QCUT,QGAM] = [ 11.38, 22.75] = [ 36.24,144.96] Ry 
 Optimized for a Real-space Cutoff    1.47 Angstroem

   l    n(q)    QCUT    max X(q) W(low)/X(q) W(high)/X(q)  e(spline) 
   2      9    11.376    60.317    0.17E-03    0.16E-04    0.16E-06
   2      9    11.376    55.921    0.17E-03    0.16E-04    0.17E-06
   0     10    11.376    51.690    0.45E-04    0.60E-04    0.21E-06
   0     10    11.376    30.015    0.37E-04    0.55E-04    0.19E-06
   1     10    11.376    18.849    0.83E-04    0.11E-03    0.92E-07
   1     10    11.376    14.624    0.69E-04    0.92E-04    0.82E-07
 Optimization of the real space projectors (new method)

 maximal supplied QI-value         = 24.76
 optimisation between [QCUT,QGAM] = [ 11.39, 22.77] = [ 36.31,145.25] Ry 
 Optimized for a Real-space Cutoff    1.10 Angstroem

   l    n(q)    QCUT    max X(q) W(low)/X(q) W(high)/X(q)  e(spline) 
   0      7    11.387    20.381    0.22E-03    0.48E-03    0.18E-06
   0      7    11.387    15.268    0.22E-03    0.52E-03    0.19E-06
   1      7    11.387     5.964    0.22E-03    0.73E-03    0.24E-06
   1      7    11.387     5.382    0.19E-03    0.60E-03    0.21E-06

 ----------------------------------------------------------------------------- 
|                                                                             |
|  ADVICE TO THIS USER RUNNING 'VASP/VAMP'   (HEAR YOUR MASTER'S VOICE ...):  |
|                                                                             |
|      You enforced a specific xc-type in the INCAR file,                     |
|      a different type was found on the POTCAR file                          |
|          I HOPE YOU KNOW, WHAT YOU ARE  DOING                               |
|                                                                             |
 ----------------------------------------------------------------------------- 

  PAW_PBE Li_sv 10Sep2004               :
 energy of atom  1       EATOM= -202.7858
 kinetic energy error for atom=    0.0143 (will be added to EATOM!!)
  PAW_PBE Ni 02Aug2007                  :
 energy of atom  2       EATOM=-1077.6739
 kinetic energy error for atom=    0.0030 (will be added to EATOM!!)
  PAW_PBE O 08Apr2002                   :
 energy of atom  3       EATOM= -432.3788
 kinetic energy error for atom=    0.0224 (will be added to EATOM!!)
 
 
 POSCAR: ce16255_1                               
  positions in direct lattice
  No initial velocities read in
 exchange correlation table for  LEXCH =       14
   RHO(1)=    0.500       N(1)  =     2000
   RHO(2)=  100.500       N(2)  =     4000
 


--------------------------------------------------------------------------------------------------------


 ion  position               nearest neighbor table
   1  0.246  0.249  0.499-  44 2.09  48 2.10  26 2.14  24 2.16  38 2.16  36 2.20
   2  0.550  0.251  0.249-  35 2.01  47 2.02  52 2.10  38 2.15  19 2.75  12 2.80
   3  0.519  0.751  0.729-  39 2.01  46 2.04  45 2.17  34 2.20  21 2.79  11 2.82
   4  0.955  0.250  0.751-  31 2.01  51 2.02  42 2.16  24 2.18  11 2.79  20 2.82
   5  0.253  0.250  0.000-  32 2.10  28 2.11  52 2.13  54 2.14  40 2.15  42 2.16
   6  0.207  0.750  0.000-  41 2.02  43 2.04  33 2.12  29 2.15  22 2.81   8 2.83
   7  0.518  0.747  0.275-  37 2.01  50 2.03  49 2.14  30 2.19  19 2.82  15 2.82
   8  0.000  0.002  1.000-  35 1.85  32 1.85  33 1.85  34 1.86  43 1.95  42 1.97  13 2.76  13 2.77
                            11 2.81  10 2.82   9 2.83   6 2.83  12 2.83
   9  0.249  0.002  0.250-  43 1.84  26 1.84  38 1.85  55 1.85  49 1.97  32 2.02  12 2.76  12 2.77
                            14 2.82  13 2.83   8 2.83  15 2.83
  10  0.250  0.000  0.749-  39 1.83  42 1.84  27 1.84  54 1.85  48 2.03  33 2.04  11 2.76  11 2.77
                            15 2.82  14 2.82   8 2.82  13 2.83
  11  0.751  0.002  0.752-  39 1.84  27 1.85  42 1.86  54 1.87  51 1.93  34 1.94  10 2.76  10 2.77
                             4 2.79   8 2.81  13 2.82   3 2.82  15 2.83  14 2.84
  12  0.751  0.001  0.250-  43 1.85  38 1.86  26 1.86  55 1.86  50 1.93  35 1.94   9 2.76   9 2.77
                             2 2.80  13 2.82  14 2.82  15 2.83   8 2.83
  13  0.501  0.999  1.000-  33 1.84  34 1.84  32 1.84  35 1.85  54 1.92  55 1.95   8 2.76   8 2.77
                            11 2.82  12 2.82   9 2.83  10 2.83
  14  0.000  0.996  0.498-  48 1.84  51 1.85  50 1.86  49 1.86  27 1.90  26 1.93  15 2.76  15 2.77
                             9 2.82  12 2.82  10 2.82  11 2.84
  15  0.501  0.003  0.501-  49 1.83  50 1.84  51 1.85  48 1.86  39 1.99  38 2.01  14 2.76  14 2.77
                            10 2.82   7 2.82  12 2.83  11 2.83   9 2.83
  16  0.001  0.500  0.500-  45 1.85  47 1.85  46 1.85  44 1.86  25 1.94  24 1.99  21 2.76  21 2.77
                            18 2.81  20 2.82  17 2.82  19 2.83
  17  0.251  0.500  0.749-  53 1.83  24 1.84  36 1.85  41 1.86  45 1.99  28 2.03  20 2.76  20 2.77
                            23 2.82  21 2.82  16 2.82  22 2.85
  18  0.248  0.498  0.250-  25 1.82  52 1.84  40 1.84  37 1.86  44 2.03  29 2.03  19 2.75  19 2.78
                            16 2.81  22 2.82  21 2.83  23 2.85
  19  0.751  0.496  0.248-  25 1.83  37 1.86  40 1.86  52 1.86  30 1.94  47 1.94  18 2.75   2 2.75
                            18 2.78  22 2.80   7 2.82  16 2.83  21 2.83  23 2.84
  20  0.751  0.501  0.750-  53 1.85  24 1.86  41 1.87  36 1.87  46 1.93  31 1.94  17 2.76  17 2.77
                            21 2.81  16 2.82   4 2.82  23 2.82  22 2.84
  21  0.501  0.501  0.501-  45 1.83  44 1.84  46 1.84  47 1.85  36 1.91  37 1.93  16 2.76  16 2.77
                             3 2.79  20 2.81  17 2.82  18 2.83  19 2.83
  22  0.999  0.502  0.002-  28 1.84  31 1.85  30 1.86  29 1.86  40 1.91  41 1.91  23 2.76  23 2.77
                            19 2.80   6 2.81  18 2.82  20 2.84  17 2.85
  23  0.500  0.497  0.998-  29 1.84  30 1.84  31 1.85  28 1.86  53 2.03  52 2.03  22 2.76  22 2.77
                            17 2.82  20 2.82  19 2.84  18 2.85
  24  0.003  0.399  0.640-  17 1.84  20 1.86  16 1.99   1 2.16   4 2.18
  25  0.998  0.594  0.360-  18 1.82  19 1.83  16 1.94
  26  0.002  0.098  0.365-   9 1.84  12 1.86  14 1.93   1 2.14
  27  1.000  0.904  0.637-  10 1.84  11 1.85  14 1.90
  28  0.243  0.396  0.892-  22 1.84  23 1.86  17 2.03   5 2.11
  29  0.256  0.602  0.108-  23 1.84  22 1.86  18 2.03   6 2.15
  30  0.742  0.597  0.114-  23 1.84  22 1.86  19 1.94   7 2.19
  31  0.753  0.402  0.886-  23 1.85  22 1.85  20 1.94   4 2.01
  32  0.253  0.104  0.107-  13 1.84   8 1.85   9 2.02   5 2.10
  33  0.251  0.896  0.893-  13 1.84   8 1.85  10 2.04   6 2.12
  34  0.750  0.902  0.887-  13 1.84   8 1.86  11 1.94   3 2.20
  35  0.748  0.099  0.113-  13 1.85   8 1.85  12 1.94   2 2.01
  36  0.500  0.402  0.633-  17 1.85  20 1.87  21 1.91   1 2.20
  37  0.501  0.596  0.362-  18 1.86  19 1.86  21 1.93   7 2.01
  38  0.499  0.105  0.359-   9 1.85  12 1.86  15 2.01   2 2.15   1 2.16
  39  0.503  0.902  0.642-  10 1.83  11 1.84  15 1.99   3 2.01
  40  0.004  0.400  0.132-  18 1.84  19 1.86  22 1.91   5 2.15
  41  0.003  0.598  0.867-  17 1.86  20 1.87  22 1.91   6 2.02
  42  0.005  0.103  0.861-  10 1.84  11 1.86   8 1.97   4 2.16   5 2.16
  43  0.003  0.904  0.138-   9 1.84  12 1.85   8 1.95   6 2.04
  44  0.254  0.396  0.394-  21 1.84  16 1.86  18 2.03   1 2.09
  45  0.252  0.601  0.610-  21 1.83  16 1.85  17 1.99   3 2.17
  46  0.750  0.600  0.613-  21 1.84  16 1.85  20 1.93   3 2.04
  47  0.750  0.401  0.388-  21 1.85  16 1.85  19 1.94   2 2.02
  48  0.242  0.104  0.607-  14 1.84  15 1.86  10 2.03   1 2.10
  49  0.259  0.901  0.389-  15 1.83  14 1.86   9 1.97   7 2.14
  50  0.744  0.902  0.386-  15 1.84  14 1.86  12 1.93   7 2.03
  51  0.756  0.098  0.614-  14 1.85  15 1.85  11 1.93   4 2.02
  52  0.495  0.394  0.142-  18 1.84  19 1.86  23 2.03   2 2.10   5 2.13
  53  0.497  0.602  0.857-  17 1.83  20 1.85  23 2.03
  54  0.496  0.098  0.866-  10 1.85  11 1.87  13 1.92   5 2.14
  55  0.497  0.901  0.138-   9 1.85  12 1.86  13 1.95
 
  LATTYP: Found a triclinic cell.
 ALAT       =    11.6780659095
 B/A-ratio  =     0.4734668215
 C/A-ratio  =     0.8439813213
 COS(alpha) =     0.0002920043
 COS(beta)  =     0.2959700536
 COS(gamma) =     0.4751598247
  
  Lattice vectors:
  
 A1 = (  -3.5534870620,   5.5389899623,   9.6472557385)
 A2 = (  -0.0008545712,   5.5291740501,   0.0053939281)
 A3 = (  -9.8555633025,   0.0014522083,  -0.0998789563)


Analysis of symmetry for initial positions (statically):
=====================================================================
 Subroutine PRICEL returns:
 Original cell was already a primitive cell.
 

 Routine SETGRP: Setting up the symmetry group for a 
 triclinic supercell.


 Subroutine GETGRP returns: Found  1 space group operations
 (whereof  1 operations were pure point group operations)
 out of a pool of  2 trial point group operations.


The static configuration has the point symmetry C_1 .


Analysis of symmetry for dynamics (positions and initial velocities):
=====================================================================
 Subroutine PRICEL returns:
 Original cell was already a primitive cell.
 

 Routine SETGRP: Setting up the symmetry group for a 
 triclinic supercell.


 Subroutine GETGRP returns: Found  1 space group operations
 (whereof  1 operations were pure point group operations)
 out of a pool of  2 trial point group operations.


The dynamic configuration has the point symmetry C_1 .


Analysis of structural, dynamic, and magnetic symmetry:
=====================================================================
 Subroutine PRICEL returns:
 Original cell was already a primitive cell.
 

 Routine SETGRP: Setting up the symmetry group for a 
 triclinic supercell.


 Subroutine GETGRP returns: Found  1 space group operations
 (whereof  1 operations were pure point group operations)
 out of a pool of  2 trial point group operations.


The magnetic configuration has the point symmetry C_1 .


 Subroutine INISYM returns: Found  1 space group operations
 (whereof  1 operations are pure point group operations),
 and found     1 'primitive' translations

 
 
 KPOINTS: Automatic mesh                          

Automatic generation of k-mesh.
Space group operators:
 irot       det(A)        alpha          n_x          n_y          n_z        tau_x        tau_y        tau_z
    1     1.000000     0.000000     1.000000     0.000000     0.000000     0.000000     0.000000     0.000000
 
 Subroutine IBZKPT returns following result:
 ===========================================
 
 Found      1 irreducible k-points:
 
 Following reciprocal coordinates:
            Coordinates               Weight
  0.000000  0.000000  0.000000      1.000000
 
 Following cartesian coordinates:
            Coordinates               Weight
  0.000000  0.000000  0.000000      1.000000
 


--------------------------------------------------------------------------------------------------------




 Dimension of arrays:
   k-points           NKPTS =      1   k-points in BZ     NKDIM =      1   number of bands    NBANDS=    256
   number of dos      NEDOS =    301   number of ions     NIONS =     55
   non local maximal  LDIM  =      6   non local SUM 2l+1 LMDIM =     18
   total plane-waves  NPLWV = 230400
   max r-space proj   IRMAX =   5915   max aug-charges    IRDMAX=  14359
   dimension x,y,z NGX =    40 NGY =   80 NGZ =   72
   dimension x,y,z NGXF=    80 NGYF=  160 NGZF=  144
   support grid    NGXF=    80 NGYF=  160 NGZF=  144
   ions per type =               7  16  32
   NGX,Y,Z   is equivalent  to a cutoff of  12.03, 12.94, 12.14 a.u.
   NGXF,Y,Z  is equivalent  to a cutoff of  24.05, 25.89, 24.29 a.u.

 SYSTEM =  unknown system                          
 POSCAR =  ce16255_1                               

 Startparameter for this run:
   NWRITE =      1    write-flag & timer
   PREC   = accura    normal or accurate (medium, high low for compatibility)
   ISTART =      0    job   : 0-new  1-cont  2-samecut
   ICHARG =      2    charge: 1-file 2-atom 10-const
   ISPIN  =      2    spin polarized calculation?
   LNONCOLLINEAR =      F non collinear calculations
   LSORBIT =      F    spin-orbit coupling
   INIWAV =      1    electr: 0-lowe 1-rand  2-diag
   LASPH  =      F    aspherical Exc in radial PAW
   METAGGA=      F    non-selfconsistent MetaGGA calc.

 Electronic Relaxation 1
   ENCUT  =  500.0 eV  36.75 Ry    6.06 a.u.  10.08 18.73 17.97*2*pi/ulx,y,z
   ENINI  =  500.0     initial cutoff
   ENAUG  =  628.9 eV  augmentation charge cutoff
   NELM   =     80;   NELMIN=  2; NELMDL= -5     # of ELM steps 
   EDIFF  = 0.1E-04   stopping-criterion for ELM
   LREAL  =      T    real-space projection
   NLSPLINE    = F    spline interpolate recip. space projectors
   LCOMPAT=      F    compatible to vasp.4.4
   GGA_COMPAT  = T    GGA compatible to vasp.4.4-vasp.4.6
   LMAXPAW     = -100 max onsite density
   LMAXMIX     =    2 max onsite mixed and CHGCAR
   VOSKOWN=      1    Vosko Wilk Nusair interpolation
   ROPT   =   -0.00025  -0.00025  -0.00025
 Ionic relaxation
   EDIFFG = -.2E-01   stopping-criterion for IOM
   NSW    =     20    number of steps for IOM
   NBLOCK =      1;   KBLOCK =     20    inner block; outer block 
   IBRION =      1    ionic relax: 0-MD 1-quasi-New 2-CG
   NFREE  =      0    steps in history (QN), initial steepest desc. (CG)
   ISIF   =      3    stress and relaxation
   IWAVPR =     11    prediction:  0-non 1-charg 2-wave 3-comb
   ISYM   =      2    0-nonsym 1-usesym 2-fastsym
   LCORR  =      T    Harris-Foulkes like correction to forces

   POTIM  = 0.5000    time-step for ionic-motion
   TEIN   =    0.0    initial temperature
   TEBEG  =    0.0;   TEEND  =   0.0 temperature during run
   SMASS  =  -3.00    Nose mass-parameter (am)
   estimated Nose-frequenzy (Omega)   =  0.10E-29 period in steps =****** mass=  -0.699E-27a.u.
   SCALEE = 1.0000    scale energy and forces
   NPACO  =    256;   APACO  = 16.0  distance and # of slots for P.C.
   PSTRESS=    0.0 pullay stress

  Mass of Ions in am
   POMASS =   7.01 58.69 16.00
  Ionic Valenz
   ZVAL   =   3.00 10.00  6.00
  Atomic Wigner-Seitz radii
   RWIGS  =   1.23  1.15  0.73
  virtual crystal weights 
   VCA    =   1.00  1.00  1.00
   NELECT =     373.0000    total number of electrons
   NUPDOWN=      -1.0000    fix difference up-down

 DOS related values:
   EMIN   =  10.00;   EMAX   =-10.00  energy-range for DOS
   EFERMI =   0.00
   ISMEAR =     0;   SIGMA  =   0.05  broadening in eV -4-tet -1-fermi 0-gaus

 Electronic relaxation 2 (details)
   IALGO  =     38    algorithm
   LDIAG  =      T    sub-space diagonalisation (order eigenvalues)
   LSUBROT=      F    optimize rotation matrix (better conditioning)
   TURBO    =      0    0=normal 1=particle mesh
   IRESTART =      0    0=no restart 2=restart with 2 vectors
   NREBOOT  =      0    no. of reboots
   NMIN     =      0    reboot dimension
   EREF     =   0.00    reference energy to select bands
   IMIX   =      4    mixing-type and parameters
     AMIX     =   0.40;   BMIX     =  1.00
     AMIX_MAG =   1.60;   BMIX_MAG =  1.00
     AMIN     =   0.10
     WC   =   100.;   INIMIX=   1;  MIXPRE=   1;  MAXMIX= -45

 Intra band minimization:
   WEIMIN = 0.0010     energy-eigenvalue tresh-hold
   EBREAK =  0.98E-08  absolut break condition
   DEPER  =   0.30     relativ break condition  

   TIME   =   0.40     timestep for ELM

  volume/ion in A,a.u.               =       9.59        64.71
  Fermi-wavevector in a.u.,A,eV,Ry     =   1.458604  2.756362 28.946755  2.127526
  Thomas-Fermi vector in A             =   2.575269
 
 Write flags
   LWAVE        =      F    write WAVECAR
   LDOWNSAMPLE  =      F    k-point downsampling of WAVECAR
   LCHARG       =      T    write CHGCAR
   LVTOT        =      F    write LOCPOT, total local potential
   LVHAR        =      F    write LOCPOT, Hartree potential only
   LELF         =      F    write electronic localiz. function (ELF)
   LORBIT       =      0    0 simple, 1 ext, 2 COOP (PROOUT), +10 PAW based schemes


 Dipole corrections
   LMONO  =      F    monopole corrections only (constant potential shift)
   LDIPOL =      F    correct potential (dipole corrections)
   IDIPOL =      0    1-x, 2-y, 3-z, 4-all directions 
   EPSILON=  1.0000000 bulk dielectric constant

 Exchange correlation treatment:
   GGA     =    PS    GGA type
   LEXCH   =    14    internal setting for exchange type
   VOSKOWN=      1    Vosko Wilk Nusair interpolation
   LHFCALC =     F    Hartree Fock is set to
   LHFONE  =     F    Hartree Fock one center treatment
   AEXX    =    0.0000 exact exchange contribution

 Linear response parameters
   LEPSILON=     F    determine dielectric tensor
   LRPA    =     F    only Hartree local field effects (RPA)
   LNABLA  =     F    use nabla operator in PAW spheres
   LVEL    =     F    velocity operator in full k-point grid
   LINTERFAST=   F  fast interpolation
   KINTER  =     0    interpolate to denser k-point grid
   CSHIFT  =0.1000    complex shift for real part using Kramers Kronig
   OMEGAMAX=  -1.0    maximum frequency
   DEG_THRESHOLD= 0.2000000E-02 threshold for treating states as degnerate
   RTIME   =   -0.100 relaxation time in fs
  (WPLASMAI=    0.000 imaginary part of plasma frequency in eV, 0.658/RTIME)
   DFIELD  = 0.0000000 0.0000000 0.0000000 field for delta impulse in time
 
 Orbital magnetization related:
   ORBITALMAG=     F  switch on orbital magnetization
   LCHIMAG   =     F  perturbation theory with respect to B field
   DQ        =  0.001000  dq finite difference perturbation B field
   LLRAUG    =     F  two centre corrections for induced B field



--------------------------------------------------------------------------------------------------------


 quasi-Newton-method for relaxation of ions
 charge density and potential will be updated during run
 spin polarized calculation
 Variant of blocked Davidson
 Davidson routine will perform the subspace rotation
 perform sub-space diagonalisation
    after iterative eigenvector-optimisation
 modified Broyden-mixing scheme, WC =      100.0
 initial mixing is a Kerker type mixing with AMIX =  0.4000 and BMIX =      1.0000
 Hartree-type preconditioning will be used
 using additional bands           69
 real space projection scheme for non local part
 use partial core corrections
 calculate Harris-corrections to forces 
   (improved forces if not selfconsistent)
 use gradient corrections 
 use of overlap-Matrix (Vanderbilt PP)
 Gauss-broadening in eV      SIGMA  =   0.05


--------------------------------------------------------------------------------------------------------


  energy-cutoff  :      500.00
  volume of cell :      527.38
      direct lattice vectors                 reciprocal lattice vectors
    -0.000854571  5.529174050  0.005393928     0.000028409  0.180859013 -0.000173656
    -3.552632491  0.009815912  9.641861810    -0.001047176 -0.000100963  0.103328670
     9.855563302 -0.001452208  0.099878956     0.101088062 -0.000020712  0.037246845

  length of vectors
     5.529176747 10.275543447  9.856069497     0.180859099  0.103334026  0.107731723


 
 k-points in units of 2pi/SCALE and weight: Automatic mesh                          
   0.00000000  0.00000000  0.00000000       1.000
 
 k-points in reciprocal lattice and weights: Automatic mesh                          
   0.00000000  0.00000000  0.00000000       1.000
 
 position of ions in fractional coordinates (direct lattice) 
   0.24559090  0.24925302  0.49882067
   0.54994052  0.25102450  0.24882378
   0.51887393  0.75128206  0.72864983
   0.95508738  0.24985589  0.75121346
   0.25267120  0.25011360  0.00010265
   0.20722867  0.75028375  0.00011484
   0.51821214  0.74720314  0.27482875
   0.00029513  0.00230134  0.99986535
   0.24928377  0.00220069  0.25049865
   0.25044670  0.00008691  0.74931100
   0.75133054  0.00226057  0.75175448
   0.75066965  0.00060232  0.24998595
   0.50080167  0.99895157  0.99971163
   0.00029290  0.99580834  0.49808400
   0.50100649  0.00345159  0.50149297
   0.00074150  0.50039950  0.50011820
   0.25142720  0.49981330  0.74943707
   0.24802733  0.49797163  0.25026993
   0.75139995  0.49566258  0.24820796
   0.75059403  0.50147871  0.74985973
   0.50112494  0.50133363  0.50083071
   0.99882863  0.50154002  0.00208427
   0.49997280  0.49682779  0.99782482
   0.00320196  0.39914025  0.64023195
   0.99845007  0.59446861  0.35955685
   0.00162353  0.09804207  0.36538995
   0.99985585  0.90397432  0.63675111
   0.24313073  0.39562473  0.89183463
   0.25629250  0.60224041  0.10805251
   0.74230989  0.59673792  0.11416032
   0.75346087  0.40176789  0.88555684
   0.25313612  0.10434717  0.10726833
   0.25094636  0.89647240  0.89302886
   0.75045301  0.90197040  0.88666575
   0.74840028  0.09882728  0.11311511
   0.50040763  0.40229742  0.63345472
   0.50127992  0.59594220  0.36188744
   0.49909336  0.10492355  0.35887362
   0.50288978  0.90224869  0.64206885
   0.00379822  0.40001990  0.13242256
   0.00254959  0.59805028  0.86655983
   0.00533504  0.10260236  0.86133414
   0.00281586  0.90351856  0.13768217
   0.25358646  0.39569221  0.39413168
   0.25195512  0.60147855  0.60960927
   0.75006348  0.59969295  0.61334406
   0.75033613  0.40080400  0.38805696
   0.24244430  0.10400305  0.60675756
   0.25938369  0.90057917  0.38855142
   0.74372687  0.90234821  0.38558629
   0.75565266  0.09838157  0.61352906
   0.49486598  0.39399845  0.14176667
   0.49727296  0.60249678  0.85658083
   0.49603177  0.09834432  0.86601020
   0.49731698  0.90072171  0.13814388
 
 position of ions in cartesian coordinates  (Angst):
   4.03044444  1.35963709  2.45440956
   1.56003076  3.04281954  2.44816214
   4.51178205  2.87526064  7.31933336
   6.51516947  5.28220600  2.48925805
  -0.88776595  1.39951799  2.41293391
  -2.66452771  1.15316794  7.23526148
   0.05361114  2.87222049  7.23467423
   9.84606018  0.00020240  0.12205630
   2.46077403  1.37799118  0.04758291
   7.38435921  1.38367609  0.07702927
   7.40029083  4.15316781  0.10093318
   2.46097103  4.15022603  0.03482488
   6.30338548  2.77737343  9.73430444
   1.37115708  0.01067094  9.65119609
   4.92980534  2.76945769  0.08607074
   3.15121042  0.00828548  4.87473811
   5.61025665  1.39400253  4.89533994
   0.69722899  1.37591088  4.82770818
   0.68468015  4.15912604  4.80795385
   5.60807904  4.15399855  4.91413228
   3.15448638  2.77500075  4.88651506
  -1.76209929  5.52761739  4.84137535
   8.06865187  2.76786440  4.89270341
   4.89184515  0.02069237  3.91241810
   1.43085355  5.52591732  5.77308192
   3.25281495  0.00940853  0.98181161
   3.06319788  5.53632566  8.78498666
   7.38381561  1.34690041  3.90494592
  -1.07483952  1.42284046  5.81889341
  -0.99551062  4.11005232  5.76907074
   7.29968395  4.16867400  3.96630308
   0.68626635  1.40050215  1.01818024
   5.61625103  1.39502893  8.73421137
   5.53357976  4.15695135  8.78928109
   0.76307656  4.13884122  0.96821361
   4.81341057  2.76986989  3.94486409
   1.44901257  2.77698811  5.78484115
   3.16372036  2.76008282  1.05019437
   3.12216243  2.78848910  8.76619891
  -0.11602802  0.02473527  3.87018331
   6.41578023  0.01870911  5.85288300
   8.12442010  0.02925466  1.07533571
  -1.85293646  0.02423830  8.72536784
   2.47842401  1.40543539  3.85594290
   3.87099520  1.39812249  5.86161923
   3.91372157  4.15222736  5.84746251
   2.39996941  4.15210978  3.90730276
   5.61024574  1.34065648  1.06469307
   0.62974463  1.44245332  8.72346711
   0.59382295  4.12049273  8.74284031
   5.69651517  4.17820981  1.01393608
  -0.00296420  2.73986171  3.81570739
   6.30121200  2.75417887  5.89742735
   8.18521323  2.74235370  1.03739410
  -1.83887245  2.75839293  8.70111442
 


--------------------------------------------------------------------------------------------------------


 use serial FFT for orbitals x direction half grid
 k-point  1 :   0.0000 0.0000 0.0000  plane waves:    6675

 maximum and minimum number of plane-waves per node :      6675     6675

 maximum number of plane-waves:      6675
 maximum index in each direction: 
   IXMAX=   10   IYMAX=   18   IZMAX=   17
   IXMIN=    0   IYMIN=  -18   IZMIN=  -17

 The following grids will avoid any aliasing or wrap around errors in the Hartre
 e energy
  - symmetry arguments have not been applied
  - exchange correlation energies might require even more grid points
  - we recommend to set PREC=Normal or Accurate and rely on VASP defaults
 WARNING: aliasing errors must be expected set NGX to    42 to avoid them
 NGY is ok and might be reduce to    80
 NGZ is ok and might be reduce to    70

 serial   3D FFT for wavefunctions
 parallel 3D FFT for charge:
    minimum data exchange during FFTs selected (reduces bandwidth)


 total amount of memory used by VASP MPI-rank0    88532. kBytes
=======================================================================

   base      :      30000. kBytes
   nonlr-proj:      20431. kBytes
   fftplans  :       4884. kBytes
   grid      :      28787. kBytes
   one-center:        855. kBytes
   wavefun   :       3575. kBytes
 
     INWAV:  cpu time    0.0000: real time    0.0000
 Broyden mixing: mesh for mixing (old mesh)
   NGX = 21   NGY = 37   NGZ = 35
  (NGX  = 80   NGY  =160   NGZ  =144)
  gives a total of  27195 points

 initial charge density was supplied:
 charge density of overlapping atoms calculated
 number of electron     373.0000000 magnetization      40.0000000
 keeping initial charge density in first step


--------------------------------------------------------------------------------------------------------


 Maximum index for non-local projection operator         5721
 Maximum index for augmentation-charges          995 (set IRDMAX)


--------------------------------------------------------------------------------------------------------


 First call to EWALD:  gamma=   0.219
 Maximum number of real-space cells 4x 2x 2
 Maximum number of reciprocal cells 2x 3x 3

    FEWALD:  cpu time    0.0030: real time    0.0030


--------------------------------------- Iteration      1(   1)  ---------------------------------------


    POTLOK:  cpu time    0.1827: real time    0.2310
    SETDIJ:  cpu time    0.0310: real time    0.0311
     EDDAV:  cpu time    1.7494: real time    1.7717
    --------------------------------------------
      LOOP:  cpu time    1.9636: real time    2.0343

 eigenvalue-minimisations  :  1024
 total energy-change (2. order) : 0.6454051E+04  (-0.1635432E+05)
 number of electron     373.0000000 magnetization      40.0000000
 augmentation part      373.0000000 magnetization      40.0000000

 Free energy of the ion-electron system (eV)
  ---------------------------------------------------
  alpha Z        PSCENC =      1139.27336025
  Ewald energy   TEWEN  =    -21188.99906062
  -Hartree energ DENC   =    -11907.59020957
  -exchange      EXHF   =         0.00000000
  -V(xc)+E(xc)   XCENC  =      1516.23630384
  PAW double counting   =     27022.10826369   -28244.36586763
  entropy T*S    EENTRO =        -0.02341415
  eigenvalues    EBANDS =      5696.61772148
  atomic energy  EATOM  =     32420.79373756
  Solvation  Ediel_sol  =         0.00000000
  ---------------------------------------------------
  free energy    TOTEN  =      6454.05083486 eV

  energy without entropy =     6454.07424900  energy(sigma->0) =     6454.06254193


--------------------------------------------------------------------------------------------------------




--------------------------------------- Iteration      1(   2)  ---------------------------------------


     EDDAV:  cpu time    1.6240: real time    1.6279
    --------------------------------------------
      LOOP:  cpu time    1.6237: real time    1.6276

 eigenvalue-minimisations  :  1072
 total energy-change (2. order) :-0.5241345E+04  (-0.4695561E+04)
 number of electron     373.0000000 magnetization      40.0000000
 augmentation part      373.0000000 magnetization      40.0000000

 Free energy of the ion-electron system (eV)
  ---------------------------------------------------
  alpha Z        PSCENC =      1139.27336025
  Ewald energy   TEWEN  =    -21188.99906062
  -Hartree energ DENC   =    -11907.59020957
  -exchange      EXHF   =         0.00000000
  -V(xc)+E(xc)   XCENC  =      1516.23630384
  PAW double counting   =     27022.10826369   -28244.36586763
  entropy T*S    EENTRO =        -0.00295007
  eigenvalues    EBANDS =       455.25202116
  atomic energy  EATOM  =     32420.79373756
  Solvation  Ediel_sol  =         0.00000000
  ---------------------------------------------------
  free energy    TOTEN  =      1212.70559861 eV

  energy without entropy =     1212.70854868  energy(sigma->0) =     1212.70707364


--------------------------------------------------------------------------------------------------------




--------------------------------------- Iteration      1(   3)  ---------------------------------------


     EDDAV:  cpu time    1.6460: real time    1.6499
    --------------------------------------------
      LOOP:  cpu time    1.6461: real time    1.6500

 eigenvalue-minimisations  :  1168
 total energy-change (2. order) :-0.1436950E+04  (-0.1183704E+04)
 number of electron     373.0000000 magnetization      40.0000000
 augmentation part      373.0000000 magnetization      40.0000000

 Free energy of the ion-electron system (eV)
  ---------------------------------------------------
  alpha Z        PSCENC =      1139.27336025
  Ewald energy   TEWEN  =    -21188.99906062
  -Hartree energ DENC   =    -11907.59020957
  -exchange      EXHF   =         0.00000000
  -V(xc)+E(xc)   XCENC  =      1516.23630384
  PAW double counting   =     27022.10826369   -28244.36586763
  entropy T*S    EENTRO =        -0.09423832
  eigenvalues    EBANDS =      -981.60631374
  atomic energy  EATOM  =     32420.79373756
  Solvation  Ediel_sol  =         0.00000000
  ---------------------------------------------------
  free energy    TOTEN  =      -224.24402454 eV

  energy without entropy =     -224.14978622  energy(sigma->0) =     -224.19690538


--------------------------------------------------------------------------------------------------------




--------------------------------------- Iteration      1(   4)  ---------------------------------------


     EDDAV:  cpu time    1.9793: real time    1.9840
    --------------------------------------------
      LOOP:  cpu time    1.9793: real time    1.9840

 eigenvalue-minimisations  :  1232
 total energy-change (2. order) :-0.2142123E+03  (-0.2082895E+03)
 number of electron     373.0000000 magnetization      40.0000000
 augmentation part      373.0000000 magnetization      40.0000000

 Free energy of the ion-electron system (eV)
  ---------------------------------------------------
  alpha Z        PSCENC =      1139.27336025
  Ewald energy   TEWEN  =    -21188.99906062
  -Hartree energ DENC   =    -11907.59020957
  -exchange      EXHF   =         0.00000000
  -V(xc)+E(xc)   XCENC  =      1516.23630384
  PAW double counting   =     27022.10826369   -28244.36586763
  entropy T*S    EENTRO =        -0.20965968
  eigenvalues    EBANDS =     -1195.70318341
  atomic energy  EATOM  =     32420.79373756
  Solvation  Ediel_sol  =         0.00000000
  ---------------------------------------------------
  free energy    TOTEN  =      -438.45631557 eV

  energy without entropy =     -438.24665589  energy(sigma->0) =     -438.35148573


--------------------------------------------------------------------------------------------------------




--------------------------------------- Iteration      1(   5)  ---------------------------------------


     EDDAV:  cpu time    2.4407: real time    2.4465
    CHARGE:  cpu time    0.1019: real time    0.1021
    MIXING:  cpu time    0.0035: real time    0.0102
    --------------------------------------------
      LOOP:  cpu time    2.5458: real time    2.5586

 eigenvalue-minimisations  :  1568
 total energy-change (2. order) :-0.9239346E+01  (-0.9149753E+01)
 number of electron     373.0000102 magnetization      37.7364614
 augmentation part      110.6658955 magnetization      29.5405807

 Broyden mixing:
  rms(total) = 0.11543E+02    rms(broyden)= 0.11541E+02
  rms(prec ) = 0.13999E+02
  weight for this iteration     100.00

 Free energy of the ion-electron system (eV)
  ---------------------------------------------------
  alpha Z        PSCENC =      1139.27336025
  Ewald energy   TEWEN  =    -21188.99906062
  -Hartree energ DENC   =    -11907.59020957
  -exchange      EXHF   =         0.00000000
  -V(xc)+E(xc)   XCENC  =      1516.23630384
  PAW double counting   =     27022.10826369   -28244.36586763
  entropy T*S    EENTRO =        -0.21048238
  eigenvalues    EBANDS =     -1204.94170642
  atomic energy  EATOM  =     32420.79373756
  Solvation  Ediel_sol  =         0.00000000
  ---------------------------------------------------
  free energy    TOTEN  =      -447.69566128 eV

  energy without entropy =     -447.48517890  energy(sigma->0) =     -447.59042009


--------------------------------------------------------------------------------------------------------




--------------------------------------- Iteration      1(   6)  ---------------------------------------


    POTLOK:  cpu time    0.1267: real time    0.1270
    SETDIJ:  cpu time    0.0203: real time    0.0203
     EDDAV:  cpu time    2.2632: real time    2.2686
    CHARGE:  cpu time    0.0990: real time    0.0992
    MIXING:  cpu time    0.0033: real time    0.0033
    --------------------------------------------
      LOOP:  cpu time    2.5125: real time    2.5185

 eigenvalue-minimisations  :  1552
 total energy-change (2. order) :-0.5276492E+02  (-0.1013958E+03)
 number of electron     373.0000146 magnetization      33.0540324
 augmentation part      141.3140138 magnetization      30.3438497

 Broyden mixing:
  rms(total) = 0.19889E+02    rms(broyden)= 0.19888E+02
  rms(prec ) = 0.21981E+02
  weight for this iteration     100.00

 eigenvalues of (default mixing * dielectric matrix)
  average eigenvalue GAMMA=   0.2081
  0.2081

 Free energy of the ion-electron system (eV)
  ---------------------------------------------------
  alpha Z        PSCENC =      1139.27336025
  Ewald energy   TEWEN  =    -21188.99906062
  -Hartree energ DENC   =    -11381.64454865
  -exchange      EXHF   =         0.00000000
  -V(xc)+E(xc)   XCENC  =      1519.35367725
  PAW double counting   =     29924.49779982   -30974.60656658
  entropy T*S    EENTRO =        -0.06399895
  eigenvalues    EBANDS =     -1959.06497680
  atomic energy  EATOM  =     32420.79373756
  Solvation  Ediel_sol  =         0.00000000
  ---------------------------------------------------
  free energy    TOTEN  =      -500.46057671 eV

  energy without entropy =     -500.39657776  energy(sigma->0) =     -500.42857724


--------------------------------------------------------------------------------------------------------




--------------------------------------- Iteration      1(   7)  ---------------------------------------


    POTLOK:  cpu time    0.1243: real time    0.1246
    SETDIJ:  cpu time    0.0200: real time    0.0201
     EDDAV:  cpu time    2.1274: real time    2.1325
    CHARGE:  cpu time    0.0983: real time    0.0985
    MIXING:  cpu time    0.0033: real time    0.0033
    --------------------------------------------
      LOOP:  cpu time    2.3733: real time    2.3789

 eigenvalue-minimisations  :  1408
 total energy-change (2. order) : 0.1346607E+03  (-0.3322603E+02)
 number of electron     373.0000141 magnetization      24.6723636
 augmentation part      131.3342057 magnetization      23.8025558

 Broyden mixing:
  rms(total) = 0.71293E+01    rms(broyden)= 0.71284E+01
  rms(prec ) = 0.84804E+01
  weight for this iteration     100.00

 eigenvalues of (default mixing * dielectric matrix)
  average eigenvalue GAMMA=   0.5336
  0.5336  0.5336

 Free energy of the ion-electron system (eV)
  ---------------------------------------------------
  alpha Z        PSCENC =      1139.27336025
  Ewald energy   TEWEN  =    -21188.99906062
  -Hartree energ DENC   =    -11573.41696299
  -exchange      EXHF   =         0.00000000
  -V(xc)+E(xc)   XCENC  =      1513.45852062
  PAW double counting   =     31122.99332010   -32287.82753556
  entropy T*S    EENTRO =        -0.02918549
  eigenvalues    EBANDS =     -1512.04611593
  atomic energy  EATOM  =     32420.79373756
  Solvation  Ediel_sol  =         0.00000000
  ---------------------------------------------------
  free energy    TOTEN  =      -365.79992206 eV

  energy without entropy =     -365.77073656  energy(sigma->0) =     -365.78532931


--------------------------------------------------------------------------------------------------------




--------------------------------------- Iteration      1(   8)  ---------------------------------------


    POTLOK:  cpu time    0.1273: real time    0.1276
    SETDIJ:  cpu time    0.0202: real time    0.0202
     EDDAV:  cpu time    2.1667: real time    2.1718
    CHARGE:  cpu time    0.1001: real time    0.1003
    MIXING:  cpu time    0.0036: real time    0.0036
    --------------------------------------------
      LOOP:  cpu time    2.4178: real time    2.4235

 eigenvalue-minimisations  :  1520
 total energy-change (2. order) : 0.5431595E+00  (-0.1493850E+02)
 number of electron     373.0000124 magnetization      21.8617257
 augmentation part      120.5591794 magnetization      18.3471143

 Broyden mixing:
  rms(total) = 0.97778E+01    rms(broyden)= 0.97768E+01
  rms(prec ) = 0.14272E+02
  weight for this iteration     100.00

 eigenvalues of (default mixing * dielectric matrix)
  average eigenvalue GAMMA=   0.4762
  0.6079  0.6079  0.2128

 Free energy of the ion-electron system (eV)
  ---------------------------------------------------
  alpha Z        PSCENC =      1139.27336025
  Ewald energy   TEWEN  =    -21188.99906062
  -Hartree energ DENC   =    -11660.67312146
  -exchange      EXHF   =         0.00000000
  -V(xc)+E(xc)   XCENC  =      1507.56790098
  PAW double counting   =     32363.15967942   -33608.10436003
  entropy T*S    EENTRO =        -0.02744352
  eigenvalues    EBANDS =     -1338.24745518
  atomic energy  EATOM  =     32420.79373756
  Solvation  Ediel_sol  =         0.00000000
  ---------------------------------------------------
  free energy    TOTEN  =      -365.25676259 eV

  energy without entropy =     -365.22931907  energy(sigma->0) =     -365.24304083


--------------------------------------------------------------------------------------------------------




--------------------------------------- Iteration      1(   9)  ---------------------------------------


    POTLOK:  cpu time    0.1270: real time    0.1273
    SETDIJ:  cpu time    0.0203: real time    0.0204
     EDDAV:  cpu time    1.9227: real time    1.9273
    CHARGE:  cpu time    0.0951: real time    0.0953
    MIXING:  cpu time    0.0037: real time    0.0037
    --------------------------------------------
      LOOP:  cpu time    2.1688: real time    2.1740

 eigenvalue-minimisations  :  1328
 total energy-change (2. order) :-0.3242385E+01  (-0.2547406E+02)
 number of electron     373.0000139 magnetization      18.4191377
 augmentation part      120.5447145 magnetization      16.3704366

 Broyden mixing:
  rms(total) = 0.88136E+01    rms(broyden)= 0.88130E+01
  rms(prec ) = 0.11585E+02
  weight for this iteration     100.00

 eigenvalues of (default mixing * dielectric matrix)
  average eigenvalue GAMMA=   0.4189
  0.7009  0.5681  0.3107  0.0959

 Free energy of the ion-electron system (eV)
  ---------------------------------------------------
  alpha Z        PSCENC =      1139.27336025
  Ewald energy   TEWEN  =    -21188.99906062
  -Hartree energ DENC   =    -11631.47262557
  -exchange      EXHF   =         0.00000000
  -V(xc)+E(xc)   XCENC  =      1505.84193696
  PAW double counting   =     32871.23476946   -34121.46011851
  entropy T*S    EENTRO =        -0.04377549
  eigenvalues    EBANDS =     -1363.66737199
  atomic energy  EATOM  =     32420.79373756
  Solvation  Ediel_sol  =         0.00000000
  ---------------------------------------------------
  free energy    TOTEN  =      -368.49914794 eV

  energy without entropy =     -368.45537246  energy(sigma->0) =     -368.47726020


--------------------------------------------------------------------------------------------------------




--------------------------------------- Iteration      1(  10)  ---------------------------------------


    POTLOK:  cpu time    0.1235: real time    0.1238
    SETDIJ:  cpu time    0.0204: real time    0.0205
     EDDAV:  cpu time    2.0931: real time    2.0980
    CHARGE:  cpu time    0.0875: real time    0.0877
    MIXING:  cpu time    0.0036: real time    0.0036
    --------------------------------------------
      LOOP:  cpu time    2.3281: real time    2.3336

 eigenvalue-minimisations  :  1408
 total energy-change (2. order) : 0.1074868E+02  (-0.1626341E+02)
 number of electron     373.0000132 magnetization      16.3305476
 augmentation part      121.1534867 magnetization      13.4190704

 Broyden mixing:
  rms(total) = 0.69709E+01    rms(broyden)= 0.69702E+01
  rms(prec ) = 0.92160E+01
  weight for this iteration     100.00

 eigenvalues of (default mixing * dielectric matrix)
  average eigenvalue GAMMA=   0.4052
  0.9372  0.4561  0.3385  0.1472  0.1472

 Free energy of the ion-electron system (eV)
  ---------------------------------------------------
  alpha Z        PSCENC =      1139.27336025
  Ewald energy   TEWEN  =    -21188.99906062
  -Hartree energ DENC   =    -11613.68485221
  -exchange      EXHF   =         0.00000000
  -V(xc)+E(xc)   XCENC  =      1504.76635190
  PAW double counting   =     33542.81368709   -34805.49541958
  entropy T*S    EENTRO =        -0.06483211
  eigenvalues    EBANDS =     -1357.15344039
  atomic energy  EATOM  =     32420.79373756
  Solvation  Ediel_sol  =         0.00000000
  ---------------------------------------------------
  free energy    TOTEN  =      -357.75046812 eV

  energy without entropy =     -357.68563601  energy(sigma->0) =     -357.71805206


--------------------------------------------------------------------------------------------------------




--------------------------------------- Iteration      1(  11)  ---------------------------------------


    POTLOK:  cpu time    0.1180: real time    0.1183
    SETDIJ:  cpu time    0.0202: real time    0.0203
     EDDAV:  cpu time    2.0238: real time    2.0287
    CHARGE:  cpu time    0.0984: real time    0.0987
    MIXING:  cpu time    0.0038: real time    0.0038
    --------------------------------------------
      LOOP:  cpu time    2.2643: real time    2.2697

 eigenvalue-minimisations  :  1360
 total energy-change (2. order) : 0.1135887E+02  (-0.1125384E+02)
 number of electron     373.0000138 magnetization      13.5624963
 augmentation part      122.6472482 magnetization      10.9967956

 Broyden mixing:
  rms(total) = 0.37132E+01    rms(broyden)= 0.37122E+01
  rms(prec ) = 0.48327E+01
  weight for this iteration     100.00

 eigenvalues of (default mixing * dielectric matrix)
  average eigenvalue GAMMA=   0.4645
  1.2244  0.5037  0.3954  0.3954  0.1634  0.1044

 Free energy of the ion-electron system (eV)
  ---------------------------------------------------
  alpha Z        PSCENC =      1139.27336025
  Ewald energy   TEWEN  =    -21188.99906062
  -Hartree energ DENC   =    -11599.47059098
  -exchange      EXHF   =         0.00000000
  -V(xc)+E(xc)   XCENC  =      1504.12900904
  PAW double counting   =     33949.56961822   -35215.75162125
  entropy T*S    EENTRO =        -0.03836990
  eigenvalues    EBANDS =     -1355.89768187
  atomic energy  EATOM  =     32420.79373756
  Solvation  Ediel_sol  =         0.00000000
  ---------------------------------------------------
  free energy    TOTEN  =      -346.39159955 eV

  energy without entropy =     -346.35322965  energy(sigma->0) =     -346.37241460


--------------------------------------------------------------------------------------------------------




--------------------------------------- Iteration      1(  12)  ---------------------------------------


    POTLOK:  cpu time    0.1237: real time    0.1240
    SETDIJ:  cpu time    0.0197: real time    0.0198
     EDDAV:  cpu time    1.9421: real time    1.9467
    CHARGE:  cpu time    0.0996: real time    0.0999
    MIXING:  cpu time    0.0040: real time    0.0041
    --------------------------------------------
      LOOP:  cpu time    2.1891: real time    2.1944

 eigenvalue-minimisations  :  1296
 total energy-change (2. order) :-0.1376679E+01  (-0.3457205E+01)
 number of electron     373.0000133 magnetization      11.3555464
 augmentation part      121.9680438 magnetization       9.1373892

 Broyden mixing:
  rms(total) = 0.57844E+01    rms(broyden)= 0.57835E+01
  rms(prec ) = 0.79555E+01
  weight for this iteration     100.00

 eigenvalues of (default mixing * dielectric matrix)
  average eigenvalue GAMMA=   0.4604
  1.4364  0.4626  0.4197  0.4197  0.2414  0.1262  0.1169

 Free energy of the ion-electron system (eV)
  ---------------------------------------------------
  alpha Z        PSCENC =      1139.27336025
  Ewald energy   TEWEN  =    -21188.99906062
  -Hartree energ DENC   =    -11609.18066790
  -exchange      EXHF   =         0.00000000
  -V(xc)+E(xc)   XCENC  =      1503.99464488
  PAW double counting   =     34434.14160687   -35708.02992465
  entropy T*S    EENTRO =        -0.03435313
  eigenvalues    EBANDS =     -1339.72762213
  atomic energy  EATOM  =     32420.79373756
  Solvation  Ediel_sol  =         0.00000000
  ---------------------------------------------------
  free energy    TOTEN  =      -347.76827887 eV

  energy without entropy =     -347.73392573  energy(sigma->0) =     -347.75110230


--------------------------------------------------------------------------------------------------------




--------------------------------------- Iteration      1(  13)  ---------------------------------------


    POTLOK:  cpu time    0.1274: real time    0.1277
    SETDIJ:  cpu time    0.0201: real time    0.0202
     EDDAV:  cpu time    2.0766: real time    2.0816
    CHARGE:  cpu time    0.0960: real time    0.0963
    MIXING:  cpu time    0.0041: real time    0.0041
    --------------------------------------------
      LOOP:  cpu time    2.3243: real time    2.3298

 eigenvalue-minimisations  :  1424
 total energy-change (2. order) : 0.5155824E+01  (-0.8419697E+01)
 number of electron     373.0000134 magnetization       9.7642698
 augmentation part      122.7426297 magnetization       8.2459026

 Broyden mixing:
  rms(total) = 0.32138E+01    rms(broyden)= 0.32130E+01
  rms(prec ) = 0.40321E+01
  weight for this iteration     100.00

 eigenvalues of (default mixing * dielectric matrix)
  average eigenvalue GAMMA=   0.4495
  1.5136  0.4553  0.4553  0.3927  0.3927  0.1710  0.1076  0.1076

 Free energy of the ion-electron system (eV)
  ---------------------------------------------------
  alpha Z        PSCENC =      1139.27336025
  Ewald energy   TEWEN  =    -21188.99906062
  -Hartree energ DENC   =    -11604.37713757
  -exchange      EXHF   =         0.00000000
  -V(xc)+E(xc)   XCENC  =      1503.82809513
  PAW double counting   =     34822.11136645   -36098.59222474
  entropy T*S    EENTRO =        -0.04791483
  eigenvalues    EBANDS =     -1336.60267690
  atomic energy  EATOM  =     32420.79373756
  Solvation  Ediel_sol  =         0.00000000
  ---------------------------------------------------
  free energy    TOTEN  =      -342.61245528 eV

  energy without entropy =     -342.56454045  energy(sigma->0) =     -342.58849786


--------------------------------------------------------------------------------------------------------




--------------------------------------- Iteration      1(  14)  ---------------------------------------


    POTLOK:  cpu time    0.1271: real time    0.1274
    SETDIJ:  cpu time    0.0202: real time    0.0202
     EDDAV:  cpu time    2.0252: real time    2.0300
    CHARGE:  cpu time    0.1008: real time    0.1010
    MIXING:  cpu time    0.0044: real time    0.0044
    --------------------------------------------
      LOOP:  cpu time    2.2777: real time    2.2831

 eigenvalue-minimisations  :  1392
 total energy-change (2. order) : 0.1447004E+01  (-0.1513010E+01)
 number of electron     373.0000137 magnetization       7.8056091
 augmentation part      123.3455300 magnetization       6.5530779

 Broyden mixing:
  rms(total) = 0.20729E+01    rms(broyden)= 0.20724E+01
  rms(prec ) = 0.26183E+01
  weight for this iteration     100.00

 eigenvalues of (default mixing * dielectric matrix)
  average eigenvalue GAMMA=   0.4489
  1.5720  0.3935  0.3935  0.4375  0.4375  0.4232  0.1602  0.1113  0.1113

 Free energy of the ion-electron system (eV)
  ---------------------------------------------------
  alpha Z        PSCENC =      1139.27336025
  Ewald energy   TEWEN  =    -21188.99906062
  -Hartree energ DENC   =    -11599.91155693
  -exchange      EXHF   =         0.00000000
  -V(xc)+E(xc)   XCENC  =      1503.68481405
  PAW double counting   =     35074.10954200   -36352.80521729
  entropy T*S    EENTRO =        -0.01777457
  eigenvalues    EBANDS =     -1337.29329558
  atomic energy  EATOM  =     32420.79373756
  Solvation  Ediel_sol  =         0.00000000
  ---------------------------------------------------
  free energy    TOTEN  =      -341.16545114 eV

  energy without entropy =     -341.14767656  energy(sigma->0) =     -341.15656385


--------------------------------------------------------------------------------------------------------




--------------------------------------- Iteration      1(  15)  ---------------------------------------


    POTLOK:  cpu time    0.1258: real time    0.1261
    SETDIJ:  cpu time    0.0202: real time    0.0202
     EDDAV:  cpu time    1.9028: real time    1.9073
    CHARGE:  cpu time    0.0995: real time    0.0998
    MIXING:  cpu time    0.0046: real time    0.0046
    --------------------------------------------
      LOOP:  cpu time    2.1529: real time    2.1580

 eigenvalue-minimisations  :  1264
 total energy-change (2. order) : 0.2440619E-01  (-0.7180107E+00)
 number of electron     373.0000137 magnetization       6.7837519
 augmentation part      123.4679160 magnetization       5.4866672

 Broyden mixing:
  rms(total) = 0.17736E+01    rms(broyden)= 0.17732E+01
  rms(prec ) = 0.23097E+01
  weight for this iteration     100.00

 eigenvalues of (default mixing * dielectric matrix)
  average eigenvalue GAMMA=   0.4677
  1.6221  0.5742  0.5742  0.5059  0.4096  0.4096  0.1991  0.1602  0.1111  0.1111

 Free energy of the ion-electron system (eV)
  ---------------------------------------------------
  alpha Z        PSCENC =      1139.27336025
  Ewald energy   TEWEN  =    -21188.99906062
  -Hartree energ DENC   =    -11600.53564429
  -exchange      EXHF   =         0.00000000
  -V(xc)+E(xc)   XCENC  =      1503.59651351
  PAW double counting   =     35351.57315903   -36632.42808573
  entropy T*S    EENTRO =        -0.02671060
  eigenvalues    EBANDS =     -1334.38831405
  atomic energy  EATOM  =     32420.79373756
  Solvation  Ediel_sol  =         0.00000000
  ---------------------------------------------------
  free energy    TOTEN  =      -341.14104495 eV

  energy without entropy =     -341.11433435  energy(sigma->0) =     -341.12768965


--------------------------------------------------------------------------------------------------------




--------------------------------------- Iteration      1(  16)  ---------------------------------------


    POTLOK:  cpu time    0.1259: real time    0.1262
    SETDIJ:  cpu time    0.0202: real time    0.0203
     EDDAV:  cpu time    1.8694: real time    1.8738
    CHARGE:  cpu time    0.0941: real time    0.0943
    MIXING:  cpu time    0.0049: real time    0.0049
    --------------------------------------------
      LOOP:  cpu time    2.1146: real time    2.1196

 eigenvalue-minimisations  :  1296
 total energy-change (2. order) : 0.3829287E+00  (-0.7918338E+00)
 number of electron     373.0000137 magnetization       6.1124903
 augmentation part      123.5646506 magnetization       4.8368178

 Broyden mixing:
  rms(total) = 0.15221E+01    rms(broyden)= 0.15215E+01
  rms(prec ) = 0.19196E+01
  weight for this iteration     100.00

 eigenvalues of (default mixing * dielectric matrix)
  average eigenvalue GAMMA=   0.4756
  1.6566  0.7244  0.7244  0.4422  0.4422  0.3478  0.3478  0.1702  0.1543  0.1108
  0.1108

 Free energy of the ion-electron system (eV)
  ---------------------------------------------------
  alpha Z        PSCENC =      1139.27336025
  Ewald energy   TEWEN  =    -21188.99906062
  -Hartree energ DENC   =    -11600.20987635
  -exchange      EXHF   =         0.00000000
  -V(xc)+E(xc)   XCENC  =      1503.50301572
  PAW double counting   =     35478.50966907   -36759.59272910
  entropy T*S    EENTRO =        -0.02901036
  eigenvalues    EBANDS =     -1334.00722246
  atomic energy  EATOM  =     32420.79373756
  Solvation  Ediel_sol  =         0.00000000
  ---------------------------------------------------
  free energy    TOTEN  =      -340.75811630 eV

  energy without entropy =     -340.72910594  energy(sigma->0) =     -340.74361112


--------------------------------------------------------------------------------------------------------




--------------------------------------- Iteration      1(  17)  ---------------------------------------


    POTLOK:  cpu time    0.1236: real time    0.1239
    SETDIJ:  cpu time    0.0200: real time    0.0200
     EDDAV:  cpu time    1.8647: real time    1.8692
    CHARGE:  cpu time    0.0936: real time    0.0938
    MIXING:  cpu time    0.0047: real time    0.0047
    --------------------------------------------
      LOOP:  cpu time    2.1066: real time    2.1116

 eigenvalue-minimisations  :  1360
 total energy-change (2. order) : 0.1850144E+00  (-0.6098041E+00)
 number of electron     373.0000138 magnetization       5.3376071
 augmentation part      123.4774749 magnetization       4.3098193

 Broyden mixing:
  rms(total) = 0.14588E+01    rms(broyden)= 0.14582E+01
  rms(prec ) = 0.17929E+01
  weight for this iteration     100.00

 eigenvalues of (default mixing * dielectric matrix)
  average eigenvalue GAMMA=   0.4769
  1.6902  0.8148  0.8148  0.4848  0.4848  0.3667  0.3667  0.1832  0.1112  0.1112
  0.1472  0.1472

 Free energy of the ion-electron system (eV)
  ---------------------------------------------------
  alpha Z        PSCENC =      1139.27336025
  Ewald energy   TEWEN  =    -21188.99906062
  -Hartree energ DENC   =    -11602.51450367
  -exchange      EXHF   =         0.00000000
  -V(xc)+E(xc)   XCENC  =      1503.50978626
  PAW double counting   =     35564.31637436   -36846.17699185
  entropy T*S    EENTRO =        -0.03935860
  eigenvalues    EBANDS =     -1330.73644557
  atomic energy  EATOM  =     32420.79373756
  Solvation  Ediel_sol  =         0.00000000
  ---------------------------------------------------
  free energy    TOTEN  =      -340.57310187 eV

  energy without entropy =     -340.53374327  energy(sigma->0) =     -340.55342257


--------------------------------------------------------------------------------------------------------




--------------------------------------- Iteration      1(  18)  ---------------------------------------


    POTLOK:  cpu time    0.1186: real time    0.1189
    SETDIJ:  cpu time    0.0198: real time    0.0199
     EDDAV:  cpu time    2.0516: real time    2.0565
    CHARGE:  cpu time    0.0966: real time    0.0968
    MIXING:  cpu time    0.0053: real time    0.0053
    --------------------------------------------
      LOOP:  cpu time    2.2919: real time    2.2973

 eigenvalue-minimisations  :  1424
 total energy-change (2. order) : 0.1815433E+00  (-0.5804901E+00)
 number of electron     373.0000137 magnetization       4.9913286
 augmentation part      123.4517898 magnetization       3.8392226

 Broyden mixing:
  rms(total) = 0.11554E+01    rms(broyden)= 0.11549E+01
  rms(prec ) = 0.13926E+01
  weight for this iteration     100.00

 eigenvalues of (default mixing * dielectric matrix)
  average eigenvalue GAMMA=   0.4658
  1.6986  0.8617  0.8617  0.4693  0.4693  0.3692  0.3692  0.2692  0.1881  0.1645
  0.1104  0.1104  0.1138

 Free energy of the ion-electron system (eV)
  ---------------------------------------------------
  alpha Z        PSCENC =      1139.27336025
  Ewald energy   TEWEN  =    -21188.99906062
  -Hartree energ DENC   =    -11604.65565317
  -exchange      EXHF   =         0.00000000
  -V(xc)+E(xc)   XCENC  =      1503.52507443
  PAW double counting   =     35659.63971470   -36942.31511269
  entropy T*S    EENTRO =        -0.00610536
  eigenvalues    EBANDS =     -1327.64751367
  atomic energy  EATOM  =     32420.79373756
  Solvation  Ediel_sol  =         0.00000000
  ---------------------------------------------------
  free energy    TOTEN  =      -340.39155856 eV

  energy without entropy =     -340.38545319  energy(sigma->0) =     -340.38850587


--------------------------------------------------------------------------------------------------------




--------------------------------------- Iteration      1(  19)  ---------------------------------------


    POTLOK:  cpu time    0.1258: real time    0.1261
    SETDIJ:  cpu time    0.0201: real time    0.0201
     EDDAV:  cpu time    1.9143: real time    1.9189
    CHARGE:  cpu time    0.0990: real time    0.0992
    MIXING:  cpu time    0.0057: real time    0.0057
    --------------------------------------------
      LOOP:  cpu time    2.1649: real time    2.1700

 eigenvalue-minimisations  :  1312
 total energy-change (2. order) : 0.1875180E+00  (-0.2131595E+00)
 number of electron     373.0000138 magnetization       4.7965371
 augmentation part      123.5128856 magnetization       3.6808264

 Broyden mixing:
  rms(total) = 0.88453E+00    rms(broyden)= 0.88425E+00
  rms(prec ) = 0.10298E+01
  weight for this iteration     100.00

 eigenvalues of (default mixing * dielectric matrix)
  average eigenvalue GAMMA=   0.4640
  1.6707  0.9035  0.9035  0.4562  0.4562  0.4364  0.4364  0.3911  0.2021  0.1681
  0.1443  0.1108  0.1108  0.1056

 Free energy of the ion-electron system (eV)
  ---------------------------------------------------
  alpha Z        PSCENC =      1139.27336025
  Ewald energy   TEWEN  =    -21188.99906062
  -Hartree energ DENC   =    -11604.48335004
  -exchange      EXHF   =         0.00000000
  -V(xc)+E(xc)   XCENC  =      1503.51243293
  PAW double counting   =     35698.75902911   -36981.05640570
  entropy T*S    EENTRO =        -0.02511399
  eigenvalues    EBANDS =     -1327.97867008
  atomic energy  EATOM  =     32420.79373756
  Solvation  Ediel_sol  =         0.00000000
  ---------------------------------------------------
  free energy    TOTEN  =      -340.20404058 eV

  energy without entropy =     -340.17892659  energy(sigma->0) =     -340.19148359


--------------------------------------------------------------------------------------------------------




--------------------------------------- Iteration      1(  20)  ---------------------------------------


    POTLOK:  cpu time    0.1270: real time    0.1273
    SETDIJ:  cpu time    0.0204: real time    0.0204
     EDDAV:  cpu time    2.0038: real time    2.0086
    CHARGE:  cpu time    0.0964: real time    0.0966
    MIXING:  cpu time    0.0056: real time    0.0056
    --------------------------------------------
      LOOP:  cpu time    2.2532: real time    2.2586

 eigenvalue-minimisations  :  1376
 total energy-change (2. order) :-0.3593376E-01  (-0.8493585E-01)
 number of electron     373.0000138 magnetization       4.4882049
 augmentation part      123.4488141 magnetization       3.4230950

 Broyden mixing:
  rms(total) = 0.79636E+00    rms(broyden)= 0.79621E+00
  rms(prec ) = 0.92931E+00
  weight for this iteration     100.00

 eigenvalues of (default mixing * dielectric matrix)
  average eigenvalue GAMMA=   0.4650
  1.6724  0.9480  0.9480  0.5107  0.5107  0.4523  0.4523  0.3270  0.3270  0.1769
  0.1630  0.1630  0.1110  0.1110  0.1020

 Free energy of the ion-electron system (eV)
  ---------------------------------------------------
  alpha Z        PSCENC =      1139.27336025
  Ewald energy   TEWEN  =    -21188.99906062
  -Hartree energ DENC   =    -11606.45775012
  -exchange      EXHF   =         0.00000000
  -V(xc)+E(xc)   XCENC  =      1503.55172935
  PAW double counting   =     35718.98043205   -37000.99580982
  entropy T*S    EENTRO =        -0.00934717
  eigenvalues    EBANDS =     -1326.37726583
  atomic energy  EATOM  =     32420.79373756
  Solvation  Ediel_sol  =         0.00000000
  ---------------------------------------------------
  free energy    TOTEN  =      -340.23997434 eV

  energy without entropy =     -340.23062717  energy(sigma->0) =     -340.23530075


--------------------------------------------------------------------------------------------------------




--------------------------------------- Iteration      1(  21)  ---------------------------------------


    POTLOK:  cpu time    0.1258: real time    0.1261
    SETDIJ:  cpu time    0.0205: real time    0.0206
     EDDAV:  cpu time    1.9995: real time    2.0042
    CHARGE:  cpu time    0.0989: real time    0.0991
    MIXING:  cpu time    0.0058: real time    0.0059
    --------------------------------------------
      LOOP:  cpu time    2.2505: real time    2.2558

 eigenvalue-minimisations  :  1360
 total energy-change (2. order) :-0.1166326E-02  (-0.5903638E-01)
 number of electron     373.0000138 magnetization       4.0050146
 augmentation part      123.3940950 magnetization       2.9551746

 Broyden mixing:
  rms(total) = 0.67822E+00    rms(broyden)= 0.67809E+00
  rms(prec ) = 0.79492E+00
  weight for this iteration     100.00

 eigenvalues of (default mixing * dielectric matrix)
  average eigenvalue GAMMA=   0.4694
  1.6886  0.9615  0.9615  0.5982  0.5982  0.4779  0.4779  0.3583  0.3583  0.2072
  0.1882  0.1633  0.1464  0.1109  0.1109  0.1025

 Free energy of the ion-electron system (eV)
  ---------------------------------------------------
  alpha Z        PSCENC =      1139.27336025
  Ewald energy   TEWEN  =    -21188.99906062
  -Hartree energ DENC   =    -11608.31467853
  -exchange      EXHF   =         0.00000000
  -V(xc)+E(xc)   XCENC  =      1503.59890851
  PAW double counting   =     35756.55127784   -37038.41856443
  entropy T*S    EENTRO =        -0.00349779
  eigenvalues    EBANDS =     -1324.72262346
  atomic energy  EATOM  =     32420.79373756
  Solvation  Ediel_sol  =         0.00000000
  ---------------------------------------------------
  free energy    TOTEN  =      -340.24114067 eV

  energy without entropy =     -340.23764288  energy(sigma->0) =     -340.23939177


--------------------------------------------------------------------------------------------------------




--------------------------------------- Iteration      1(  22)  ---------------------------------------


    POTLOK:  cpu time    0.1274: real time    0.1278
    SETDIJ:  cpu time    0.0205: real time    0.0206
     EDDAV:  cpu time    1.9899: real time    1.9947
    CHARGE:  cpu time    0.0971: real time    0.0973
    MIXING:  cpu time    0.0060: real time    0.0060
    --------------------------------------------
      LOOP:  cpu time    2.2410: real time    2.2464

 eigenvalue-minimisations  :  1360
 total energy-change (2. order) :-0.2122748E-01  (-0.4862407E-01)
 number of electron     373.0000137 magnetization       3.8268982
 augmentation part      123.4405321 magnetization       2.7995046

 Broyden mixing:
  rms(total) = 0.54847E+00    rms(broyden)= 0.54835E+00
  rms(prec ) = 0.63402E+00
  weight for this iteration     100.00

 eigenvalues of (default mixing * dielectric matrix)
  average eigenvalue GAMMA=   0.4995
  1.6892  1.0892  1.0892  0.7230  0.7230  0.4830  0.4830  0.3958  0.3958  0.4021
  0.2040  0.1820  0.1541  0.1541  0.1109  0.1109  0.1021

 Free energy of the ion-electron system (eV)
  ---------------------------------------------------
  alpha Z        PSCENC =      1139.27336025
  Ewald energy   TEWEN  =    -21188.99906062
  -Hartree energ DENC   =    -11608.65877308
  -exchange      EXHF   =         0.00000000
  -V(xc)+E(xc)   XCENC  =      1503.65030701
  PAW double counting   =     35823.58197848   -37105.10527474
  entropy T*S    EENTRO =        -0.00038579
  eigenvalues    EBANDS =     -1324.79825722
  atomic energy  EATOM  =     32420.79373756
  Solvation  Ediel_sol  =         0.00000000
  ---------------------------------------------------
  free energy    TOTEN  =      -340.26236815 eV

  energy without entropy =     -340.26198236  energy(sigma->0) =     -340.26217525


--------------------------------------------------------------------------------------------------------




--------------------------------------- Iteration      1(  23)  ---------------------------------------


    POTLOK:  cpu time    0.1256: real time    0.1259
    SETDIJ:  cpu time    0.0201: real time    0.0202
     EDDAV:  cpu time    1.9177: real time    1.9222
    CHARGE:  cpu time    0.0931: real time    0.0934
    MIXING:  cpu time    0.0062: real time    0.0062
    --------------------------------------------
      LOOP:  cpu time    2.1627: real time    2.1679

 eigenvalue-minimisations  :  1344
 total energy-change (2. order) :-0.2154694E-01  (-0.3397577E-01)
 number of electron     373.0000137 magnetization       3.3416348
 augmentation part      123.4230931 magnetization       2.3307529

 Broyden mixing:
  rms(total) = 0.47794E+00    rms(broyden)= 0.47786E+00
  rms(prec ) = 0.56142E+00
  weight for this iteration     100.00

 eigenvalues of (default mixing * dielectric matrix)
  average eigenvalue GAMMA=   0.5639
  1.7840  1.6349  1.6349  0.7785  0.7785  0.5298  0.5298  0.4515  0.4066  0.4066
  0.2325  0.1753  0.1753  0.1538  0.1538  0.1109  0.1109  0.1021

 Free energy of the ion-electron system (eV)
  ---------------------------------------------------
  alpha Z        PSCENC =      1139.27336025
  Ewald energy   TEWEN  =    -21188.99906062
  -Hartree energ DENC   =    -11609.67503327
  -exchange      EXHF   =         0.00000000
  -V(xc)+E(xc)   XCENC  =      1503.72624631
  PAW double counting   =     35848.11299253   -37129.51826611
  entropy T*S    EENTRO =        -0.00017892
  eigenvalues    EBANDS =     -1323.99771283
  atomic energy  EATOM  =     32420.79373756
  Solvation  Ediel_sol  =         0.00000000
  ---------------------------------------------------
  free energy    TOTEN  =      -340.28391509 eV

  energy without entropy =     -340.28373617  energy(sigma->0) =     -340.28382563


--------------------------------------------------------------------------------------------------------




--------------------------------------- Iteration      1(  24)  ---------------------------------------


    POTLOK:  cpu time    0.1230: real time    0.1233
    SETDIJ:  cpu time    0.0200: real time    0.0200
     EDDAV:  cpu time    1.8866: real time    1.8911
    CHARGE:  cpu time    0.0906: real time    0.0908
    MIXING:  cpu time    0.0065: real time    0.0065
    --------------------------------------------
      LOOP:  cpu time    2.1266: real time    2.1317

 eigenvalue-minimisations  :  1392
 total energy-change (2. order) :-0.2848898E-01  (-0.4771925E-01)
 number of electron     373.0000137 magnetization       3.1965962
 augmentation part      123.3836680 magnetization       2.2148827

 Broyden mixing:
  rms(total) = 0.38796E+00    rms(broyden)= 0.38780E+00
  rms(prec ) = 0.47454E+00
  weight for this iteration     100.00

 eigenvalues of (default mixing * dielectric matrix)
  average eigenvalue GAMMA=   0.5745
  1.8153  1.8153  1.6172  0.8231  0.8231  0.5705  0.5705  0.4468  0.4468  0.4052
  0.4052  0.2069  0.1834  0.1586  0.1523  0.1523  0.1109  0.1109  0.1021

 Free energy of the ion-electron system (eV)
  ---------------------------------------------------
  alpha Z        PSCENC =      1139.27336025
  Ewald energy   TEWEN  =    -21188.99906062
  -Hartree energ DENC   =    -11612.13135357
  -exchange      EXHF   =         0.00000000
  -V(xc)+E(xc)   XCENC  =      1503.94621655
  PAW double counting   =     35919.34577163   -37200.74160956
  entropy T*S    EENTRO =        -0.00005612
  eigenvalues    EBANDS =     -1321.79941019
  atomic energy  EATOM  =     32420.79373756
  Solvation  Ediel_sol  =         0.00000000
  ---------------------------------------------------
  free energy    TOTEN  =      -340.31240407 eV

  energy without entropy =     -340.31234795  energy(sigma->0) =     -340.31237601


--------------------------------------------------------------------------------------------------------




--------------------------------------- Iteration      1(  25)  ---------------------------------------


    POTLOK:  cpu time    0.1258: real time    0.1261
    SETDIJ:  cpu time    0.0201: real time    0.0202
     EDDAV:  cpu time    1.9875: real time    1.9922
    CHARGE:  cpu time    0.0966: real time    0.0968
    MIXING:  cpu time    0.0069: real time    0.0069
    --------------------------------------------
      LOOP:  cpu time    2.2368: real time    2.2421

 eigenvalue-minimisations  :  1360
 total energy-change (2. order) : 0.1192408E-01  (-0.1897591E-01)
 number of electron     373.0000137 magnetization       3.0182029
 augmentation part      123.3820538 magnetization       2.0724005

 Broyden mixing:
  rms(total) = 0.30249E+00    rms(broyden)= 0.30242E+00
  rms(prec ) = 0.37702E+00
  weight for this iteration     100.00

 eigenvalues of (default mixing * dielectric matrix)
  average eigenvalue GAMMA=   0.5654
  1.8111  1.5721  1.5721  0.9590  0.9590  0.6195  0.6195  0.4953  0.4953  0.3915
  0.3915  0.2418  0.2076  0.1803  0.1627  0.1530  0.1530  0.1109  0.1109  0.1021

 Free energy of the ion-electron system (eV)
  ---------------------------------------------------
  alpha Z        PSCENC =      1139.27336025
  Ewald energy   TEWEN  =    -21188.99906062
  -Hartree energ DENC   =    -11613.21981074
  -exchange      EXHF   =         0.00000000
  -V(xc)+E(xc)   XCENC  =      1504.03958123
  PAW double counting   =     35938.54432264   -37219.62895835
  entropy T*S    EENTRO =        -0.00015786
  eigenvalues    EBANDS =     -1321.10349411
  atomic energy  EATOM  =     32420.79373756
  Solvation  Ediel_sol  =         0.00000000
  ---------------------------------------------------
  free energy    TOTEN  =      -340.30047999 eV

  energy without entropy =     -340.30032213  energy(sigma->0) =     -340.30040106


--------------------------------------------------------------------------------------------------------




--------------------------------------- Iteration      1(  26)  ---------------------------------------


    POTLOK:  cpu time    0.1264: real time    0.1267
    SETDIJ:  cpu time    0.0201: real time    0.0201
     EDDAV:  cpu time    1.9438: real time    1.9484
    CHARGE:  cpu time    0.0983: real time    0.0986
    MIXING:  cpu time    0.0070: real time    0.0071
    --------------------------------------------
      LOOP:  cpu time    2.1957: real time    2.2009

 eigenvalue-minimisations  :  1328
 total energy-change (2. order) : 0.1381436E-01  (-0.1235837E-01)
 number of electron     373.0000137 magnetization       2.9859993
 augmentation part      123.3843733 magnetization       2.0475038

 Broyden mixing:
  rms(total) = 0.22703E+00    rms(broyden)= 0.22697E+00
  rms(prec ) = 0.27915E+00
  weight for this iteration     100.00

 eigenvalues of (default mixing * dielectric matrix)
  average eigenvalue GAMMA=   0.5755
  2.0557  2.0557  1.0970  1.0970  0.8786  0.6643  0.6643  0.5209  0.5209  0.3984
  0.3984  0.3693  0.2174  0.1109  0.1109  0.1021  0.1820  0.1820  0.1555  0.1555
  0.1490

 Free energy of the ion-electron system (eV)
  ---------------------------------------------------
  alpha Z        PSCENC =      1139.27336025
  Ewald energy   TEWEN  =    -21188.99906062
  -Hartree energ DENC   =    -11613.66102889
  -exchange      EXHF   =         0.00000000
  -V(xc)+E(xc)   XCENC  =      1504.03584029
  PAW double counting   =     35965.03755140   -37246.20430504
  entropy T*S    EENTRO =        -0.00009386
  eigenvalues    EBANDS =     -1320.56266672
  atomic energy  EATOM  =     32420.79373756
  Solvation  Ediel_sol  =         0.00000000
  ---------------------------------------------------
  free energy    TOTEN  =      -340.28666563 eV

  energy without entropy =     -340.28657177  energy(sigma->0) =     -340.28661870


--------------------------------------------------------------------------------------------------------




--------------------------------------- Iteration      1(  27)  ---------------------------------------


    POTLOK:  cpu time    0.1253: real time    0.1256
    SETDIJ:  cpu time    0.0197: real time    0.0197
     EDDAV:  cpu time    2.0441: real time    2.0490
    CHARGE:  cpu time    0.0979: real time    0.0981
    MIXING:  cpu time    0.0072: real time    0.0072
    --------------------------------------------
      LOOP:  cpu time    2.2941: real time    2.2996

 eigenvalue-minimisations  :  1408
 total energy-change (2. order) : 0.6813374E-02  (-0.3621981E-02)
 number of electron     373.0000137 magnetization       3.0046702
 augmentation part      123.3834600 magnetization       2.0716401

 Broyden mixing:
  rms(total) = 0.16310E+00    rms(broyden)= 0.16308E+00
  rms(prec ) = 0.20063E+00
  weight for this iteration     100.00

 eigenvalues of (default mixing * dielectric matrix)
  average eigenvalue GAMMA=   0.5820
  2.0072  2.0072  1.2371  1.2371  0.9980  0.6701  0.6701  0.5363  0.5363  0.4387
  0.4059  0.4059  0.2754  0.2145  0.1109  0.1109  0.1021  0.1948  0.1818  0.1541
  0.1541  0.1561

 Free energy of the ion-electron system (eV)
  ---------------------------------------------------
  alpha Z        PSCENC =      1139.27336025
  Ewald energy   TEWEN  =    -21188.99906062
  -Hartree energ DENC   =    -11613.99661067
  -exchange      EXHF   =         0.00000000
  -V(xc)+E(xc)   XCENC  =      1504.03366414
  PAW double counting   =     35969.94705472   -37251.13289230
  entropy T*S    EENTRO =        -0.00037477
  eigenvalues    EBANDS =     -1320.19873056
  atomic energy  EATOM  =     32420.79373756
  Solvation  Ediel_sol  =         0.00000000
  ---------------------------------------------------
[...]
 -----------------------------------------------------------------------------------------------
   -.365E+01 0.131E+00 0.955E+00   0.353E+01 -.243E+00 -.926E+00   0.125E+00 0.111E+00 -.313E-01   -.408E-02 -.299E-02 0.129E-02
   -.118E+01 -.124E+01 -.875E+00   0.115E+01 0.205E+01 0.882E+00   0.367E-01 -.778E+00 -.180E-02   -.736E-02 0.369E-03 -.628E-02
   0.326E+01 0.540E-01 -.112E+01   -.409E+01 0.279E+00 0.122E+01   0.812E+00 -.329E+00 -.103E+00   0.795E-02 -.107E-02 0.359E-02
   0.139E+01 0.156E+01 0.225E+01   -.140E+01 -.238E+01 -.223E+01   0.144E-03 0.806E+00 -.184E-01   0.745E-02 0.218E-02 -.151E-03
   0.247E+01 0.573E+00 0.187E+01   -.254E+01 -.492E+00 -.172E+01   0.665E-01 -.708E-01 -.148E+00   0.417E-02 -.303E-02 -.736E-02
   -.335E+01 -.236E+00 0.828E+00   0.331E+01 -.430E+00 -.879E+00   0.467E-01 0.656E+00 0.384E-01   -.659E-03 -.253E-02 0.883E-02
   -.118E+01 -.942E-01 -.305E+01   0.210E+01 0.416E+00 0.307E+01   -.894E+00 -.313E+00 -.111E-01   -.743E-02 -.957E-03 -.460E-03
   0.113E+02 0.262E+02 0.196E+02   -.113E+02 -.265E+02 -.196E+02   -.158E-01 0.252E+00 -.187E-01   0.618E-02 0.123E-02 0.440E-02
   -.944E+01 0.233E+02 0.230E+02   0.982E+01 -.234E+02 -.232E+02   -.316E+00 0.159E+00 0.197E+00   -.596E-01 -.206E-01 -.113E-02
   0.345E+02 -.475E-01 0.593E+02   -.351E+02 0.584E-01 -.599E+02   0.522E+00 0.102E-01 0.569E+00   0.520E-01 -.223E-01 0.218E-01
   0.126E+02 0.113E+01 0.192E+02   -.129E+02 -.125E+01 -.196E+02   0.255E+00 0.994E-01 0.403E+00   0.558E-01 0.207E-01 0.192E-01
   -.166E+02 -.244E+02 0.397E+02   0.169E+02 0.247E+02 -.400E+02   -.233E+00 -.334E+00 0.331E+00   -.621E-01 0.240E-01 -.266E-02
   0.168E+01 -.265E+02 0.483E+02   -.183E+01 0.267E+02 -.485E+02   0.147E+00 -.153E+00 0.246E+00   0.813E-02 -.168E-02 0.344E-02
   -.423E+00 0.127E+02 0.119E+03   0.724E+00 -.127E+02 -.120E+03   -.285E+00 0.129E-01 0.122E+01   -.194E-01 0.871E-02 0.151E-01
   -.377E+02 -.134E+02 0.853E+01   0.384E+02 0.135E+02 -.875E+01   -.648E+00 -.744E-01 0.216E+00   -.161E-01 -.688E-02 0.147E-01
   0.101E+02 0.153E+02 -.666E+02   -.106E+02 -.153E+02 0.676E+02   0.569E+00 -.120E-02 -.100E+01   0.205E-02 0.522E-02 -.144E-01
   -.894E+01 0.134E+01 -.170E+02   0.885E+01 -.143E+01 0.173E+02   0.696E-01 0.103E+00 -.346E+00   0.164E-01 -.753E-02 -.253E-04
   -.184E+02 0.203E+02 -.632E+02   0.186E+02 -.204E+02 0.636E+02   -.164E+00 0.697E-01 -.403E+00   -.106E-01 -.556E-02 -.208E-01
   0.296E+01 -.226E+02 -.250E+02   -.305E+01 0.228E+02 0.252E+02   0.106E+00 -.229E+00 -.236E+00   -.117E-01 0.448E-02 -.187E-01
   -.766E+00 -.278E+01 -.322E+02   0.954E+00 0.281E+01 0.326E+02   -.201E+00 -.399E-01 -.371E+00   0.163E-01 0.544E-02 0.113E-02
   0.249E+02 -.151E+02 -.652E+02   -.253E+02 0.151E+02 0.656E+02   0.471E+00 0.265E-01 -.408E+00   -.622E-03 -.887E-02 -.163E-01
   -.214E+02 0.283E+02 -.704E+02   0.216E+02 -.285E+02 0.707E+02   -.140E+00 0.167E+00 -.253E+00   0.765E-02 0.667E-02 -.652E-02
   0.160E+02 -.248E+02 0.394E+01   -.160E+02 0.250E+02 -.391E+01   0.230E-02 -.115E+00 -.325E-01   0.743E-02 -.751E-02 -.439E-03
   0.276E+02 0.260E+02 0.329E+03   -.312E+02 -.278E+02 -.347E+03   0.365E+01 0.179E+01 0.181E+02   -.668E-02 0.121E-01 0.508E-02
   -.155E+02 0.266E+00 -.414E+03   0.172E+02 -.514E+00 0.440E+03   -.178E+01 0.240E+00 -.261E+02   0.520E-03 0.759E-02 -.496E-02
   0.155E+01 0.298E+02 -.344E+03   -.916E+00 -.321E+02 0.365E+03   -.630E+00 0.226E+01 -.211E+02   -.179E-01 0.722E-02 -.140E-01
   0.129E+02 -.181E+01 0.415E+03   -.133E+02 0.166E+01 -.441E+03   0.431E+00 0.144E+00 0.254E+02   0.150E-01 0.590E-02 0.365E-02
   0.381E+02 -.288E+02 0.339E+03   -.431E+02 0.303E+02 -.357E+03   0.497E+01 -.142E+01 0.175E+02   0.720E-02 -.626E-02 0.630E-02
   -.450E+02 0.130E+02 -.373E+03   0.496E+02 -.136E+02 0.391E+03   -.458E+01 0.592E+00 -.179E+02   -.809E-02 -.204E-02 -.327E-02
   -.805E+01 -.165E+02 -.384E+03   0.820E+01 0.175E+02 0.405E+03   -.142E+00 -.105E+01 -.217E+02   -.134E-01 0.282E-02 -.830E-03
   0.957E+00 0.320E+02 0.343E+03   -.848E+00 -.341E+02 -.363E+03   -.118E+00 0.201E+01 0.199E+02   0.166E-01 0.598E-02 0.196E-02
   -.294E+02 0.286E+02 -.343E+03   0.335E+02 -.300E+02 0.361E+03   -.417E+01 0.145E+01 -.183E+02   -.129E-01 -.232E-01 -.327E-01
   0.469E+02 0.249E+02 0.373E+03   -.518E+02 -.265E+02 -.391E+03   0.487E+01 0.157E+01 0.183E+02   0.285E-01 -.224E-01 0.350E-01
   0.811E+01 -.298E+02 0.384E+03   -.835E+01 0.321E+02 -.406E+03   0.208E+00 -.231E+01 0.220E+02   0.353E-01 0.231E-01 0.319E-01
   0.250E+01 -.325E+02 -.344E+03   -.277E+01 0.345E+02 0.364E+03   0.285E+00 -.204E+01 -.203E+02   -.205E-01 0.244E-01 -.315E-01
   -.202E+02 -.266E+02 0.359E+03   0.207E+02 0.286E+02 -.381E+03   -.530E+00 -.195E+01 0.220E+02   -.854E-03 -.109E-01 0.141E-02
   -.247E+02 0.282E+01 -.388E+03   0.284E+02 -.308E+01 0.408E+03   -.360E+01 0.264E+00 -.201E+02   -.675E-02 -.694E-02 -.197E-02
   -.402E+02 -.255E+02 -.333E+03   0.445E+02 0.271E+02 0.350E+03   -.430E+01 -.160E+01 -.175E+02   -.304E-01 -.923E-02 -.365E-02
   0.570E+02 0.218E+01 0.374E+03   -.634E+02 -.218E+01 -.394E+03   0.641E+01 0.386E-02 0.199E+02   0.281E-01 -.548E-02 -.639E-02
   -.130E+02 0.247E+02 0.342E+03   0.129E+02 -.265E+02 -.364E+03   0.150E+00 0.172E+01 0.219E+02   -.116E-01 0.778E-02 -.688E-02
   0.150E+02 0.286E+02 -.374E+03   -.159E+02 -.306E+02 0.394E+03   0.859E+00 0.193E+01 -.199E+02   0.129E-01 0.111E-01 0.877E-02
   -.193E+02 0.228E+02 -.327E+03   0.225E+02 -.242E+02 0.345E+03   -.322E+01 0.134E+01 -.181E+02   0.472E-01 0.566E-02 -.159E-01
   -.105E+02 0.293E+02 0.376E+03   0.102E+02 -.313E+02 -.396E+03   0.330E+00 0.192E+01 0.206E+02   -.385E-01 0.580E-02 0.265E-01
   0.375E+02 0.277E+02 0.328E+03   -.426E+02 -.291E+02 -.346E+03   0.517E+01 0.141E+01 0.179E+02   -.823E-02 -.694E-02 -.133E-02
   0.108E+02 0.364E+02 -.399E+03   -.926E+01 -.391E+02 0.420E+03   -.155E+01 0.267E+01 -.217E+02   0.509E-02 -.816E-02 -.422E-03
   0.144E+02 -.384E+02 -.386E+03   -.148E+02 0.414E+02 0.407E+03   0.414E+00 -.302E+01 -.214E+02   -.363E-02 0.966E-02 0.553E-02
   -.739E+01 -.344E+02 0.337E+03   0.840E+01 0.366E+02 -.357E+03   -.999E+00 -.223E+01 0.201E+02   -.233E-02 0.886E-02 -.433E-02
   -.386E+02 -.268E+02 -.326E+03   0.437E+02 0.282E+02 0.343E+03   -.512E+01 -.138E+01 -.177E+02   0.116E-01 -.196E-01 0.341E-02
   -.159E+02 0.250E+02 0.395E+03   0.150E+02 -.268E+02 -.416E+03   0.953E+00 0.186E+01 0.212E+02   -.245E-01 -.203E-01 -.723E-02
   -.135E+02 -.269E+02 0.384E+03   0.136E+02 0.288E+02 -.405E+03   -.622E-01 -.192E+01 0.207E+02   -.196E-01 0.191E-01 -.104E-01
   0.605E+01 0.311E+02 -.336E+03   -.685E+01 -.330E+02 0.356E+03   0.787E+00 0.190E+01 -.198E+02   0.907E-02 0.198E-01 0.629E-02
   0.317E+02 -.233E+02 0.323E+03   -.358E+02 0.247E+02 -.340E+03   0.414E+01 -.141E+01 0.168E+02   -.714E-02 -.801E-02 -.825E-02
   -.345E+02 -.230E+02 -.363E+03   0.394E+02 0.245E+02 0.382E+03   -.496E+01 -.148E+01 -.198E+02   0.117E-01 -.114E-01 0.108E-01
   0.253E+02 -.251E+02 -.351E+03   -.258E+02 0.270E+02 0.372E+03   0.502E+00 -.186E+01 -.210E+02   0.306E-01 -.506E-02 -.471E-02
   0.884E+00 -.258E+02 0.381E+03   -.269E+01 0.271E+02 -.401E+03   0.183E+01 -.137E+01 0.199E+02   -.230E-01 -.775E-02 0.114E-01
 -----------------------------------------------------------------------------------------------
   -.524E+00 -.706E-01 0.171E+00   0.675E-13 0.181E-12 0.171E-12   0.533E+00 0.761E-01 -.170E+00   -.466E-02 -.937E-02 -.263E-02
 
 
 POSITION                                       TOTAL-FORCE (eV/Angst)
 -----------------------------------------------------------------------------------
      4.03491      1.35385      2.48854        -0.003285     -0.005079     -0.000206
      1.57487      3.06810      2.46234         0.004057      0.029376     -0.001362
      4.53416      2.87753      7.36910        -0.003714      0.002975     -0.003709
      6.51146      5.27952      2.53122        -0.004880     -0.012498      0.002759
     -0.88259      1.40884      2.42962         0.000111      0.007441     -0.000230
     -2.63535      1.15074      7.26488         0.005083     -0.012216     -0.003683
      0.09371      2.87991      7.28243         0.020547      0.007282      0.006971
      9.84426     -0.00330      0.14648        -0.003127     -0.003196     -0.000755
      2.45465      1.38263      0.06037        -0.002241      0.001273      0.004643
      7.38525      1.38164      0.10403        -0.003145     -0.001089      0.004104
      7.39390      4.15348      0.13219        -0.001438     -0.000227      0.003337
      2.45744      4.15661      0.04806        -0.003524      0.001036      0.003587
      6.32774      2.78269      9.80997        -0.002288      0.003870     -0.001072
      1.39380      0.01268      9.72186        -0.003912      0.001555      0.008428
      4.92343      2.77083      0.11175        -0.002892     -0.000556      0.008943
      3.16671      0.00878      4.91010         0.001599     -0.002799     -0.005310
      5.62475      1.39277      4.93545         0.002600     -0.001128     -0.004461
      0.71019      1.37602      4.85612         0.002735     -0.002284     -0.003766
      0.70320      4.16256      4.83415         0.001711      0.000836     -0.002892
      5.61916      4.15512      4.95307         0.002699     -0.000708     -0.003768
      3.17081      2.77682      4.91479         0.002173      0.000600     -0.006932
     -1.74631      5.53007      4.86461         0.002811     -0.001677     -0.003773
      8.08695      2.77117      4.94430         0.002106      0.000402     -0.000818
      4.91511      0.02084      3.94693         0.007172     -0.000358     -0.003851
      1.44451      5.53148      5.79823        -0.001990     -0.000703     -0.003528
      3.25511      0.01097      0.99511        -0.010133      0.000310      0.005482
      3.08164      5.54147      8.86501        -0.000313      0.000365      0.005861
      7.40619      1.35069      3.95587         0.005883      0.001913     -0.000763
     -1.06642      1.42548      5.84682        -0.001513     -0.002318     -0.002420
     -0.97798      4.11254      5.79212        -0.003246     -0.000675     -0.000137
      7.31765      4.17258      4.01912         0.008138     -0.000810     -0.002507
      0.69612      1.40091      1.01164        -0.006197     -0.001923     -0.002158
      5.65240      1.39833      8.80376         0.001755     -0.000853     -0.001829
      5.55210      4.15890      8.86494         0.001423      0.000115     -0.000540
      0.74821      4.14110      0.97107        -0.008979     -0.000556     -0.001562
      4.82416      2.76979      3.98352         0.007640     -0.000970     -0.005206
      1.46824      2.77678      5.80884        -0.001971     -0.001776     -0.003959
      3.13487      2.76195      1.07196        -0.011169      0.000359      0.005456
      3.16202      2.78784      8.83498         0.001324      0.000270      0.003719
     -0.10257      0.02668      3.89921         0.005250      0.000356     -0.004714
      6.42860      0.01786      5.89502        -0.002428     -0.000154     -0.002729
      8.11333      0.02661      1.10527        -0.002288     -0.001792     -0.000018
     -1.80947      0.02877      8.77458        -0.000802      0.001858      0.001929
      2.50402      1.40191      3.88716         0.005049     -0.001459     -0.003470
      3.88594      1.39896      5.89339        -0.000460     -0.001734     -0.004223
      3.92408      4.15136      5.88202        -0.003038     -0.002021     -0.004246
      2.41825      4.15479      3.93782         0.007505     -0.000417     -0.004216
      5.59928      1.34416      1.08836        -0.006554     -0.000911      0.008187
      0.64068      1.44792      8.79816        -0.000302      0.000540      0.008807
      0.63035      4.12397      8.80892         0.002138      0.001835      0.007012
      5.69405      4.18056      1.03875        -0.006053     -0.000710      0.008868
      0.01617      2.74326      3.83848         0.003146      0.000875     -0.003661
      6.31049      2.75584      5.93684        -0.002073     -0.001531     -0.002204
      8.19344      2.73789      1.06341        -0.004966     -0.001212      0.001405
     -1.82068      2.76632      8.75850         0.004268      0.000897      0.001179
 -----------------------------------------------------------------------------------
    total drift:                                0.003939     -0.003871     -0.000665


--------------------------------------------------------------------------------------------------------



  FREE ENERGIE OF THE ION-ELECTRON SYSTEM (eV)
  ---------------------------------------------------
  free  energy   TOTEN  =      -340.2907293845 eV

  energy  without entropy=     -340.2902589940  energy(sigma->0) =     -340.29049419
 
 d Force = 0.9787969E-04[ 0.912E-04, 0.105E-03]  d Energy = 0.1006608E-03-0.278E-05
 d Force =-0.6100817E+00[-0.610E+00,-0.610E+00]  d Ewald  =-0.4541801E+00-0.156E+00


--------------------------------------------------------------------------------------------------------


    POTLOK:  cpu time    0.1458: real time    0.1461


--------------------------------------------------------------------------------------------------------


 Quasi-Newton relaxation of ions (Broydens 2nd method)
  g(Force)  = 0.190E-03   g(Stress)= 0.332E-03

 retain information from N=  2 steps
 eigenvalues of (default step * inverse Hessian matrix)
  average eigenvalue of G=   2.0263
 eigenvalue spectrum of G is  0.0811  3.9715


--------------------------------------------------------------------------------------------------------


     LOOP+:  cpu time   10.4087: real time   10.5016
    4ORBIT:  cpu time    0.0000: real time    0.0000

volume of typ            1:    10.3 %

volume of typ            2:    19.2 %

volume of typ            3:     9.8 %
 
total charge     
 
# of ion       s       p       d       tot
------------------------------------------
    1        2.068   0.211   0.078   2.358
    2        2.073   0.226   0.084   2.383
    3        2.063   0.200   0.074   2.337
    4        2.069   0.214   0.079   2.363
    5        2.070   0.212   0.080   2.361
    6        2.066   0.209   0.077   2.352
    7        2.061   0.193   0.072   2.326
    8        0.281   0.389   7.845   8.515
    9        0.290   0.403   7.858   8.550
   10        0.283   0.387   7.861   8.531
   11        0.290   0.404   7.848   8.541
   12        0.285   0.395   7.843   8.523
   13        0.297   0.422   7.846   8.566
   14        0.293   0.412   7.835   8.539
   15        0.280   0.384   7.855   8.518
   16        0.282   0.389   7.837   8.508
   17        0.286   0.393   7.864   8.542
   18        0.283   0.388   7.859   8.530
   19        0.289   0.403   7.849   8.542
   20        0.285   0.394   7.843   8.521
   21        0.299   0.426   7.843   8.568
   22        0.294   0.415   7.842   8.551
   23        0.279   0.381   7.856   8.516
   24        1.263   2.781   0.007   4.051
   25        1.282   2.730   0.009   4.021
   26        1.271   2.762   0.008   4.040
   27        1.281   2.732   0.008   4.021
   28        1.266   2.773   0.007   4.046
   29        1.267   2.768   0.007   4.042
   30        1.271   2.757   0.008   4.036
   31        1.268   2.770   0.007   4.045
   32        1.268   2.770   0.007   4.045
   33        1.268   2.767   0.007   4.042
   34        1.273   2.754   0.008   4.035
   35        1.269   2.770   0.007   4.046
   36        1.272   2.757   0.008   4.036
   37        1.269   2.768   0.007   4.045
   38        1.265   2.776   0.007   4.047
   39        1.271   2.765   0.007   4.043
   40        1.269   2.765   0.008   4.042
   41        1.269   2.766   0.007   4.043
   42        1.263   2.782   0.007   4.052
   43        1.270   2.764   0.008   4.041
   44        1.268   2.770   0.007   4.045
   45        1.274   2.752   0.007   4.033
   46        1.270   2.763   0.007   4.041
   47        1.269   2.768   0.007   4.045
   48        1.267   2.771   0.007   4.044
   49        1.272   2.755   0.007   4.035
   50        1.269   2.766   0.007   4.043
   51        1.269   2.768   0.007   4.044
   52        1.262   2.782   0.007   4.051
   53        1.269   2.762   0.007   4.039
   54        1.270   2.763   0.007   4.041
   55        1.270   2.762   0.007   4.039
--------------------------------------------------
tot          59.69   96.31  126.36  282.36
 
magnetization (x)
 
# of ion       s       p       d       tot
------------------------------------------
    1        0.005   0.007   0.001   0.012
    2        0.003   0.006   0.000   0.009
    3        0.003   0.006   0.000   0.010
    4        0.003   0.005  -0.000   0.007
    5        0.000   0.000   0.000   0.000
    6        0.004   0.007   0.001   0.011
    7       -0.003  -0.000  -0.000  -0.004
    8        0.000  -0.000   0.206   0.207
    9       -0.001  -0.000  -0.387  -0.388
   10        0.004  -0.000   0.511   0.515
   11       -0.000  -0.000  -0.150  -0.151
   12       -0.000  -0.000   0.126   0.126
   13       -0.000  -0.000  -0.162  -0.163
   14       -0.000  -0.000  -0.105  -0.105
   15        0.002  -0.000   0.421   0.423
   16       -0.000   0.000   0.165   0.165
   17        0.002  -0.000   0.485   0.486
   18        0.004  -0.000   0.531   0.535
   19        0.000  -0.000   0.152   0.152
   20       -0.000  -0.000   0.175   0.175
   21       -0.001   0.000  -0.144  -0.144
   22       -0.001   0.000  -0.120  -0.121
   23        0.002   0.000   0.423   0.425
   24        0.003   0.008   0.000   0.011
   25        0.002   0.026   0.000   0.029
   26       -0.002  -0.016  -0.000  -0.017
   27       -0.001  -0.002  -0.000  -0.004
   28        0.005   0.048   0.000   0.053
   29        0.006   0.068   0.000   0.074
   30        0.002   0.019   0.000   0.021
   31        0.002   0.013   0.000   0.015
   32       -0.004  -0.033  -0.000  -0.037
   33        0.005   0.057   0.000   0.062
   34       -0.001  -0.015  -0.000  -0.017
   35        0.001   0.010   0.000   0.011
   36        0.001  -0.002   0.000  -0.001
   37        0.000   0.003  -0.000   0.003
   38        0.003   0.031   0.000   0.034
   39        0.005   0.053   0.000   0.058
   40        0.000  -0.003   0.000  -0.003
   41        0.001   0.004   0.000   0.005
   42        0.002   0.020   0.000   0.022
   43        0.001   0.017   0.000   0.018
   44        0.005   0.059   0.000   0.065
   45        0.005   0.073   0.000   0.078
   46        0.001   0.007   0.000   0.009
   47        0.001   0.005   0.000   0.006
   48        0.006   0.062   0.000   0.067
   49       -0.004  -0.042  -0.000  -0.045
   50        0.002   0.022   0.000   0.024
   51       -0.001  -0.009  -0.000  -0.010
   52        0.005   0.046   0.000   0.051
   53        0.005   0.049   0.000   0.054
   54       -0.002  -0.008  -0.000  -0.010
   55       -0.003  -0.020  -0.000  -0.023
--------------------------------------------------
tot           0.08    0.58    2.13    2.79
 

 total amount of memory used by VASP MPI-rank0    88532. kBytes
=======================================================================

   base      :      30000. kBytes
   nonlr-proj:      20431. kBytes
   fftplans  :       4884. kBytes
   grid      :      28787. kBytes
   one-center:        855. kBytes
   wavefun   :       3575. kBytes
 
  
  
 General timing and accounting informations for this job:
 ========================================================
  
                  Total CPU time used (sec):      436.978
                            User time (sec):      434.273
                          System time (sec):        2.706
                         Elapsed time (sec):      443.277
  
                   Maximum memory used (kb):      136820.
                   Average memory used (kb):           0.
  
                          Minor page faults:        36945
                          Major page faults:           46
                 Voluntary context switches:         1362
