 vasp.5.4.4.18Apr17-6-g9f103f2a35 (build May 12 2020 05:39:39) gamma-only       
  
 MD_VERSION_INFO: Compiled 2020-05-12T12:39:39-UTC in devlin.sd.materialsdesign.
 com:/home/medea2/data/build/wwolf/vasp-gpu5.4.4/13047/x86_64/src/src/build/gam 
 from svn 13047
 
 This VASP executable licensed from Materials Design, Inc.
 
 executed on                        Lin64 date 2023.03.07  05:18:35
 running on   16 total cores
 distrk:  each k-point on   16 cores,    1 groups
 distr:  one band on NCORES_PER_BAND=   1 cores,   16 groups


--------------------------------------------------------------------------------------------------------


 INCAR:
 POTCAR:    PAW_PBE Li_sv 10Sep2004               
 POTCAR:    PAW_PBE Ni 02Aug2007                  
 POTCAR:    PAW_PBE O 08Apr2002                   

 ----------------------------------------------------------------------------- 
|                                                                             |
|           W    W    AA    RRRRR   N    N  II  N    N   GGGG   !!!           |
|           W    W   A  A   R    R  NN   N  II  NN   N  G    G  !!!           |
|           W    W  A    A  R    R  N N  N  II  N N  N  G       !!!           |
|           W WW W  AAAAAA  RRRRR   N  N N  II  N  N N  G  GGG   !            |
|           WW  WW  A    A  R   R   N   NN  II  N   NN  G    G                |
|           W    W  A    A  R    R  N    N  II  N    N   GGGG   !!!           |
|                                                                             |
|      For optimal performance we recommend to set                            |
|        NCORE= 4 - approx SQRT( number of cores)                             |
|      NCORE specifies how many cores store one orbital (NPAR=cpu/NCORE).     |
|      This setting can  greatly improve the performance of VASP for DFT.     |
|      The default,   NCORE=1            might be grossly inefficient         |
|      on modern multi-core architectures or massively parallel machines.     |
|      Do your own testing !!!!                                               |
|      Unfortunately you need to use the default for GW and RPA calculations. |
|      (for HF NCORE is supported but not extensively tested yet)             |
|                                                                             |
 ----------------------------------------------------------------------------- 

 POTCAR:    PAW_PBE Li_sv 10Sep2004               
  local pseudopotential read in
  atomic valenz-charges read in
  non local Contribution for L=           0  read in
    real space projection operators read in
  non local Contribution for L=           0  read in
    real space projection operators read in
  non local Contribution for L=           1  read in
    real space projection operators read in
    PAW grid and wavefunctions read in
 
   number of l-projection  operators is LMAX  =           3
   number of lm-projection operators is LMMAX =           5
 
 POTCAR:    PAW_PBE Ni 02Aug2007                  
  local pseudopotential read in
  partial core-charges read in
  partial kinetic energy density read in
  atomic valenz-charges read in
  non local Contribution for L=           2  read in
    real space projection operators read in
  non local Contribution for L=           2  read in
    real space projection operators read in
  non local Contribution for L=           0  read in
    real space projection operators read in
  non local Contribution for L=           0  read in
    real space projection operators read in
  non local Contribution for L=           1  read in
    real space projection operators read in
  non local Contribution for L=           1  read in
    real space projection operators read in
    PAW grid and wavefunctions read in
 
   number of l-projection  operators is LMAX  =           6
   number of lm-projection operators is LMMAX =          18
 
 POTCAR:    PAW_PBE O 08Apr2002                   
  local pseudopotential read in
  partial core-charges read in
  partial kinetic energy density read in
  kinetic energy density of atom read in
  atomic valenz-charges read in
  non local Contribution for L=           0  read in
    real space projection operators read in
  non local Contribution for L=           0  read in
    real space projection operators read in
  non local Contribution for L=           1  read in
    real space projection operators read in
  non local Contribution for L=           1  read in
    real space projection operators read in
    PAW grid and wavefunctions read in
 
   number of l-projection  operators is LMAX  =           4
   number of lm-projection operators is LMMAX =           8
 
 Optimization of the real space projectors (new method)

 maximal supplied QI-value         = 22.11
 optimisation between [QCUT,QGAM] = [ 11.28, 22.77] = [ 35.61,145.23] Ry 
 Optimized for a Real-space Cutoff    1.10 Angstroem

   l    n(q)    QCUT    max X(q) W(low)/X(q) W(high)/X(q)  e(spline) 
   0      7    11.276    10.506    0.54E-04    0.58E-04    0.16E-07
   0      7    11.276     8.367    0.11E-03    0.14E-03    0.35E-07
   1      7    11.276     8.983    0.23E-03    0.43E-03    0.86E-07
 Optimization of the real space projectors (new method)

 maximal supplied QI-value         = 16.25
 optimisation between [QCUT,QGAM] = [ 11.38, 22.75] = [ 36.24,144.96] Ry 
 Optimized for a Real-space Cutoff    1.47 Angstroem

   l    n(q)    QCUT    max X(q) W(low)/X(q) W(high)/X(q)  e(spline) 
   2      9    11.376    60.317    0.17E-03    0.16E-04    0.16E-06
   2      9    11.376    55.921    0.17E-03    0.16E-04    0.17E-06
   0     10    11.376    51.690    0.45E-04    0.60E-04    0.21E-06
   0     10    11.376    30.015    0.37E-04    0.55E-04    0.19E-06
   1     10    11.376    18.849    0.83E-04    0.11E-03    0.92E-07
   1     10    11.376    14.624    0.69E-04    0.92E-04    0.82E-07
 Optimization of the real space projectors (new method)

 maximal supplied QI-value         = 24.76
 optimisation between [QCUT,QGAM] = [ 11.39, 22.77] = [ 36.31,145.25] Ry 
 Optimized for a Real-space Cutoff    1.10 Angstroem

   l    n(q)    QCUT    max X(q) W(low)/X(q) W(high)/X(q)  e(spline) 
   0      7    11.387    20.381    0.22E-03    0.48E-03    0.18E-06
   0      7    11.387    15.268    0.22E-03    0.52E-03    0.19E-06
   1      7    11.387     5.964    0.22E-03    0.73E-03    0.24E-06
   1      7    11.387     5.382    0.19E-03    0.60E-03    0.21E-06

 ----------------------------------------------------------------------------- 
|                                                                             |
|  ADVICE TO THIS USER RUNNING 'VASP/VAMP'   (HEAR YOUR MASTER'S VOICE ...):  |
|                                                                             |
|      You enforced a specific xc-type in the INCAR file,                     |
|      a different type was found on the POTCAR file                          |
|          I HOPE YOU KNOW, WHAT YOU ARE  DOING                               |
|                                                                             |
 ----------------------------------------------------------------------------- 

  PAW_PBE Li_sv 10Sep2004               :
 energy of atom  1       EATOM= -202.7858
 kinetic energy error for atom=    0.0143 (will be added to EATOM!!)
  PAW_PBE Ni 02Aug2007                  :
 energy of atom  2       EATOM=-1077.6739
 kinetic energy error for atom=    0.0030 (will be added to EATOM!!)
  PAW_PBE O 08Apr2002                   :
 energy of atom  3       EATOM= -432.3788
 kinetic energy error for atom=    0.0224 (will be added to EATOM!!)
 
 
 POSCAR: ce14490_1                               
  positions in direct lattice
  No initial velocities read in
 exchange correlation table for  LEXCH =       14
   RHO(1)=    0.500       N(1)  =     2000
   RHO(2)=  100.500       N(2)  =     4000
 


--------------------------------------------------------------------------------------------------------


 ion  position               nearest neighbor table
   1  0.250  0.250  0.500-  49 2.11  45 2.11  27 2.14  37 2.15  25 2.17  39 2.17
   2  0.250  0.750  0.500-  50 2.11  46 2.11  28 2.14  38 2.15  26 2.17  40 2.17
   3  0.543  0.250  0.250-  36 2.04  48 2.04  39 2.06  53 2.07  13 2.80  20 2.80
   4  0.543  0.750  0.750-  35 2.04  47 2.04  40 2.06  54 2.07  12 2.80  21 2.80
   5  0.956  0.250  0.751-  32 2.03  52 2.04  43 2.06  25 2.08  12 2.79  21 2.80
   6  0.956  0.750  0.249-  31 2.03  51 2.04  44 2.06  26 2.08  13 2.79  20 2.80
   7  0.253  0.250  1.000-  29 2.11  33 2.11  55 2.14  41 2.15  53 2.16  43 2.18
   8  0.253  0.750  0.000-  30 2.11  34 2.11  56 2.14  42 2.15  54 2.16  44 2.18
   9  1.000  0.000  0.000-  35 1.84  36 1.84  33 1.85  34 1.85  43 2.10  44 2.10  14 2.75  14 2.77
                            13 2.85  12 2.85  10 2.85  11 2.85
  10  0.251  0.000  0.251-  39 1.82  44 1.82  27 1.87  56 1.87  50 2.04  33 2.04  13 2.76  13 2.76
                            16 2.84  15 2.84   9 2.85  14 2.85
  11  0.251  1.000  0.749-  40 1.82  43 1.82  28 1.87  55 1.87  49 2.04  34 2.04  12 2.76  12 2.76
                            16 2.84  15 2.84   9 2.85  14 2.85
  12  0.750  0.000  0.750-  40 1.84  43 1.85  55 1.88  28 1.88  52 1.93  35 1.94  11 2.76  11 2.76
                             5 2.79   4 2.80  15 2.84  16 2.84  14 2.84   9 2.85
  13  0.750  1.000  0.250-  39 1.84  44 1.85  56 1.88  27 1.88  51 1.93  36 1.94  10 2.76  10 2.76
                             6 2.79   3 2.80  15 2.84  16 2.84  14 2.84   9 2.85
  14  0.502  0.000  0.000-  35 1.84  36 1.84  33 1.84  34 1.84  55 1.89  56 1.89   9 2.75   9 2.77
                            13 2.84  12 2.84  10 2.85  11 2.85
  15  0.999  0.000  0.500-  49 1.84  50 1.84  51 1.85  52 1.85  27 1.89  28 1.89  16 2.76  16 2.76
                            13 2.84  12 2.84  11 2.84  10 2.84
  16  0.500  0.000  0.500-  51 1.84  52 1.84  49 1.85  50 1.85  39 2.11  40 2.11  15 2.76  15 2.76
                            11 2.84  10 2.84  12 2.84  13 2.84
  17  1.000  0.500  0.500-  47 1.84  48 1.84  45 1.85  46 1.85  25 2.10  26 2.10  22 2.75  22 2.77
                            21 2.84  20 2.84  19 2.84  18 2.84
  18  0.250  0.500  0.750-  25 1.82  54 1.83  42 1.86  37 1.86  29 2.04  46 2.04  21 2.76  21 2.76
                            17 2.84  24 2.85  23 2.85  22 2.85
  19  0.250  0.500  0.250-  26 1.82  53 1.83  41 1.86  38 1.86  30 2.04  45 2.04  20 2.76  20 2.76
                            17 2.84  24 2.85  23 2.85  22 2.85
  20  0.750  0.500  0.250-  26 1.85  53 1.85  41 1.88  38 1.88  31 1.93  48 1.93  19 2.76  19 2.76
                             6 2.80   3 2.80  22 2.84  23 2.84  24 2.84  17 2.84
  21  0.750  0.500  0.750-  25 1.85  54 1.85  42 1.88  37 1.88  32 1.93  47 1.93  18 2.76  18 2.76
                             5 2.80   4 2.80  22 2.84  23 2.84  24 2.84  17 2.84
  22  0.502  0.500  0.500-  45 1.85  46 1.85  47 1.85  48 1.85  37 1.88  38 1.88  17 2.75  17 2.77
                            21 2.84  20 2.84  19 2.85  18 2.85
  23  0.999  0.500  0.000-  29 1.84  30 1.84  31 1.85  32 1.85  41 1.88  42 1.88  24 2.75  24 2.77
                            21 2.84  20 2.84  19 2.85  18 2.85
  24  0.501  0.500  0.000-  31 1.84  32 1.84  29 1.85  30 1.85  53 2.10  54 2.10  23 2.75  23 2.77
                            20 2.84  21 2.84  18 2.85  19 2.85
  25  0.003  0.394  0.647-  18 1.82  21 1.85   5 2.08  17 2.10   1 2.17
  26  0.003  0.606  0.353-  19 1.82  20 1.85   6 2.08  17 2.10   2 2.17
  27  0.002  0.098  0.370-  10 1.87  13 1.88  15 1.89   1 2.14
  28  0.002  0.902  0.630-  11 1.87  12 1.88  15 1.89   2 2.14
  29  0.250  0.396  0.893-  23 1.84  24 1.85  18 2.04   7 2.11
  30  0.250  0.604  0.107-  23 1.84  24 1.85  19 2.04   8 2.11
  31  0.748  0.598  0.114-  24 1.84  23 1.85  20 1.93   6 2.03
  32  0.748  0.402  0.886-  24 1.84  23 1.85  21 1.93   5 2.03
  33  0.251  0.103  0.107-  14 1.84   9 1.85  10 2.04   7 2.11
  34  0.251  0.897  0.893-  14 1.84   9 1.85  11 2.04   8 2.11
  35  0.752  0.902  0.887-   9 1.84  14 1.84  12 1.94   4 2.04
  36  0.752  0.098  0.113-   9 1.84  14 1.84  13 1.94   3 2.04
  37  0.498  0.402  0.630-  18 1.86  22 1.88  21 1.88   1 2.15
  38  0.498  0.598  0.370-  19 1.86  22 1.88  20 1.88   2 2.15
  39  0.497  0.106  0.352-  10 1.82  13 1.84   3 2.06  16 2.11   1 2.17
  40  0.497  0.894  0.648-  11 1.82  12 1.84   4 2.06  16 2.11   2 2.17
  41  0.003  0.403  0.130-  19 1.86  23 1.88  20 1.88   7 2.15
  42  0.003  0.597  0.870-  18 1.86  23 1.88  21 1.88   8 2.15
  43  0.003  0.106  0.852-  11 1.82  12 1.85   5 2.06   9 2.10   7 2.18
  44  0.003  0.894  0.148-  10 1.82  13 1.85   6 2.06   9 2.10   8 2.18
  45  0.251  0.396  0.393-  17 1.85  22 1.85  19 2.04   1 2.11
  46  0.251  0.604  0.607-  17 1.85  22 1.85  18 2.04   2 2.11
  47  0.752  0.598  0.614-  17 1.84  22 1.85  21 1.93   4 2.04
  48  0.752  0.402  0.386-  17 1.84  22 1.85  20 1.93   3 2.04
  49  0.249  0.103  0.607-  15 1.84  16 1.85  11 2.04   1 2.11
  50  0.249  0.897  0.393-  15 1.84  16 1.85  10 2.04   2 2.11
  51  0.748  0.902  0.386-  16 1.84  15 1.85  13 1.93   6 2.04
  52  0.748  0.098  0.614-  16 1.84  15 1.85  12 1.93   5 2.04
  53  0.497  0.394  0.148-  19 1.83  20 1.85   3 2.07  24 2.10   7 2.16
  54  0.497  0.606  0.852-  18 1.83  21 1.85   4 2.07  24 2.10   8 2.16
  55  0.498  0.098  0.870-  11 1.87  12 1.88  14 1.89   7 2.14
  56  0.498  0.902  0.130-  10 1.87  13 1.88  14 1.89   8 2.14
 
  LATTYP: Found a simple monoclinic cell.
 ALAT       =    11.5777944687
 B/A-ratio  =     0.4768265906
 C/A-ratio  =     1.6788966075
 COS(beta)  =    -0.9055479471
  
  Lattice vectors:
  
 A1 = (  -6.3642570604,   0.0000000000,  -9.6716884167)
 A2 = (   0.0000000000,  -5.5206002630,   0.0000000000)
 A3 = (   2.7869428055,   0.0000000000,  19.2370912070)


Analysis of symmetry for initial positions (statically):
=====================================================================
 Subroutine PRICEL returns:
 Original cell was already a primitive cell.
 

 Routine SETGRP: Setting up the symmetry group for a 
 simple monoclinic supercell.


 Subroutine GETGRP returns: Found  2 space group operations
 (whereof  2 operations were pure point group operations)
 out of a pool of  4 trial point group operations.


The static configuration has the point symmetry C_2 .


Analysis of symmetry for dynamics (positions and initial velocities):
=====================================================================
 Subroutine PRICEL returns:
 Original cell was already a primitive cell.
 

 Routine SETGRP: Setting up the symmetry group for a 
 simple monoclinic supercell.


 Subroutine GETGRP returns: Found  2 space group operations
 (whereof  2 operations were pure point group operations)
 out of a pool of  4 trial point group operations.


The dynamic configuration has the point symmetry C_2 .


Analysis of structural, dynamic, and magnetic symmetry:
=====================================================================
 Subroutine PRICEL returns:
 Original cell was already a primitive cell.
 

 Routine SETGRP: Setting up the symmetry group for a 
 simple monoclinic supercell.


 Subroutine GETGRP returns: Found  2 space group operations
 (whereof  2 operations were pure point group operations)
 out of a pool of  4 trial point group operations.


The magnetic configuration has the point symmetry C_2 .


 Subroutine INISYM returns: Found  2 space group operations
 (whereof  2 operations are pure point group operations),
 and found     1 'primitive' translations

 
 
 KPOINTS: Automatic mesh                          

Automatic generation of k-mesh.
Space group operators:
 irot       det(A)        alpha          n_x          n_y          n_z        tau_x        tau_y        tau_z
    1     1.000000     0.000000     1.000000     0.000000     0.000000     0.000000     0.000000     0.000000
    2     1.000000   180.000000     0.000000     1.000000     0.000000     0.000000     0.000000     0.000000
 
 Subroutine IBZKPT returns following result:
 ===========================================
 
 Found      1 irreducible k-points:
 
 Following reciprocal coordinates:
            Coordinates               Weight
  0.000000  0.000000  0.000000      1.000000
 
 Following cartesian coordinates:
            Coordinates               Weight
  0.000000  0.000000  0.000000      1.000000
 


--------------------------------------------------------------------------------------------------------




 Dimension of arrays:
   k-points           NKPTS =      1   k-points in BZ     NKDIM =      1   number of bands    NBANDS=    256
   number of dos      NEDOS =    301   number of ions     NIONS =     56
   non local maximal  LDIM  =      6   non local SUM 2l+1 LMDIM =     18
   total plane-waves  NPLWV = 256000
   max r-space proj   IRMAX =   6570   max aug-charges    IRDMAX=  15941
   dimension x,y,z NGX =    40 NGY =   80 NGZ =   80
   dimension x,y,z NGXF=    80 NGYF=  160 NGZF=  160
   support grid    NGXF=    80 NGYF=  160 NGZF=  160
   ions per type =               8  16  32
   NGX,Y,Z   is equivalent  to a cutoff of  12.05, 13.02, 13.38 a.u.
   NGXF,Y,Z  is equivalent  to a cutoff of  24.09, 26.05, 26.75 a.u.

 SYSTEM =  unknown system                          
 POSCAR =  ce14490_1                               

 Startparameter for this run:
   NWRITE =      1    write-flag & timer
   PREC   = accura    normal or accurate (medium, high low for compatibility)
   ISTART =      0    job   : 0-new  1-cont  2-samecut
   ICHARG =      2    charge: 1-file 2-atom 10-const
   ISPIN  =      2    spin polarized calculation?
   LNONCOLLINEAR =      F non collinear calculations
   LSORBIT =      F    spin-orbit coupling
   INIWAV =      1    electr: 0-lowe 1-rand  2-diag
   LASPH  =      F    aspherical Exc in radial PAW
   METAGGA=      F    non-selfconsistent MetaGGA calc.

 Electronic Relaxation 1
   ENCUT  =  500.0 eV  36.75 Ry    6.06 a.u.  10.07 18.62 18.13*2*pi/ulx,y,z
   ENINI  =  500.0     initial cutoff
   ENAUG  =  628.9 eV  augmentation charge cutoff
   NELM   =     80;   NELMIN=  2; NELMDL= -5     # of ELM steps 
   EDIFF  = 0.1E-04   stopping-criterion for ELM
   LREAL  =      T    real-space projection
   NLSPLINE    = F    spline interpolate recip. space projectors
   LCOMPAT=      F    compatible to vasp.4.4
   GGA_COMPAT  = T    GGA compatible to vasp.4.4-vasp.4.6
   LMAXPAW     = -100 max onsite density
   LMAXMIX     =    2 max onsite mixed and CHGCAR
   VOSKOWN=      1    Vosko Wilk Nusair interpolation
   ROPT   =   -0.00025  -0.00025  -0.00025
 Ionic relaxation
   EDIFFG = -.2E-01   stopping-criterion for IOM
   NSW    =     20    number of steps for IOM
   NBLOCK =      1;   KBLOCK =     20    inner block; outer block 
   IBRION =      1    ionic relax: 0-MD 1-quasi-New 2-CG
   NFREE  =      0    steps in history (QN), initial steepest desc. (CG)
   ISIF   =      3    stress and relaxation
   IWAVPR =     11    prediction:  0-non 1-charg 2-wave 3-comb
   ISYM   =      2    0-nonsym 1-usesym 2-fastsym
   LCORR  =      T    Harris-Foulkes like correction to forces

   POTIM  = 0.5000    time-step for ionic-motion
   TEIN   =    0.0    initial temperature
   TEBEG  =    0.0;   TEEND  =   0.0 temperature during run
   SMASS  =  -3.00    Nose mass-parameter (am)
   estimated Nose-frequenzy (Omega)   =  0.10E-29 period in steps =****** mass=  -0.696E-27a.u.
   SCALEE = 1.0000    scale energy and forces
   NPACO  =    256;   APACO  = 16.0  distance and # of slots for P.C.
   PSTRESS=    0.0 pullay stress

  Mass of Ions in am
   POMASS =   7.01 58.69 16.00
  Ionic Valenz
   ZVAL   =   3.00 10.00  6.00
  Atomic Wigner-Seitz radii
   RWIGS  =   1.23  1.15  0.73
  virtual crystal weights 
   VCA    =   1.00  1.00  1.00
   NELECT =     376.0000    total number of electrons
   NUPDOWN=      -1.0000    fix difference up-down

 DOS related values:
   EMIN   =  10.00;   EMAX   =-10.00  energy-range for DOS
   EFERMI =   0.00
   ISMEAR =     0;   SIGMA  =   0.05  broadening in eV -4-tet -1-fermi 0-gaus

 Electronic relaxation 2 (details)
   IALGO  =     38    algorithm
   LDIAG  =      T    sub-space diagonalisation (order eigenvalues)
   LSUBROT=      F    optimize rotation matrix (better conditioning)
   TURBO    =      0    0=normal 1=particle mesh
   IRESTART =      0    0=no restart 2=restart with 2 vectors
   NREBOOT  =      0    no. of reboots
   NMIN     =      0    reboot dimension
   EREF     =   0.00    reference energy to select bands
   IMIX   =      4    mixing-type and parameters
     AMIX     =   0.40;   BMIX     =  1.00
     AMIX_MAG =   1.60;   BMIX_MAG =  1.00
     AMIN     =   0.10
     WC   =   100.;   INIMIX=   1;  MIXPRE=   1;  MAXMIX= -45

 Intra band minimization:
   WEIMIN = 0.0010     energy-eigenvalue tresh-hold
   EBREAK =  0.98E-08  absolut break condition
   DEPER  =   0.30     relativ break condition  

   TIME   =   0.40     timestep for ELM

  volume/ion in A,a.u.               =       9.41        63.52
  Fermi-wavevector in a.u.,A,eV,Ry     =   1.462777  2.764249 29.112629  2.139718
  Thomas-Fermi vector in A             =   2.578951
 
 Write flags
   LWAVE        =      F    write WAVECAR
   LDOWNSAMPLE  =      F    k-point downsampling of WAVECAR
   LCHARG       =      T    write CHGCAR
   LVTOT        =      F    write LOCPOT, total local potential
   LVHAR        =      F    write LOCPOT, Hartree potential only
   LELF         =      F    write electronic localiz. function (ELF)
   LORBIT       =      0    0 simple, 1 ext, 2 COOP (PROOUT), +10 PAW based schemes


 Dipole corrections
   LMONO  =      F    monopole corrections only (constant potential shift)
   LDIPOL =      F    correct potential (dipole corrections)
   IDIPOL =      0    1-x, 2-y, 3-z, 4-all directions 
   EPSILON=  1.0000000 bulk dielectric constant

 Exchange correlation treatment:
   GGA     =    PS    GGA type
   LEXCH   =    14    internal setting for exchange type
   VOSKOWN=      1    Vosko Wilk Nusair interpolation
   LHFCALC =     F    Hartree Fock is set to
   LHFONE  =     F    Hartree Fock one center treatment
   AEXX    =    0.0000 exact exchange contribution

 Linear response parameters
   LEPSILON=     F    determine dielectric tensor
   LRPA    =     F    only Hartree local field effects (RPA)
   LNABLA  =     F    use nabla operator in PAW spheres
   LVEL    =     F    velocity operator in full k-point grid
   LINTERFAST=   F  fast interpolation
   KINTER  =     0    interpolate to denser k-point grid
   CSHIFT  =0.1000    complex shift for real part using Kramers Kronig
   OMEGAMAX=  -1.0    maximum frequency
   DEG_THRESHOLD= 0.2000000E-02 threshold for treating states as degnerate
   RTIME   =   -0.100 relaxation time in fs
  (WPLASMAI=    0.000 imaginary part of plasma frequency in eV, 0.658/RTIME)
   DFIELD  = 0.0000000 0.0000000 0.0000000 field for delta impulse in time
 
 Orbital magnetization related:
   ORBITALMAG=     F  switch on orbital magnetization
   LCHIMAG   =     F  perturbation theory with respect to B field
   DQ        =  0.001000  dq finite difference perturbation B field
   LLRAUG    =     F  two centre corrections for induced B field



--------------------------------------------------------------------------------------------------------


 quasi-Newton-method for relaxation of ions
 charge density and potential will be updated during run
 spin polarized calculation
 Variant of blocked Davidson
 Davidson routine will perform the subspace rotation
 perform sub-space diagonalisation
    after iterative eigenvector-optimisation
 modified Broyden-mixing scheme, WC =      100.0
 initial mixing is a Kerker type mixing with AMIX =  0.4000 and BMIX =      1.0000
 Hartree-type preconditioning will be used
 using additional bands           68
 real space projection scheme for non local part
 use partial core corrections
 calculate Harris-corrections to forces 
   (improved forces if not selfconsistent)
 use gradient corrections 
 use of overlap-Matrix (Vanderbilt PP)
 Gauss-broadening in eV      SIGMA  =   0.05


--------------------------------------------------------------------------------------------------------


  energy-cutoff  :      500.00
  volume of cell :      527.08
      direct lattice vectors                 reciprocal lattice vectors
     0.000000000  5.520600263  0.000000000     0.000000000  0.181139723  0.000000000
    -3.577314255  0.000000000  9.565402790    -0.001113226  0.000000000  0.104127099
     9.941571315  0.000000000  0.106285626     0.100187144  0.000000000  0.037468459

  length of vectors
     5.520600263 10.212448669  9.942139450     0.181139723  0.104133049  0.106964243


 
 k-points in units of 2pi/SCALE and weight: Automatic mesh                          
   0.00000000  0.00000000  0.00000000       1.000
 
 k-points in reciprocal lattice and weights: Automatic mesh                          
   0.00000000  0.00000000  0.00000000       1.000
 
 position of ions in fractional coordinates (direct lattice) 
   0.24976115  0.24978764  0.50002272
   0.24976115  0.75021236  0.49997728
   0.54349490  0.24994075  0.24988017
   0.54349490  0.75005925  0.75011983
   0.95649293  0.24971211  0.75053388
   0.95649293  0.75028789  0.24946612
   0.25263294  0.25013692  0.99963916
   0.25263294  0.74986308  0.00036084
   0.99986646  0.00000000  0.00000000
   0.25054435  0.00047760  0.25051678
   0.25054435  0.99952240  0.74948322
   0.74983454  0.00004044  0.74957873
   0.74983454  0.99995956  0.25042127
   0.50230554  0.00000000  0.00000000
   0.99911643  0.00000000  0.50000000
   0.49981428  0.00000000  0.50000000
   0.99965940  0.50000000  0.50000000
   0.25017688  0.49976115  0.74983673
   0.25017688  0.50023885  0.25016327
   0.75028462  0.50024680  0.24997210
   0.75028462  0.49975320  0.75002790
   0.50222151  0.50000000  0.50000000
   0.99945524  0.50000000  0.00000000
   0.50068363  0.50000000  0.00000000
   0.00294517  0.39368311  0.64727145
   0.00294517  0.60631689  0.35272855
   0.00236620  0.09821002  0.37006396
   0.00236620  0.90178998  0.62993604
   0.24964255  0.39639876  0.89282612
   0.24964255  0.60360124  0.10717388
   0.74841124  0.59778113  0.11396393
   0.74841124  0.40221887  0.88603607
   0.25129614  0.10346006  0.10704539
   0.25129614  0.89653994  0.89295461
   0.75187366  0.90226365  0.88658080
   0.75187366  0.09773635  0.11341920
   0.49783419  0.40243618  0.63006291
   0.49783419  0.59756382  0.36993709
   0.49743388  0.10649673  0.35207049
   0.49743388  0.89350327  0.64792951
   0.00285145  0.40269155  0.13030059
   0.00285145  0.59730845  0.86969941
   0.00292748  0.10586682  0.85168131
   0.00292748  0.89413318  0.14831869
   0.25092671  0.39636603  0.39279800
   0.25092671  0.60363397  0.60720200
   0.75239895  0.59751880  0.61413438
   0.75239895  0.40248120  0.38586562
   0.24880734  0.10340908  0.60715131
   0.24880734  0.89659092  0.39284869
   0.74806615  0.90240788  0.38611213
   0.74806615  0.09759212  0.61388787
   0.49748440  0.39390371  0.14751061
   0.49748440  0.60609629  0.85248939
   0.49826252  0.09763527  0.86955982
   0.49826252  0.90236473  0.13044018
 
 position of ions in cartesian coordinates  (Angst):
   4.07744264  1.37883147  2.44246462
   2.28681442  1.37883147  7.22922380
   1.59008492  3.00041809  2.41734262
   4.77417214  3.00041809  7.25434580
   6.56818740  5.28041512  2.46836788
  -0.20393034  5.28041512  7.20332054
   9.04316563  1.39468548  2.49890767
  -2.67890857  1.39468548  7.17278075
   0.00000000  5.51986304  0.00000000
   2.48882191  1.38315520  0.03119477
   3.87543515  1.38315520  9.64049365
   7.45184573  4.13953676  0.08005627
  -1.08758867  4.13953676  9.59163215
   0.00000000  2.77302810  0.00000000
   4.97078566  5.51572243  0.05314281
   4.97078566  2.75927485  0.05314281
   3.18212853  5.51871995  4.83584421
   5.66675264  1.38112655  4.86011357
   0.69750442  1.38112655  4.81157485
   0.69557545  4.14202147  4.81163058
   5.66868161  4.14202147  4.86005784
   3.18212853  2.77256420  4.83584421
  -1.78865713  5.51759286  4.78270140
  -1.78865713  2.76407418  4.78270140
   5.02656708  0.01625911  3.83453317
   1.33768998  0.01625911  5.83715525
   3.32768915  0.01306284  0.97875088
   3.03656792  0.01306284  8.69293754
   7.45805161  1.37817673  3.88660839
  -1.09379455  1.37817673  5.78508003
  -1.00547042  4.13167929  5.73013002
   7.36972748  4.13167929  3.94155840
   0.69409023  1.38730554  1.00101453
   5.67016683  1.38730554  8.67067388
   5.58632563  4.15079393  8.72474603
   0.77793143  4.15079393  0.94694239
   4.82417467  2.74834356  3.91643079
   1.54008239  2.74834356  5.75525763
   3.11916161  2.74613361  1.05610415
   3.24509545  2.74613361  8.61558427
  -0.14516161  0.01574172  3.86575596
   6.50941867  0.01574172  5.80593246
   8.08833160  0.01616145  1.10318026
  -1.72407454  0.01616145  8.56850816
   2.48710348  1.38526606  3.83314951
   3.87715358  1.38526606  5.83853891
   3.96794822  4.15369384  5.78078165
   2.39630885  4.15369384  3.89090676
   5.66611127  1.37356587  1.05368096
   0.69814579  1.37356587  8.61800746
   0.61036470  4.12977418  8.67293302
   5.75389236  4.12977418  0.99875539
   0.05736989  2.74641251  3.78352590
   6.30688717  2.74641251  5.88816251
   8.29551892  2.75070820  1.02634239
  -1.93126186  2.75070820  8.64534602
 


--------------------------------------------------------------------------------------------------------


 use serial FFT for orbitals x direction half grid
 k-point  1 :   0.0000 0.0000 0.0000  plane waves:    6680

 maximum and minimum number of plane-waves per node :      6680     6680

 maximum number of plane-waves:      6680
 maximum index in each direction: 
   IXMAX=   10   IYMAX=   18   IZMAX=   18
   IXMIN=    0   IYMIN=  -18   IZMIN=  -18

 The following grids will avoid any aliasing or wrap around errors in the Hartre
 e energy
  - symmetry arguments have not been applied
  - exchange correlation energies might require even more grid points
  - we recommend to set PREC=Normal or Accurate and rely on VASP defaults
 WARNING: aliasing errors must be expected set NGX to    42 to avoid them
 NGY is ok and might be reduce to    80
 NGZ is ok and might be reduce to    80

 serial   3D FFT for wavefunctions
 parallel 3D FFT for charge:
    minimum data exchange during FFTs selected (reduces bandwidth)


 total amount of memory used by VASP MPI-rank0    94687. kBytes
=======================================================================

   base      :      30000. kBytes
   nonlr-proj:      22863. kBytes
   fftplans  :       5418. kBytes
   grid      :      31961. kBytes
   one-center:        870. kBytes
   wavefun   :       3575. kBytes
 
     INWAV:  cpu time    0.0000: real time    0.0000
 Broyden mixing: mesh for mixing (old mesh)
   NGX = 21   NGY = 37   NGZ = 37
  (NGX  = 80   NGY  =160   NGZ  =160)
  gives a total of  28749 points

 initial charge density was supplied:
 charge density of overlapping atoms calculated
 number of electron     376.0000000 magnetization      40.0000000
 keeping initial charge density in first step


--------------------------------------------------------------------------------------------------------


 Maximum index for non-local projection operator         6353
 Maximum index for augmentation-charges         1104 (set IRDMAX)


--------------------------------------------------------------------------------------------------------


 First call to EWALD:  gamma=   0.219
 Maximum number of real-space cells 4x 2x 2
 Maximum number of reciprocal cells 2x 3x 3

    FEWALD:  cpu time    0.0023: real time    0.0023


--------------------------------------- Iteration      1(   1)  ---------------------------------------


    POTLOK:  cpu time    0.1603: real time    0.1630
    SETDIJ:  cpu time    0.0192: real time    0.0192
     EDDAV:  cpu time    1.8427: real time    1.8471
    --------------------------------------------
      LOOP:  cpu time    2.0226: real time    2.0298

 eigenvalue-minimisations  :  1024
 total energy-change (2. order) : 0.6557143E+04  (-0.1653370E+05)
 number of electron     376.0000000 magnetization      40.0000000
 augmentation part      376.0000000 magnetization      40.0000000

 Free energy of the ion-electron system (eV)
  ---------------------------------------------------
  alpha Z        PSCENC =      1154.55380118
  Ewald energy   TEWEN  =    -21734.62198779
  -Hartree energ DENC   =    -11573.46459407
  -exchange      EXHF   =         0.00000000
  -V(xc)+E(xc)   XCENC  =      1529.59537945
  PAW double counting   =     27101.85202496   -28339.33826434
  entropy T*S    EENTRO =        -0.00422120
  eigenvalues    EBANDS =      5796.75994627
  atomic energy  EATOM  =     32621.81107809
  Solvation  Ediel_sol  =         0.00000000
  ---------------------------------------------------
  free energy    TOTEN  =      6557.14316255 eV

  energy without entropy =     6557.14738375  energy(sigma->0) =     6557.14527315


--------------------------------------------------------------------------------------------------------




--------------------------------------- Iteration      1(   2)  ---------------------------------------


     EDDAV:  cpu time    1.8905: real time    1.8950
    --------------------------------------------
      LOOP:  cpu time    1.8904: real time    1.8949

 eigenvalue-minimisations  :  1072
 total energy-change (2. order) :-0.5299940E+04  (-0.4756787E+04)
 number of electron     376.0000000 magnetization      40.0000000
 augmentation part      376.0000000 magnetization      40.0000000

 Free energy of the ion-electron system (eV)
  ---------------------------------------------------
  alpha Z        PSCENC =      1154.55380118
  Ewald energy   TEWEN  =    -21734.62198779
  -Hartree energ DENC   =    -11573.46459407
  -exchange      EXHF   =         0.00000000
  -V(xc)+E(xc)   XCENC  =      1529.59537945
  PAW double counting   =     27101.85202496   -28339.33826434
  entropy T*S    EENTRO =        -0.01749243
  eigenvalues    EBANDS =       496.83355691
  atomic energy  EATOM  =     32621.81107809
  Solvation  Ediel_sol  =         0.00000000
  ---------------------------------------------------
  free energy    TOTEN  =      1257.20350196 eV

  energy without entropy =     1257.22099440  energy(sigma->0) =     1257.21224818


--------------------------------------------------------------------------------------------------------




--------------------------------------- Iteration      1(   3)  ---------------------------------------


     EDDAV:  cpu time    2.0067: real time    2.0114
    --------------------------------------------
      LOOP:  cpu time    2.0067: real time    2.0115

 eigenvalue-minimisations  :  1168
 total energy-change (2. order) :-0.1472023E+04  (-0.1212981E+04)
 number of electron     376.0000000 magnetization      40.0000000
 augmentation part      376.0000000 magnetization      40.0000000

 Free energy of the ion-electron system (eV)
  ---------------------------------------------------
  alpha Z        PSCENC =      1154.55380118
  Ewald energy   TEWEN  =    -21734.62198779
  -Hartree energ DENC   =    -11573.46459407
  -exchange      EXHF   =         0.00000000
  -V(xc)+E(xc)   XCENC  =      1529.59537945
  PAW double counting   =     27101.85202496   -28339.33826434
  entropy T*S    EENTRO =        -0.07316184
  eigenvalues    EBANDS =      -975.13361344
  atomic energy  EATOM  =     32621.81107809
  Solvation  Ediel_sol  =         0.00000000
  ---------------------------------------------------
  free energy    TOTEN  =      -214.81933779 eV

  energy without entropy =     -214.74617596  energy(sigma->0) =     -214.78275688


--------------------------------------------------------------------------------------------------------




--------------------------------------- Iteration      1(   4)  ---------------------------------------


     EDDAV:  cpu time    2.1975: real time    2.2027
    --------------------------------------------
      LOOP:  cpu time    2.1976: real time    2.2028

 eigenvalue-minimisations  :  1264
 total energy-change (2. order) :-0.2284073E+03  (-0.2216265E+03)
 number of electron     376.0000000 magnetization      40.0000000
 augmentation part      376.0000000 magnetization      40.0000000

 Free energy of the ion-electron system (eV)
  ---------------------------------------------------
  alpha Z        PSCENC =      1154.55380118
  Ewald energy   TEWEN  =    -21734.62198779
  -Hartree energ DENC   =    -11573.46459407
  -exchange      EXHF   =         0.00000000
  -V(xc)+E(xc)   XCENC  =      1529.59537945
  PAW double counting   =     27101.85202496   -28339.33826434
  entropy T*S    EENTRO =        -0.13799971
  eigenvalues    EBANDS =     -1203.47608225
  atomic energy  EATOM  =     32621.81107809
  Solvation  Ediel_sol  =         0.00000000
  ---------------------------------------------------
  free energy    TOTEN  =      -443.22664448 eV

  energy without entropy =     -443.08864477  energy(sigma->0) =     -443.15764462


--------------------------------------------------------------------------------------------------------




--------------------------------------- Iteration      1(   5)  ---------------------------------------


     EDDAV:  cpu time    2.6674: real time    2.6737
    CHARGE:  cpu time    0.1479: real time    0.1482
    MIXING:  cpu time    0.0040: real time    0.0041
    --------------------------------------------
      LOOP:  cpu time    2.8189: real time    2.8256

 eigenvalue-minimisations  :  1632
 total energy-change (2. order) :-0.1016509E+02  (-0.1007677E+02)
 number of electron     376.0000074 magnetization      38.4398422
 augmentation part      112.0227170 magnetization      29.7809066

 Broyden mixing:
  rms(total) = 0.11590E+02    rms(broyden)= 0.11589E+02
  rms(prec ) = 0.14082E+02
  weight for this iteration     100.00

 Free energy of the ion-electron system (eV)
  ---------------------------------------------------
  alpha Z        PSCENC =      1154.55380118
  Ewald energy   TEWEN  =    -21734.62198779
  -Hartree energ DENC   =    -11573.46459407
  -exchange      EXHF   =         0.00000000
  -V(xc)+E(xc)   XCENC  =      1529.59537945
  PAW double counting   =     27101.85202496   -28339.33826434
  entropy T*S    EENTRO =        -0.13825140
  eigenvalues    EBANDS =     -1213.64091581
  atomic energy  EATOM  =     32621.81107809
  Solvation  Ediel_sol  =         0.00000000
  ---------------------------------------------------
  free energy    TOTEN  =      -453.39172973 eV

  energy without entropy =     -453.25347833  energy(sigma->0) =     -453.32260403


--------------------------------------------------------------------------------------------------------




--------------------------------------- Iteration      1(   6)  ---------------------------------------


    POTLOK:  cpu time    0.1357: real time    0.1360
    SETDIJ:  cpu time    0.0203: real time    0.0203
     EDDAV:  cpu time    2.4834: real time    2.4893
    CHARGE:  cpu time    0.1361: real time    0.1364
    MIXING:  cpu time    0.0036: real time    0.0036
    --------------------------------------------
      LOOP:  cpu time    2.7790: real time    2.7857

 eigenvalue-minimisations  :  1488
 total energy-change (2. order) :-0.4987447E+02  (-0.1079883E+03)
 number of electron     376.0000090 magnetization      33.5676829
 augmentation part      141.0917538 magnetization      29.5994155

 Broyden mixing:
  rms(total) = 0.19291E+02    rms(broyden)= 0.19290E+02
  rms(prec ) = 0.20952E+02
  weight for this iteration     100.00

 eigenvalues of (default mixing * dielectric matrix)
  average eigenvalue GAMMA=   0.2324
  0.2324

 Free energy of the ion-electron system (eV)
  ---------------------------------------------------
  alpha Z        PSCENC =      1154.55380118
  Ewald energy   TEWEN  =    -21734.62198779
  -Hartree energ DENC   =    -11067.46668214
  -exchange      EXHF   =         0.00000000
  -V(xc)+E(xc)   XCENC  =      1534.40662372
  PAW double counting   =     29996.71574887   -31063.97162798
  entropy T*S    EENTRO =        -0.04783315
  eigenvalues    EBANDS =     -1944.64532078
  atomic energy  EATOM  =     32621.81107809
  Solvation  Ediel_sol  =         0.00000000
  ---------------------------------------------------
  free energy    TOTEN  =      -503.26619997 eV

  energy without entropy =     -503.21836682  energy(sigma->0) =     -503.24228340


--------------------------------------------------------------------------------------------------------




--------------------------------------- Iteration      1(   7)  ---------------------------------------


    POTLOK:  cpu time    0.1337: real time    0.1340
    SETDIJ:  cpu time    0.0199: real time    0.0199
     EDDAV:  cpu time    2.2914: real time    2.2969
    CHARGE:  cpu time    0.1441: real time    0.1444
    MIXING:  cpu time    0.0034: real time    0.0035
    --------------------------------------------
      LOOP:  cpu time    2.5925: real time    2.5987

 eigenvalue-minimisations  :  1344
 total energy-change (2. order) : 0.1359389E+03  (-0.2850128E+02)
 number of electron     376.0000086 magnetization      22.8364840
 augmentation part      130.5394450 magnetization      22.4582240

 Broyden mixing:
  rms(total) = 0.67658E+01    rms(broyden)= 0.67655E+01
  rms(prec ) = 0.78838E+01
  weight for this iteration     100.00

 eigenvalues of (default mixing * dielectric matrix)
  average eigenvalue GAMMA=   0.5798
  0.5798  0.5798

 Free energy of the ion-electron system (eV)
  ---------------------------------------------------
  alpha Z        PSCENC =      1154.55380118
  Ewald energy   TEWEN  =    -21734.62198779
  -Hartree energ DENC   =    -11255.47336676
  -exchange      EXHF   =         0.00000000
  -V(xc)+E(xc)   XCENC  =      1526.87376512
  PAW double counting   =     31247.03849068   -32433.93437599
  entropy T*S    EENTRO =        -0.05459315
  eigenvalues    EBANDS =     -1493.52014522
  atomic energy  EATOM  =     32621.81107809
  Solvation  Ediel_sol  =         0.00000000
  ---------------------------------------------------
  free energy    TOTEN  =      -367.32733383 eV

  energy without entropy =     -367.27274068  energy(sigma->0) =     -367.30003725


--------------------------------------------------------------------------------------------------------




--------------------------------------- Iteration      1(   8)  ---------------------------------------


    POTLOK:  cpu time    0.1367: real time    0.1370
    SETDIJ:  cpu time    0.0199: real time    0.0200
     EDDAV:  cpu time    2.3980: real time    2.4037
    CHARGE:  cpu time    0.1457: real time    0.1460
    MIXING:  cpu time    0.0038: real time    0.0038
    --------------------------------------------
      LOOP:  cpu time    2.7040: real time    2.7104

 eigenvalue-minimisations  :  1440
 total energy-change (2. order) :-0.1194385E+02  (-0.1334645E+02)
 number of electron     376.0000087 magnetization      20.0325909
 augmentation part      120.5181411 magnetization      18.3216875

 Broyden mixing:
  rms(total) = 0.12996E+02    rms(broyden)= 0.12996E+02
  rms(prec ) = 0.17158E+02
  weight for this iteration     100.00

 eigenvalues of (default mixing * dielectric matrix)
  average eigenvalue GAMMA=   0.4468
  0.6109  0.6109  0.1187

 Free energy of the ion-electron system (eV)
  ---------------------------------------------------
  alpha Z        PSCENC =      1154.55380118
  Ewald energy   TEWEN  =    -21734.62198779
  -Hartree energ DENC   =    -11281.85044792
  -exchange      EXHF   =         0.00000000
  -V(xc)+E(xc)   XCENC  =      1519.49376995
  PAW double counting   =     32490.44523975   -33740.74603321
  entropy T*S    EENTRO =        -0.03742415
  eigenvalues    EBANDS =     -1408.31918276
  atomic energy  EATOM  =     32621.81107809
  Solvation  Ediel_sol  =         0.00000000
  ---------------------------------------------------
  free energy    TOTEN  =      -379.27118686 eV

  energy without entropy =     -379.23376271  energy(sigma->0) =     -379.25247479


--------------------------------------------------------------------------------------------------------




--------------------------------------- Iteration      1(   9)  ---------------------------------------


    POTLOK:  cpu time    0.1348: real time    0.1352
    SETDIJ:  cpu time    0.0203: real time    0.0204
     EDDAV:  cpu time    2.3698: real time    2.3754
    CHARGE:  cpu time    0.1443: real time    0.1447
    MIXING:  cpu time    0.0044: real time    0.0044
    --------------------------------------------
      LOOP:  cpu time    2.6737: real time    2.6800

 eigenvalue-minimisations  :  1424
 total energy-change (2. order) : 0.3400281E+02  (-0.1326672E+02)
 number of electron     376.0000095 magnetization      11.3966467
 augmentation part      123.6447745 magnetization      10.0351976

 Broyden mixing:
  rms(total) = 0.25015E+01    rms(broyden)= 0.24999E+01
  rms(prec ) = 0.30364E+01
  weight for this iteration     100.00

 eigenvalues of (default mixing * dielectric matrix)
  average eigenvalue GAMMA=   0.6056
  1.2112  0.5455  0.5455  0.1204

 Free energy of the ion-electron system (eV)
  ---------------------------------------------------
  alpha Z        PSCENC =      1154.55380118
  Ewald energy   TEWEN  =    -21734.62198779
  -Hartree energ DENC   =    -11280.24239599
  -exchange      EXHF   =         0.00000000
  -V(xc)+E(xc)   XCENC  =      1518.45927998
  PAW double counting   =     32932.14382258   -34195.95318214
  entropy T*S    EENTRO =        -0.03767956
  eigenvalues    EBANDS =     -1361.38111659
  atomic energy  EATOM  =     32621.81107809
  Solvation  Ediel_sol  =         0.00000000
  ---------------------------------------------------
  free energy    TOTEN  =      -345.26838024 eV

  energy without entropy =     -345.23070068  energy(sigma->0) =     -345.24954046


--------------------------------------------------------------------------------------------------------




--------------------------------------- Iteration      1(  10)  ---------------------------------------


    POTLOK:  cpu time    0.1412: real time    0.1415
    SETDIJ:  cpu time    0.0205: real time    0.0206
     EDDAV:  cpu time    2.4329: real time    2.4387
    CHARGE:  cpu time    0.1488: real time    0.1492
    MIXING:  cpu time    0.0044: real time    0.0044
    --------------------------------------------
      LOOP:  cpu time    2.7479: real time    2.7544

 eigenvalue-minimisations  :  1472
 total energy-change (2. order) :-0.5182887E+00  (-0.2581684E+01)
 number of electron     376.0000092 magnetization       8.6199833
 augmentation part      125.1173822 magnetization       6.7824849

 Broyden mixing:
  rms(total) = 0.28638E+01    rms(broyden)= 0.28629E+01
  rms(prec ) = 0.34816E+01
  weight for this iteration     100.00

 eigenvalues of (default mixing * dielectric matrix)
  average eigenvalue GAMMA=   0.6063
  1.4319  0.5395  0.5395  0.4074  0.1132

 Free energy of the ion-electron system (eV)
  ---------------------------------------------------
  alpha Z        PSCENC =      1154.55380118
  Ewald energy   TEWEN  =    -21734.62198779
  -Hartree energ DENC   =    -11252.62164968
  -exchange      EXHF   =         0.00000000
  -V(xc)+E(xc)   XCENC  =      1517.11470458
  PAW double counting   =     34226.33337855   -35505.44828871
  entropy T*S    EENTRO =        -0.03738516
  eigenvalues    EBANDS =     -1372.87032004
  atomic energy  EATOM  =     32621.81107809
  Solvation  Ediel_sol  =         0.00000000
  ---------------------------------------------------
  free energy    TOTEN  =      -345.78666897 eV

  energy without entropy =     -345.74928381  energy(sigma->0) =     -345.76797639


--------------------------------------------------------------------------------------------------------




--------------------------------------- Iteration      1(  11)  ---------------------------------------


    POTLOK:  cpu time    0.1353: real time    0.1357
    SETDIJ:  cpu time    0.0204: real time    0.0205
     EDDAV:  cpu time    2.1935: real time    2.1987
    CHARGE:  cpu time    0.1318: real time    0.1321
    MIXING:  cpu time    0.0036: real time    0.0036
    --------------------------------------------
      LOOP:  cpu time    2.4846: real time    2.4905

 eigenvalue-minimisations  :  1296
 total energy-change (2. order) :-0.3889404E+00  (-0.1836806E+01)
 number of electron     376.0000094 magnetization       6.3459459
 augmentation part      124.3125186 magnetization       5.2853075

 Broyden mixing:
  rms(total) = 0.20663E+01    rms(broyden)= 0.20654E+01
  rms(prec ) = 0.27622E+01
  weight for this iteration     100.00

 eigenvalues of (default mixing * dielectric matrix)
  average eigenvalue GAMMA=   0.6046
  1.6136  0.5837  0.5837  0.5198  0.1141  0.2130

 Free energy of the ion-electron system (eV)
  ---------------------------------------------------
  alpha Z        PSCENC =      1154.55380118
  Ewald energy   TEWEN  =    -21734.62198779
  -Hartree energ DENC   =    -11271.27597490
  -exchange      EXHF   =         0.00000000
  -V(xc)+E(xc)   XCENC  =      1517.27784355
  PAW double counting   =     34736.32558850   -36026.06000911
  entropy T*S    EENTRO =        -0.02817323
  eigenvalues    EBANDS =     -1344.15777562
  atomic energy  EATOM  =     32621.81107809
  Solvation  Ediel_sol  =         0.00000000
  ---------------------------------------------------
  free energy    TOTEN  =      -346.17560932 eV

  energy without entropy =     -346.14743609  energy(sigma->0) =     -346.16152271


--------------------------------------------------------------------------------------------------------




--------------------------------------- Iteration      1(  12)  ---------------------------------------


    POTLOK:  cpu time    0.1282: real time    0.1285
    SETDIJ:  cpu time    0.0202: real time    0.0202
     EDDAV:  cpu time    2.0802: real time    2.0851
    CHARGE:  cpu time    0.1376: real time    0.1379
    MIXING:  cpu time    0.0045: real time    0.0045
    --------------------------------------------
      LOOP:  cpu time    2.3707: real time    2.3763

 eigenvalue-minimisations  :  1232
 total energy-change (2. order) :-0.1494075E+01  (-0.2163844E+01)
 number of electron     376.0000093 magnetization       4.8005612
 augmentation part      123.9321628 magnetization       3.7554355

 Broyden mixing:
  rms(total) = 0.24531E+01    rms(broyden)= 0.24523E+01
  rms(prec ) = 0.32726E+01
  weight for this iteration     100.00

 eigenvalues of (default mixing * dielectric matrix)
  average eigenvalue GAMMA=   0.5699
  1.6831  0.6126  0.6126  0.4924  0.3387  0.1126  0.1377

 Free energy of the ion-electron system (eV)
  ---------------------------------------------------
  alpha Z        PSCENC =      1154.55380118
  Ewald energy   TEWEN  =    -21734.62198779
  -Hartree energ DENC   =    -11282.01054338
  -exchange      EXHF   =         0.00000000
  -V(xc)+E(xc)   XCENC  =      1517.42039587
  PAW double counting   =     35122.21310116   -36418.22640948
  entropy T*S    EENTRO =        -0.01289812
  eigenvalues    EBANDS =     -1328.79622219
  atomic energy  EATOM  =     32621.81107809
  Solvation  Ediel_sol  =         0.00000000
  ---------------------------------------------------
  free energy    TOTEN  =      -347.66968467 eV

  energy without entropy =     -347.65678655  energy(sigma->0) =     -347.66323561


--------------------------------------------------------------------------------------------------------




--------------------------------------- Iteration      1(  13)  ---------------------------------------


    POTLOK:  cpu time    0.1332: real time    0.1336
    SETDIJ:  cpu time    0.0199: real time    0.0200
     EDDAV:  cpu time    2.0665: real time    2.0714
    CHARGE:  cpu time    0.1317: real time    0.1320
    MIXING:  cpu time    0.0044: real time    0.0044
    --------------------------------------------
      LOOP:  cpu time    2.3558: real time    2.3614

 eigenvalue-minimisations  :  1264
 total energy-change (2. order) : 0.1935571E+01  (-0.8836930E+00)
 number of electron     376.0000094 magnetization       3.1473116
 augmentation part      124.2899189 magnetization       2.0022001

 Broyden mixing:
  rms(total) = 0.13312E+01    rms(broyden)= 0.13303E+01
  rms(prec ) = 0.16754E+01
  weight for this iteration     100.00

 eigenvalues of (default mixing * dielectric matrix)
  average eigenvalue GAMMA=   0.6239
  1.9211  0.8106  0.8106  0.4902  0.4902  0.2235  0.1131  0.1321

 Free energy of the ion-electron system (eV)
  ---------------------------------------------------
  alpha Z        PSCENC =      1154.55380118
  Ewald energy   TEWEN  =    -21734.62198779
  -Hartree energ DENC   =    -11281.36046123
  -exchange      EXHF   =         0.00000000
  -V(xc)+E(xc)   XCENC  =      1517.40153199
  PAW double counting   =     35369.07820406   -36665.77633200
  entropy T*S    EENTRO =        -0.05683571
  eigenvalues    EBANDS =     -1326.76311207
  atomic energy  EATOM  =     32621.81107809
  Solvation  Ediel_sol  =         0.00000000
  ---------------------------------------------------
  free energy    TOTEN  =      -345.73411347 eV

  energy without entropy =     -345.67727776  energy(sigma->0) =     -345.70569562


--------------------------------------------------------------------------------------------------------




--------------------------------------- Iteration      1(  14)  ---------------------------------------


    POTLOK:  cpu time    0.1358: real time    0.1361
    SETDIJ:  cpu time    0.0203: real time    0.0203
     EDDAV:  cpu time    1.7095: real time    1.7136
    CHARGE:  cpu time    0.1192: real time    0.1194
    MIXING:  cpu time    0.0044: real time    0.0044
    --------------------------------------------
      LOOP:  cpu time    1.9891: real time    1.9938

 eigenvalue-minimisations  :  1296
 total energy-change (2. order) :-0.6826590E+00  (-0.1181230E+01)
 number of electron     376.0000094 magnetization       2.1730522
 augmentation part      124.4130256 magnetization       1.6170692

 Broyden mixing:
  rms(total) = 0.17974E+01    rms(broyden)= 0.17968E+01
  rms(prec ) = 0.24861E+01
  weight for this iteration     100.00

 eigenvalues of (default mixing * dielectric matrix)
  average eigenvalue GAMMA=   0.6112
  2.1033  0.8732  0.8732  0.5017  0.5017  0.2502  0.1635  0.1124  0.1214

 Free energy of the ion-electron system (eV)
  ---------------------------------------------------
  alpha Z        PSCENC =      1154.55380118
  Ewald energy   TEWEN  =    -21734.62198779
  -Hartree energ DENC   =    -11280.87557535
  -exchange      EXHF   =         0.00000000
  -V(xc)+E(xc)   XCENC  =      1517.35849052
  PAW double counting   =     35684.32840884   -36982.26653447
  entropy T*S    EENTRO =        -0.02882554
  eigenvalues    EBANDS =     -1326.67562798
  atomic energy  EATOM  =     32621.81107809
  Solvation  Ediel_sol  =         0.00000000
  ---------------------------------------------------
  free energy    TOTEN  =      -346.41677251 eV

  energy without entropy =     -346.38794697  energy(sigma->0) =     -346.40235974


--------------------------------------------------------------------------------------------------------




--------------------------------------- Iteration      1(  15)  ---------------------------------------


    POTLOK:  cpu time    0.1242: real time    0.1245
    SETDIJ:  cpu time    0.0196: real time    0.0196
     EDDAV:  cpu time    1.6319: real time    1.6357
    CHARGE:  cpu time    0.1241: real time    0.1244
    MIXING:  cpu time    0.0051: real time    0.0051
    --------------------------------------------
      LOOP:  cpu time    1.9048: real time    1.9093

 eigenvalue-minimisations  :  1168
 total energy-change (2. order) : 0.7423944E+00  (-0.5552519E+00)
 number of electron     376.0000095 magnetization       2.1090256
 augmentation part      124.5273454 magnetization       1.2710902

 Broyden mixing:
  rms(total) = 0.10574E+01    rms(broyden)= 0.10563E+01
  rms(prec ) = 0.14466E+01
  weight for this iteration     100.00

 eigenvalues of (default mixing * dielectric matrix)
  average eigenvalue GAMMA=   0.5782
  2.0767  0.8905  0.8905  0.4960  0.4960  0.3756  0.2138  0.1306  0.1129  0.0990

 Free energy of the ion-electron system (eV)
  ---------------------------------------------------
  alpha Z        PSCENC =      1154.55380118
  Ewald energy   TEWEN  =    -21734.62198779
  -Hartree energ DENC   =    -11281.51186886
  -exchange      EXHF   =         0.00000000
  -V(xc)+E(xc)   XCENC  =      1517.36580999
  PAW double counting   =     35861.38597224   -37160.32745667
  entropy T*S    EENTRO =        -0.00430748
  eigenvalues    EBANDS =     -1324.32541877
  atomic energy  EATOM  =     32621.81107809
  Solvation  Ediel_sol  =         0.00000000
  ---------------------------------------------------
  free energy    TOTEN  =      -345.67437806 eV

  energy without entropy =     -345.67007059  energy(sigma->0) =     -345.67222433


--------------------------------------------------------------------------------------------------------




--------------------------------------- Iteration      1(  16)  ---------------------------------------


    POTLOK:  cpu time    0.1404: real time    0.1408
    SETDIJ:  cpu time    0.0206: real time    0.0206
     EDDAV:  cpu time    2.2509: real time    2.2563
    CHARGE:  cpu time    0.1462: real time    0.1466
    MIXING:  cpu time    0.0057: real time    0.0057
    --------------------------------------------
      LOOP:  cpu time    2.5638: real time    2.5699

 eigenvalue-minimisations  :  1344
 total energy-change (2. order) : 0.3101628E+00  (-0.1746678E+00)
 number of electron     376.0000094 magnetization       2.3706544
 augmentation part      124.4644158 magnetization       1.1954816

 Broyden mixing:
  rms(total) = 0.70257E+00    rms(broyden)= 0.70216E+00
  rms(prec ) = 0.85864E+00
  weight for this iteration     100.00

 eigenvalues of (default mixing * dielectric matrix)
  average eigenvalue GAMMA=   0.5446
  1.9969  0.9334  0.9334  0.4803  0.4803  0.4291  0.2365  0.1625  0.1283  0.1130
  0.0965

 Free energy of the ion-electron system (eV)
  ---------------------------------------------------
  alpha Z        PSCENC =      1154.55380118
  Ewald energy   TEWEN  =    -21734.62198779
  -Hartree energ DENC   =    -11283.69475747
  -exchange      EXHF   =         0.00000000
  -V(xc)+E(xc)   XCENC  =      1517.41650144
  PAW double counting   =     35887.43055566   -37186.37659113
  entropy T*S    EENTRO =        -0.03722288
  eigenvalues    EBANDS =     -1321.84559237
  atomic energy  EATOM  =     32621.81107809
  Solvation  Ediel_sol  =         0.00000000
  ---------------------------------------------------
  free energy    TOTEN  =      -345.36421527 eV

  energy without entropy =     -345.32699239  energy(sigma->0) =     -345.34560383


--------------------------------------------------------------------------------------------------------




--------------------------------------- Iteration      1(  17)  ---------------------------------------


    POTLOK:  cpu time    0.1461: real time    0.1464
    SETDIJ:  cpu time    0.0206: real time    0.0206
     EDDAV:  cpu time    2.1359: real time    2.1410
    CHARGE:  cpu time    0.1448: real time    0.1451
    MIXING:  cpu time    0.0056: real time    0.0057
    --------------------------------------------
      LOOP:  cpu time    2.4530: real time    2.4588

 eigenvalue-minimisations  :  1264
 total energy-change (2. order) : 0.8958996E-01  (-0.1086620E+00)
 number of electron     376.0000095 magnetization       2.3900117
 augmentation part      124.4361339 magnetization       1.5271501

 Broyden mixing:
  rms(total) = 0.38514E+00    rms(broyden)= 0.38491E+00
  rms(prec ) = 0.48609E+00
  weight for this iteration     100.00

 eigenvalues of (default mixing * dielectric matrix)
  average eigenvalue GAMMA=   0.5437
  2.0322  0.9430  0.9430  0.4951  0.4951  0.4574  0.4574  0.2198  0.1550  0.1129
  0.1240  0.0888

 Free energy of the ion-electron system (eV)
  ---------------------------------------------------
  alpha Z        PSCENC =      1154.55380118
  Ewald energy   TEWEN  =    -21734.62198779
  -Hartree energ DENC   =    -11285.53231605
  -exchange      EXHF   =         0.00000000
  -V(xc)+E(xc)   XCENC  =      1517.46602490
  PAW double counting   =     35882.73421238   -37181.00621095
  entropy T*S    EENTRO =        -0.02477861
  eigenvalues    EBANDS =     -1320.65444847
  atomic energy  EATOM  =     32621.81107809
  Solvation  Ediel_sol  =         0.00000000
  ---------------------------------------------------
  free energy    TOTEN  =      -345.27462531 eV

  energy without entropy =     -345.24984670  energy(sigma->0) =     -345.26223600


--------------------------------------------------------------------------------------------------------




--------------------------------------- Iteration      1(  18)  ---------------------------------------


    POTLOK:  cpu time    0.1411: real time    0.1414
    SETDIJ:  cpu time    0.0206: real time    0.0207
     EDDAV:  cpu time    2.2716: real time    2.2770
    CHARGE:  cpu time    0.1444: real time    0.1448
    MIXING:  cpu time    0.0055: real time    0.0056
    --------------------------------------------
      LOOP:  cpu time    2.5833: real time    2.5894

 eigenvalue-minimisations  :  1360
 total energy-change (2. order) :-0.8853363E-02  (-0.3176045E-01)
 number of electron     376.0000094 magnetization       2.3750924
 augmentation part      124.4250689 magnetization       1.4528555

 Broyden mixing:
  rms(total) = 0.38974E+00    rms(broyden)= 0.38962E+00
  rms(prec ) = 0.48739E+00
  weight for this iteration     100.00

 eigenvalues of (default mixing * dielectric matrix)
  average eigenvalue GAMMA=   0.5210
  2.0575  0.9425  0.9425  0.5347  0.5347  0.4693  0.4693  0.2225  0.1729  0.1265
  0.1129  0.0942  0.0942

 Free energy of the ion-electron system (eV)
  ---------------------------------------------------
  alpha Z        PSCENC =      1154.55380118
  Ewald energy   TEWEN  =    -21734.62198779
  -Hartree energ DENC   =    -11286.04462260
  -exchange      EXHF   =         0.00000000
  -V(xc)+E(xc)   XCENC  =      1517.49234281
  PAW double counting   =     35908.30526687   -37206.44620501
  entropy T*S    EENTRO =        -0.04026995
  eigenvalues    EBANDS =     -1320.29288228
  atomic energy  EATOM  =     32621.81107809
  Solvation  Ediel_sol  =         0.00000000
  ---------------------------------------------------
  free energy    TOTEN  =      -345.28347867 eV

  energy without entropy =     -345.24320872  energy(sigma->0) =     -345.26334369


--------------------------------------------------------------------------------------------------------




--------------------------------------- Iteration      1(  19)  ---------------------------------------


    POTLOK:  cpu time    0.1437: real time    0.1440
    SETDIJ:  cpu time    0.0204: real time    0.0204
     EDDAV:  cpu time    2.1353: real time    2.1403
    CHARGE:  cpu time    0.1434: real time    0.1438
    MIXING:  cpu time    0.0058: real time    0.0059
    --------------------------------------------
      LOOP:  cpu time    2.4485: real time    2.4544

 eigenvalue-minimisations  :  1264
 total energy-change (2. order) :-0.4494828E-02  (-0.2903472E-01)
 number of electron     376.0000094 magnetization       2.3891344
 augmentation part      124.4458061 magnetization       1.2617889

 Broyden mixing:
  rms(total) = 0.37490E+00    rms(broyden)= 0.37481E+00
  rms(prec ) = 0.41427E+00
  weight for this iteration     100.00

 eigenvalues of (default mixing * dielectric matrix)
  average eigenvalue GAMMA=   0.5016
  2.0604  0.9417  0.9417  0.5668  0.5668  0.4706  0.4706  0.1699  0.2217  0.1725
  0.1285  0.1129  0.1085  0.0894

 Free energy of the ion-electron system (eV)
  ---------------------------------------------------
  alpha Z        PSCENC =      1154.55380118
  Ewald energy   TEWEN  =    -21734.62198779
  -Hartree energ DENC   =    -11286.13138801
  -exchange      EXHF   =         0.00000000
  -V(xc)+E(xc)   XCENC  =      1517.51951739
  PAW double counting   =     35943.36842914   -37241.30119361
  entropy T*S    EENTRO =        -0.03138330
  eigenvalues    EBANDS =     -1320.45484659
  atomic energy  EATOM  =     32621.81107809
  Solvation  Ediel_sol  =         0.00000000
  ---------------------------------------------------
  free energy    TOTEN  =      -345.28797350 eV

  energy without entropy =     -345.25659019  energy(sigma->0) =     -345.27228185


--------------------------------------------------------------------------------------------------------




--------------------------------------- Iteration      1(  20)  ---------------------------------------


    POTLOK:  cpu time    0.1411: real time    0.1415
    SETDIJ:  cpu time    0.0204: real time    0.0204
     EDDAV:  cpu time    2.1613: real time    2.1665
    CHARGE:  cpu time    0.1437: real time    0.1441
    MIXING:  cpu time    0.0064: real time    0.0064
    --------------------------------------------
      LOOP:  cpu time    2.4729: real time    2.4788

 eigenvalue-minimisations  :  1280
 total energy-change (2. order) :-0.8777353E-03  (-0.2050501E-02)
 number of electron     376.0000093 magnetization       2.2337064
 augmentation part      124.4412760 magnetization       1.0463895

 Broyden mixing:
  rms(total) = 0.42600E+00    rms(broyden)= 0.42598E+00
  rms(prec ) = 0.45525E+00
  weight for this iteration     100.00

 eigenvalues of (default mixing * dielectric matrix)
  average eigenvalue GAMMA=   0.5376
  2.2043  0.9723  0.8185  0.8185  0.7431  0.5524  0.4939  0.4939  0.2215  0.1573
  0.1593  0.1271  0.1130  0.1005  0.0881

 Free energy of the ion-electron system (eV)
  ---------------------------------------------------
  alpha Z        PSCENC =      1154.55380118
  Ewald energy   TEWEN  =    -21734.62198779
  -Hartree energ DENC   =    -11286.11475013
  -exchange      EXHF   =         0.00000000
  -V(xc)+E(xc)   XCENC  =      1517.52083408
  PAW double counting   =     35943.36708954   -37241.26716886
  entropy T*S    EENTRO =        -0.02832555
  eigenvalues    EBANDS =     -1320.50942179
  atomic energy  EATOM  =     32621.81107809
  Solvation  Ediel_sol  =         0.00000000
  ---------------------------------------------------
  free energy    TOTEN  =      -345.28885123 eV

  energy without entropy =     -345.26052568  energy(sigma->0) =     -345.27468846


--------------------------------------------------------------------------------------------------------




--------------------------------------- Iteration      1(  21)  ---------------------------------------


    POTLOK:  cpu time    0.1426: real time    0.1429
    SETDIJ:  cpu time    0.0203: real time    0.0204
     EDDAV:  cpu time    2.2087: real time    2.2139
    CHARGE:  cpu time    0.1435: real time    0.1438
    MIXING:  cpu time    0.0065: real time    0.0065
    --------------------------------------------
      LOOP:  cpu time    2.5215: real time    2.5275

 eigenvalue-minimisations  :  1312
 total energy-change (2. order) : 0.1102920E-01  (-0.6166478E-02)
 number of electron     376.0000094 magnetization       2.2573910
 augmentation part      124.4621681 magnetization       1.1851240

 Broyden mixing:
  rms(total) = 0.42525E+00    rms(broyden)= 0.42522E+00
  rms(prec ) = 0.46773E+00
  weight for this iteration     100.00

 eigenvalues of (default mixing * dielectric matrix)
  average eigenvalue GAMMA=   0.5583
  2.2701  1.1802  0.9684  0.9684  0.6325  0.6325  0.4987  0.4987  0.2075  0.2684
  0.2229  0.1580  0.1267  0.1130  0.0987  0.0881

 Free energy of the ion-electron system (eV)
  ---------------------------------------------------
  alpha Z        PSCENC =      1154.55380118
  Ewald energy   TEWEN  =    -21734.62198779
  -Hartree energ DENC   =    -11286.98332588
  -exchange      EXHF   =         0.00000000
  -V(xc)+E(xc)   XCENC  =      1517.54822002
  PAW double counting   =     35986.24900802   -37283.90505744
  entropy T*S    EENTRO =        -0.03475999
  eigenvalues    EBANDS =     -1319.89479824
  atomic energy  EATOM  =     32621.81107809
  Solvation  Ediel_sol  =         0.00000000
  ---------------------------------------------------
  free energy    TOTEN  =      -345.27782203 eV

  energy without entropy =     -345.24306204  energy(sigma->0) =     -345.26044204


--------------------------------------------------------------------------------------------------------




--------------------------------------- Iteration      1(  22)  ---------------------------------------


    POTLOK:  cpu time    0.1425: real time    0.1428
    SETDIJ:  cpu time    0.0201: real time    0.0202
     EDDAV:  cpu time    2.3526: real time    2.3582
    CHARGE:  cpu time    0.1439: real time    0.1442
    MIXING:  cpu time    0.0069: real time    0.0069
    --------------------------------------------
      LOOP:  cpu time    2.6659: real time    2.6722

 eigenvalue-minimisations  :  1424
 total energy-change (2. order) :-0.1761969E-02  (-0.4760994E-02)
 number of electron     376.0000094 magnetization       2.2253979
 augmentation part      124.4665427 magnetization       1.2226256

 Broyden mixing:
  rms(total) = 0.40630E+00    rms(broyden)= 0.40628E+00
  rms(prec ) = 0.45972E+00
  weight for this iteration     100.00

 eigenvalues of (default mixing * dielectric matrix)
  average eigenvalue GAMMA=   0.5657
  2.2291  1.4100  1.0406  1.0406  0.6197  0.6197  0.4912  0.4912  0.4238  0.2118
  0.2329  0.2213  0.1590  0.1267  0.1130  0.0988  0.0881

 Free energy of the ion-electron system (eV)
  ---------------------------------------------------
  alpha Z        PSCENC =      1154.55380118
  Ewald energy   TEWEN  =    -21734.62198779
  -Hartree energ DENC   =    -11288.26592012
  -exchange      EXHF   =         0.00000000
  -V(xc)+E(xc)   XCENC  =      1517.59020608
  PAW double counting   =     36003.32164909   -37300.50666825
  entropy T*S    EENTRO =        -0.03715696
  eigenvalues    EBANDS =     -1319.12458532
  atomic energy  EATOM  =     32621.81107809
  Solvation  Ediel_sol  =         0.00000000
  ---------------------------------------------------
  free energy    TOTEN  =      -345.27958400 eV

  energy without entropy =     -345.24242704  energy(sigma->0) =     -345.26100552


--------------------------------------------------------------------------------------------------------




--------------------------------------- Iteration      1(  23)  ---------------------------------------


    POTLOK:  cpu time    0.1422: real time    0.1425
    SETDIJ:  cpu time    0.0205: real time    0.0205
     EDDAV:  cpu time    2.3676: real time    2.3732
    CHARGE:  cpu time    0.1435: real time    0.1439
    MIXING:  cpu time    0.0070: real time    0.0070
    --------------------------------------------
      LOOP:  cpu time    2.6807: real time    2.6871

 eigenvalue-minimisations  :  1424
 total energy-change (2. order) :-0.2645165E-02  (-0.5899284E-02)
 number of electron     376.0000094 magnetization       2.1598395
 augmentation part      124.4569612 magnetization       1.2797211

 Broyden mixing:
  rms(total) = 0.41543E+00    rms(broyden)= 0.41539E+00
  rms(prec ) = 0.49564E+00
  weight for this iteration     100.00

 eigenvalues of (default mixing * dielectric matrix)
  average eigenvalue GAMMA=   0.5371
  2.2311  1.4236  1.0459  1.0459  0.6207  0.6207  0.4901  0.4901  0.4258  0.2120
  0.2347  0.2213  0.1591  0.1267  0.1130  0.0988  0.0881  0.0205

 Free energy of the ion-electron system (eV)
  ---------------------------------------------------
  alpha Z        PSCENC =      1154.55380118
  Ewald energy   TEWEN  =    -21734.62198779
  -Hartree energ DENC   =    -11289.03101602
  -exchange      EXHF   =         0.00000000
  -V(xc)+E(xc)   XCENC  =      1517.60673304
  PAW double counting   =     36009.20600823   -37306.10825442
  entropy T*S    EENTRO =        -0.03954565
  eigenvalues    EBANDS =     -1318.65904582
  atomic energy  EATOM  =     32621.81107809
  Solvation  Ediel_sol  =         0.00000000
  ---------------------------------------------------
  free energy    TOTEN  =      -345.28222916 eV

  energy without entropy =     -345.24268352  energy(sigma->0) =     -345.26245634


--------------------------------------------------------------------------------------------------------




--------------------------------------- Iteration      1(  24)  ---------------------------------------


    POTLOK:  cpu time    0.1423: real time    0.1426
    SETDIJ:  cpu time    0.0201: real time    0.0201
     EDDAV:  cpu time    2.3822: real time    2.3879
    CHARGE:  cpu time    0.1445: real time    0.1448
    MIXING:  cpu time    0.0071: real time    0.0072
    --------------------------------------------
      LOOP:  cpu time    2.6962: real time    2.7026

 eigenvalue-minimisations  :  1440
 total energy-change (2. order) : 0.1817665E-02  (-0.2463916E-02)
 number of electron     376.0000094 magnetization       2.1028763
 augmentation part      124.4618822 magnetization       1.2577769

 Broyden mixing:
  rms(total) = 0.37065E+00    rms(broyden)= 0.37064E+00
  rms(prec ) = 0.45025E+00
  weight for this iteration     100.00

 eigenvalues of (default mixing * dielectric matrix)
  average eigenvalue GAMMA=   0.5332
  2.2115  1.4268  1.0790  1.0790  0.6175  0.6175  0.4979  0.4979  0.2133  0.3348
  0.2673  0.2673  0.2221  0.2131  0.1589  0.1267  0.1130  0.0987  0.0881

 Free energy of the ion-electron system (eV)
  ---------------------------------------------------
  alpha Z        PSCENC =      1154.55380118
  Ewald energy   TEWEN  =    -21734.62198779
  -Hartree energ DENC   =    -11289.47890523
  -exchange      EXHF   =         0.00000000
  -V(xc)+E(xc)   XCENC  =      1517.61893467
  PAW double counting   =     36014.45338015   -37311.14308509
  entropy T*S    EENTRO =        -0.03845067
  eigenvalues    EBANDS =     -1318.43517681
  atomic energy  EATOM  =     32621.81107809
  Solvation  Ediel_sol  =         0.00000000
  ---------------------------------------------------
  free energy    TOTEN  =      -345.28041150 eV

  energy without entropy =     -345.24196082  energy(sigma->0) =     -345.26118616


--------------------------------------------------------------------------------------------------------




--------------------------------------- Iteration      1(  25)  ---------------------------------------


    POTLOK:  cpu time    0.1428: real time    0.1432
    SETDIJ:  cpu time    0.0203: real time    0.0204
     EDDAV:  cpu time    2.3569: real time    2.3625
    CHARGE:  cpu time    0.1427: real time    0.1430
    MIXING:  cpu time    0.0070: real time    0.0071
    --------------------------------------------
      LOOP:  cpu time    2.6697: real time    2.6760

 eigenvalue-minimisations  :  1424
 total energy-change (2. order) :-0.1948593E-03  (-0.1683119E-02)
 number of electron     376.0000094 magnetization       2.0827699
 augmentation part      124.4572871 magnetization       1.3020754

 Broyden mixing:
  rms(total) = 0.37827E+00    rms(broyden)= 0.37826E+00
  rms(prec ) = 0.46111E+00
  weight for this iteration     100.00

 eigenvalues of (default mixing * dielectric matrix)
  average eigenvalue GAMMA=   0.5270
  2.2313  1.4556  1.0707  1.0707  0.6086  0.6086  0.3678  0.4900  0.4900  0.4164
  0.2146  0.2657  0.2657  0.2229  0.1756  0.1590  0.1267  0.1130  0.0881  0.0987

 Free energy of the ion-electron system (eV)
  ---------------------------------------------------
  alpha Z        PSCENC =      1154.55380118
  Ewald energy   TEWEN  =    -21734.62198779
  -Hartree energ DENC   =    -11289.68240706
  -exchange      EXHF   =         0.00000000
  -V(xc)+E(xc)   XCENC  =      1517.62347683
  PAW double counting   =     36017.14346504   -37313.73784833
  entropy T*S    EENTRO =        -0.03737277
  eigenvalues    EBANDS =     -1318.33281155
  atomic energy  EATOM  =     32621.81107809
  Solvation  Ediel_sol  =         0.00000000
  ---------------------------------------------------
  free energy    TOTEN  =      -345.28060636 eV

  energy without entropy =     -345.24323359  energy(sigma->0) =     -345.26191997


--------------------------------------------------------------------------------------------------------




--------------------------------------- Iteration      1(  26)  ---------------------------------------


    POTLOK:  cpu time    0.1435: real time    0.1439
    SETDIJ:  cpu time    0.0204: real time    0.0204
     EDDAV:  cpu time    2.4630: real time    2.4689
    CHARGE:  cpu time    0.1442: real time    0.1446
    MIXING:  cpu time    0.0074: real time    0.0074
    --------------------------------------------
      LOOP:  cpu time    2.7785: real time    2.7851

 eigenvalue-minimisations  :  1504
 total energy-change (2. order) : 0.2514990E-02  (-0.3862656E-03)
 number of electron     376.0000094 magnetization       2.0465489
 augmentation part      124.4602702 magnetization       1.2838309

 Broyden mixing:
  rms(total) = 0.33874E+00    rms(broyden)= 0.33873E+00
  rms(prec ) = 0.41491E+00
  weight for this iteration     100.00

 eigenvalues of (default mixing * dielectric matrix)
  average eigenvalue GAMMA=   0.5662
  2.3244  1.4912  1.0930  1.0930  0.8287  0.6578  0.6578  0.5879  0.5879  0.4967
  0.4967  0.2139  0.2615  0.2215  0.1824  0.1583  0.1267  0.1130  0.0881  0.0986
  0.1104

 Free energy of the ion-electron system (eV)
  ---------------------------------------------------
  alpha Z        PSCENC =      1154.55380118
  Ewald energy   TEWEN  =    -21734.62198779
  -Hartree energ DENC   =    -11289.65537114
  -exchange      EXHF   =         0.00000000
  -V(xc)+E(xc)   XCENC  =      1517.62283975
  PAW double counting   =     36016.30875889   -37312.88054619
  entropy T*S    EENTRO =        -0.03639481
  eigenvalues    EBANDS =     -1318.38026935
  atomic energy  EATOM  =     32621.81107809
  Solvation  Ediel_sol  =         0.00000000
  ---------------------------------------------------
  free energy    TOTEN  =      -345.27809137 eV

  energy without entropy =     -345.24169656  energy(sigma->0) =     -345.25989396


--------------------------------------------------------------------------------------------------------




--------------------------------------- Iteration      1(  27)  ---------------------------------------


    POTLOK:  cpu time    0.1436: real time    0.1440
    SETDIJ:  cpu time    0.0209: real time    0.0209
     EDDAV:  cpu time    2.2561: real time    2.2615
    CHARGE:  cpu time    0.1381: real time    0.1384
    MIXING:  cpu time    0.0079: real time    0.0079
    --------------------------------------------
      LOOP:  cpu time    2.5666: real time    2.5727

 eigenvalue-minimisations  :  1408
 total energy-change (2. order) :-0.1993483E-02  (-0.3006181E-03)
 number of electron     376.0000094 magnetization       2.0192178
 augmentation part      124.4599597 magnetization       1.2823953

 Broyden mixing:
  rms(total) = 0.35878E+00    rms(broyden)= 0.35878E+00
  rms(prec ) = 0.45112E+00
  weight for this iteration     100.00

 eigenvalues of (default mixing * dielectric matrix)
  average eigenvalue GAMMA=   0.5536
  2.3240  1.5053  0.9512  1.0920  1.0920  0.6653  0.6653  0.5910  0.5910  0.4974
  0.4974  0.2139  0.2637  0.2217  0.1857  0.1585  0.1267  0.1130  0.0881  0.0987
  0.1185  0.1185

 Free energy of the ion-electron system (eV)
  ---------------------------------------------------
  alpha Z        PSCENC =      1154.55380118
  Ewald energy   TEWEN  =    -21734.62198779
  -Hartree energ DENC   =    -11289.77317309
  -exchange      EXHF   =         0.00000000
  -V(xc)+E(xc)   XCENC  =      1517.62244210
[...]
   0.591E-01 -.294E+01 0.898E-01   -.615E-01 0.362E+01 -.900E-01   -.403E-02 -.641E+00 -.693E-03   0.672E-02 0.858E-03 0.580E-03
   -.591E-01 -.294E+01 -.898E-01   0.615E-01 0.362E+01 0.900E-01   0.403E-02 -.641E+00 0.693E-03   -.672E-02 0.858E-03 -.580E-03
   -.859E-01 0.289E+01 -.672E-01   0.923E-01 -.358E+01 0.714E-01   -.141E-03 0.645E+00 -.160E-02   -.665E-02 -.820E-03 -.186E-02
   0.859E-01 0.289E+01 0.672E-01   -.923E-01 -.358E+01 -.714E-01   0.141E-03 0.645E+00 0.160E-02   0.665E-02 -.820E-03 0.186E-02
   0.666E-01 0.251E+00 0.895E-01   -.744E-01 -.233E+00 -.852E-01   0.799E-02 -.206E-01 -.275E-02   0.115E-02 -.701E-03 -.177E-02
   -.666E-01 0.251E+00 -.895E-01   0.744E-01 -.233E+00 0.852E-01   -.799E-02 -.206E-01 0.275E-02   -.115E-02 -.701E-03 0.177E-02
   0.145E-05 0.250E+02 -.310E-06   0.176E-10 -.252E+02 -.209E-10   0.517E-25 0.192E+00 -.323E-26   0.891E-11 -.406E-02 -.665E-12
   -.104E+00 -.828E-01 -.382E+00   0.896E-01 0.883E-01 0.379E+00   -.447E-02 0.178E-02 0.128E-03   0.234E-01 0.295E-02 0.818E-02
   0.104E+00 -.828E-01 0.382E+00   -.896E-01 0.883E-01 -.379E+00   0.447E-02 0.178E-02 -.128E-03   -.234E-01 0.295E-02 -.818E-02
   0.707E-01 0.660E-01 0.425E+00   -.501E-01 -.683E-01 -.424E+00   0.450E-02 0.280E-02 0.131E-02   -.255E-01 -.523E-02 -.623E-02
   -.707E-01 0.660E-01 -.425E+00   0.501E-01 -.683E-01 0.424E+00   -.450E-02 0.280E-02 -.131E-02   0.255E-01 -.523E-02 0.623E-02
   0.121E-04 -.284E+02 -.258E-05   0.284E-13 0.286E+02 -.689E-11   0.000E+00 -.153E+00 -.388E-25   0.952E-11 0.568E-02 -.344E-11
   -.959E-05 0.282E+02 0.204E-05   0.691E-11 -.284E+02 -.105E-11   0.207E-24 0.154E+00 -.194E-25   -.711E-11 -.127E-01 -.370E-12
   0.199E-05 -.248E+02 -.423E-06   0.283E-11 0.249E+02 -.283E-11   0.000E+00 -.196E+00 0.000E+00   -.667E-11 0.106E-01 0.165E-11
   0.150E-05 0.249E+02 -.318E-06   0.535E-11 -.251E+02 0.940E-11   0.000E+00 0.195E+00 0.129E-25   0.698E-11 -.697E-02 0.104E-11
   0.453E-01 -.153E-01 0.198E+00   -.138E-01 0.276E-01 -.189E+00   0.214E-02 0.814E-03 -.617E-03   -.341E-01 -.125E-01 -.752E-02
   -.453E-01 -.153E-01 -.198E+00   0.138E-01 0.276E-01 0.189E+00   -.214E-02 0.814E-03 0.617E-03   0.341E-01 -.125E-01 0.752E-02
   -.547E-01 0.105E+00 -.174E+00   0.215E-01 -.120E+00 0.166E+00   -.264E-02 -.228E-02 -.291E-02   0.364E-01 0.142E-01 0.839E-02
   0.547E-01 0.105E+00 0.174E+00   -.215E-01 -.120E+00 -.166E+00   0.264E-02 -.228E-02 0.291E-02   -.364E-01 0.142E-01 -.839E-02
   0.123E-04 -.283E+02 -.262E-05   0.514E-11 0.285E+02 0.935E-11   0.000E+00 -.151E+00 -.372E-25   -.359E-11 0.717E-02 0.162E-11
   -.789E-05 0.283E+02 0.168E-05   0.280E-11 -.285E+02 0.895E-11   0.000E+00 0.147E+00 -.215E-25   -.109E-13 -.275E-02 0.279E-11
   0.349E-05 -.250E+02 -.746E-06   0.313E-11 0.252E+02 0.897E-11   0.000E+00 -.196E+00 0.727E-25   -.422E-11 0.462E-02 0.545E-11
   0.468E+02 0.232E+02 0.336E+03   -.523E+02 -.247E+02 -.354E+03   0.552E+01 0.156E+01 0.177E+02   -.313E-01 -.638E-02 0.864E-02
   -.468E+02 0.232E+02 -.336E+03   0.523E+02 -.247E+02 0.354E+03   -.552E+01 0.156E+01 -.177E+02   0.313E-01 -.638E-02 -.864E-02
   0.216E+02 0.265E+02 -.365E+03   -.225E+02 -.285E+02 0.386E+03   0.918E+00 0.196E+01 -.211E+02   0.112E-01 -.813E-02 0.436E-03
   -.216E+02 0.265E+02 0.365E+03   0.225E+02 -.285E+02 -.386E+03   -.918E+00 0.196E+01 0.211E+02   -.112E-01 -.813E-02 -.436E-03
   0.358E+02 -.348E+02 0.350E+03   -.412E+02 0.367E+02 -.368E+03   0.542E+01 -.182E+01 0.179E+02   -.223E-02 -.334E-02 -.417E-02
   -.358E+02 -.348E+02 -.350E+03   0.412E+02 0.367E+02 0.368E+03   -.542E+01 -.182E+01 -.179E+02   0.223E-02 -.334E-02 0.417E-02
   0.252E+01 0.391E+02 -.353E+03   -.264E+01 -.416E+02 0.373E+03   0.106E+00 0.257E+01 -.201E+02   0.841E-02 0.391E-02 0.707E-03
   -.252E+01 0.391E+02 0.353E+03   0.264E+01 -.416E+02 -.373E+03   -.106E+00 0.257E+01 0.201E+02   -.841E-02 0.391E-02 -.707E-03
   -.356E+02 0.351E+02 -.350E+03   0.410E+02 -.370E+02 0.368E+03   -.539E+01 0.184E+01 -.179E+02   0.439E-03 -.223E-02 -.775E-03
   0.356E+02 0.351E+02 0.350E+03   -.410E+02 -.370E+02 -.368E+03   0.539E+01 0.184E+01 0.179E+02   -.439E-03 -.223E-02 0.775E-03
   -.259E+01 -.392E+02 0.353E+03   0.272E+01 0.418E+02 -.373E+03   -.117E+00 -.257E+01 0.202E+02   -.527E-02 0.109E-02 0.498E-02
   0.259E+01 -.392E+02 -.353E+03   -.272E+01 0.418E+02 0.373E+03   0.117E+00 -.257E+01 -.202E+02   0.527E-02 0.109E-02 -.498E-02
   -.217E+02 -.266E+02 0.365E+03   0.227E+02 0.286E+02 -.386E+03   -.929E+00 -.197E+01 0.211E+02   -.186E-01 0.633E-02 0.202E-02
   0.217E+02 -.266E+02 -.365E+03   -.227E+02 0.286E+02 0.386E+03   0.929E+00 -.197E+01 -.211E+02   0.186E-01 0.633E-02 -.202E-02
   -.469E+02 -.232E+02 -.336E+03   0.524E+02 0.247E+02 0.354E+03   -.553E+01 -.157E+01 -.177E+02   0.200E-01 0.794E-02 -.517E-02
   0.469E+02 -.232E+02 0.336E+03   -.524E+02 0.247E+02 -.354E+03   0.553E+01 -.157E+01 0.177E+02   -.200E-01 0.794E-02 0.517E-02
   -.218E+02 0.265E+02 0.365E+03   0.227E+02 -.284E+02 -.387E+03   -.937E+00 0.195E+01 0.212E+02   0.942E-02 -.570E-02 0.350E-02
   0.218E+02 0.265E+02 -.365E+03   -.227E+02 -.284E+02 0.387E+03   0.937E+00 0.195E+01 -.212E+02   -.942E-02 -.570E-02 -.350E-02
   -.467E+02 0.231E+02 -.336E+03   0.522E+02 -.247E+02 0.354E+03   -.552E+01 0.156E+01 -.177E+02   0.157E-02 -.914E-02 -.664E-02
   0.467E+02 0.231E+02 0.336E+03   -.522E+02 -.247E+02 -.354E+03   0.552E+01 0.156E+01 0.177E+02   -.157E-02 -.914E-02 0.664E-02
   0.359E+02 0.350E+02 0.350E+03   -.413E+02 -.368E+02 -.368E+03   0.541E+01 0.183E+01 0.179E+02   0.228E-01 -.180E-01 0.195E-01
   -.359E+02 0.350E+02 -.350E+03   0.413E+02 -.368E+02 0.368E+03   -.541E+01 0.183E+01 -.179E+02   -.228E-01 -.180E-01 -.195E-01
   0.230E+01 -.392E+02 -.352E+03   -.238E+01 0.417E+02 0.373E+03   0.913E-01 -.257E+01 -.202E+02   -.178E-01 0.177E-01 -.237E-01
   -.230E+01 -.392E+02 0.352E+03   0.238E+01 0.417E+02 -.373E+03   -.913E-01 -.257E+01 0.202E+02   0.178E-01 0.177E-01 0.237E-01
   -.359E+02 -.350E+02 -.350E+03   0.414E+02 0.368E+02 0.368E+03   -.541E+01 -.183E+01 -.179E+02   -.186E-01 0.151E-01 -.170E-01
   0.359E+02 -.350E+02 0.350E+03   -.414E+02 0.368E+02 -.368E+03   0.541E+01 -.183E+01 0.179E+02   0.186E-01 0.151E-01 0.170E-01
   -.223E+01 0.392E+02 0.353E+03   0.231E+01 -.417E+02 -.373E+03   -.889E-01 0.257E+01 0.201E+02   0.139E-01 -.144E-01 0.201E-01
   0.223E+01 0.392E+02 -.353E+03   -.231E+01 -.417E+02 0.373E+03   0.889E-01 0.257E+01 -.201E+02   -.139E-01 -.144E-01 -.201E-01
   0.465E+02 -.233E+02 0.336E+03   -.520E+02 0.248E+02 -.354E+03   0.548E+01 -.157E+01 0.177E+02   0.112E-01 0.656E-02 -.757E-03
   -.465E+02 -.233E+02 -.336E+03   0.520E+02 0.248E+02 0.354E+03   -.548E+01 -.157E+01 -.177E+02   -.112E-01 0.656E-02 0.757E-03
   0.221E+02 -.266E+02 -.365E+03   -.231E+02 0.285E+02 0.386E+03   0.972E+00 -.196E+01 -.211E+02   -.380E-02 0.723E-02 -.800E-02
   -.221E+02 -.266E+02 0.365E+03   0.231E+02 0.285E+02 -.386E+03   -.972E+00 -.196E+01 0.211E+02   0.380E-02 0.723E-02 0.800E-02
 -----------------------------------------------------------------------------------------------
   0.276E-04 0.593E-01 -.579E-05   -.217E-12 0.213E-13 -.114E-12   0.000E+00 -.597E-01 -.355E-14   0.157E-10 -.484E-02 0.225E-11
 
 
 POSITION                                       TOTAL-FORCE (eV/Angst)
 -----------------------------------------------------------------------------------
      4.07862      1.37960      2.48113        -0.000664      0.001027     -0.000575
      2.30350      1.37960      7.30851         0.000664      0.001027      0.000575
      1.59574      3.03700      2.44836         0.000269      0.041539     -0.000282
      4.78639      3.03700      7.34128        -0.000269      0.041539      0.000282
      6.56187      5.24148      2.51334        -0.000366     -0.039495      0.000687
     -0.17974      5.24148      7.27631         0.000366     -0.039495     -0.000687
      9.04041      1.38873      2.54816         0.001284     -0.003077     -0.000297
     -2.65828      1.38873      7.24149        -0.001284     -0.003077      0.000297
      0.00000      5.51915     -0.00000        -0.000000     -0.004450     -0.000000
      2.48214      1.38038      0.03484         0.004388      0.010300      0.005308
      3.89999      1.38038      9.75480        -0.004388      0.010300     -0.005308
      7.44712      4.13975      0.09897        -0.000313     -0.004629     -0.004018
     -1.06500      4.13975      9.69068         0.000313     -0.004629      0.004018
      0.00000      2.76841     -0.00000        -0.000000      0.004180     -0.000000
      4.96467      5.51082      0.06691        -0.000000      0.005586     -0.000000
      4.96467      2.76051      0.06691        -0.000000     -0.005185     -0.000000
      3.19106      5.51919      4.89482        -0.000000      0.001248     -0.000000
      5.67356      1.38123      4.92757        -0.000500      0.000685      0.000843
      0.70857      1.38123      4.86207         0.000500      0.000685     -0.000843
      0.70859      4.14048      4.86210         0.000585     -0.003264     -0.002406
      5.67354      4.14048      4.92754        -0.000585     -0.003264      0.002406
      3.19106      2.76863      4.89482        -0.000000      0.000670     -0.000000
     -1.77361      5.51219      4.82791        -0.000000     -0.004085     -0.000000
     -1.77361      2.76160      4.82791        -0.000000      0.000901     -0.000000
      5.04171      0.01697      3.90259         0.004013      0.000447     -0.000875
      1.34041      0.01697      5.88705        -0.004013      0.000447      0.000875
      3.31774      0.01511      0.98684        -0.005879     -0.000902      0.000063
      3.06438      0.01511      8.80281         0.005879     -0.000902     -0.000063
      7.46731      1.37726      3.95630         0.004133      0.001064      0.001100
     -1.08519      1.37726      5.83335        -0.004133      0.001064     -0.001100
     -0.99758      4.13152      5.77918        -0.006664     -0.000215     -0.000037
      7.37971      4.13152      4.01046         0.006664     -0.000215      0.000037
      0.68820      1.38546      1.00559        -0.004397     -0.001979     -0.001096
      5.69393      1.38546      8.78405         0.004397     -0.001979      0.001096
      5.60641      4.14894      8.83803         0.006208      0.000321      0.000820
      0.77572      4.14894      0.95161        -0.006208      0.000321     -0.000820
      4.83821      2.74644      3.97569         0.005537      0.000461     -0.001139
      1.54392      2.74644      5.81395        -0.005537      0.000461      0.001139
      3.11457      2.74465      1.05959        -0.005917     -0.000472     -0.004843
      3.26756      2.74465      8.73006         0.005917     -0.000472      0.004843
     -0.12630      0.01615      3.90991         0.005930      0.000138     -0.001289
      6.50843      0.01615      5.87973        -0.005930      0.000138      0.001289
      8.07997      0.01650      1.12304        -0.005643     -0.002359      0.006282
     -1.69784      0.01650      8.66660         0.005643     -0.002359     -0.006282
      2.50180      1.38535      3.89018         0.004808     -0.001146      0.001393
      3.88032      1.38535      5.89947        -0.004808     -0.001146     -0.001393
      3.96785      4.14939      5.84521        -0.007218      0.000771      0.000717
      2.41428      4.14939      3.94444         0.007218      0.000771     -0.000717
      5.65442      1.37606      1.07122        -0.006288      0.001141     -0.001632
      0.72771      1.37606      8.71843         0.006288      0.001141      0.001632
      0.64031      4.13029      8.77257         0.007145     -0.000449     -0.001379
      5.74182      4.13029      1.01708        -0.007145     -0.000449      0.001379
      0.07623      2.74551      3.83727         0.007560      0.001675     -0.000393
      6.30590      2.74551      5.95237        -0.007560      0.001675      0.000393
      8.28181      2.74614      1.05142        -0.006087     -0.001013      0.002291
     -1.89968      2.74614      8.73823         0.006087     -0.001013     -0.002291
 -----------------------------------------------------------------------------------
    total drift:                                0.000028     -0.005275     -0.000006


--------------------------------------------------------------------------------------------------------



  FREE ENERGIE OF THE ION-ELECTRON SYSTEM (eV)
  ---------------------------------------------------
  free  energy   TOTEN  =      -345.3793027875 eV

  energy  without entropy=     -345.3658722398  energy(sigma->0) =     -345.37258751
 
 d Force =-0.6860840E-05[-0.194E-04, 0.570E-05]  d Energy =-0.1471781E-04 0.786E-05
 d Force = 0.1738184E+01[ 0.174E+01, 0.174E+01]  d Ewald  = 0.6186671E+01-0.445E+01


--------------------------------------------------------------------------------------------------------


    POTLOK:  cpu time    0.1302: real time    0.1305


--------------------------------------------------------------------------------------------------------


 Quasi-Newton relaxation of ions (Broydens 2nd method)
  g(Force)  = 0.408E-03   g(Stress)= 0.555E-04

 retain information from N=  2 steps
 eigenvalues of (default step * inverse Hessian matrix)
  average eigenvalue of G=   3.3163
 eigenvalue spectrum of G is  6.1618  0.4708


--------------------------------------------------------------------------------------------------------


     LOOP+:  cpu time   16.3283: real time   16.4471
    4ORBIT:  cpu time    0.0000: real time    0.0000

volume of typ            1:    11.7 %

volume of typ            2:    19.2 %

volume of typ            3:     9.8 %
 
total charge     
 
# of ion       s       p       d       tot
------------------------------------------
    1        2.064   0.204   0.075   2.343
    2        2.064   0.204   0.075   2.343
    3        2.075   0.229   0.085   2.389
    4        2.075   0.229   0.085   2.389
    5        2.075   0.229   0.085   2.389
    6        2.075   0.229   0.085   2.389
    7        2.064   0.204   0.075   2.343
    8        2.064   0.204   0.075   2.343
    9        0.272   0.365   7.876   8.513
   10        0.283   0.387   7.860   8.530
   11        0.283   0.387   7.860   8.530
   12        0.284   0.392   7.842   8.518
   13        0.284   0.392   7.842   8.518
   14        0.303   0.434   7.843   8.579
   15        0.303   0.433   7.843   8.579
   16        0.272   0.365   7.876   8.513
   17        0.272   0.365   7.876   8.513
   18        0.283   0.387   7.860   8.530
   19        0.283   0.387   7.860   8.530
   20        0.284   0.392   7.842   8.518
   21        0.284   0.392   7.842   8.518
   22        0.303   0.433   7.843   8.579
   23        0.303   0.433   7.843   8.579
   24        0.272   0.365   7.877   8.514
   25        1.264   2.777   0.007   4.049
   26        1.264   2.777   0.007   4.049
   27        1.269   2.761   0.007   4.038
   28        1.269   2.761   0.007   4.038
   29        1.267   2.770   0.007   4.044
   30        1.267   2.770   0.007   4.044
   31        1.268   2.769   0.008   4.045
   32        1.268   2.769   0.008   4.045
   33        1.267   2.770   0.007   4.044
   34        1.267   2.770   0.007   4.044
   35        1.269   2.769   0.008   4.045
   36        1.269   2.769   0.008   4.045
   37        1.269   2.761   0.007   4.038
   38        1.269   2.761   0.007   4.038
   39        1.264   2.777   0.007   4.048
   40        1.264   2.777   0.007   4.048
   41        1.270   2.761   0.007   4.038
   42        1.270   2.761   0.007   4.038
   43        1.264   2.777   0.007   4.049
   44        1.264   2.777   0.007   4.049
   45        1.267   2.770   0.007   4.044
   46        1.267   2.770   0.007   4.044
   47        1.268   2.769   0.008   4.045
   48        1.268   2.769   0.008   4.045
   49        1.267   2.770   0.007   4.044
   50        1.267   2.770   0.007   4.044
   51        1.268   2.769   0.008   4.045
   52        1.268   2.769   0.008   4.045
   53        1.264   2.778   0.007   4.049
   54        1.264   2.778   0.007   4.049
   55        1.269   2.762   0.007   4.038
   56        1.269   2.762   0.007   4.038
--------------------------------------------------
tot          61.68   96.67  126.55  284.90
 
magnetization (x)
 
# of ion       s       p       d       tot
------------------------------------------
    1        0.005   0.007   0.001   0.013
    2        0.005   0.007   0.001   0.013
    3       -0.000  -0.000  -0.000  -0.001
    4       -0.000  -0.000  -0.000  -0.001
    5       -0.000  -0.001  -0.000  -0.001
    6       -0.000  -0.001  -0.000  -0.001
    7        0.005   0.007   0.001   0.013
    8        0.005   0.007   0.001   0.013
    9       -0.001   0.000  -0.083  -0.084
   10        0.004   0.000   0.553   0.558
   11        0.004   0.000   0.553   0.558
   12        0.000  -0.000   0.201   0.201
   13        0.000  -0.000   0.201   0.201
   14       -0.001   0.000  -0.008  -0.008
   15       -0.001   0.000  -0.008  -0.008
   16       -0.001   0.000  -0.069  -0.070
   17       -0.001   0.000  -0.081  -0.083
   18        0.004   0.000   0.554   0.558
   19        0.004   0.000   0.554   0.558
   20        0.000  -0.000   0.200   0.200
   21        0.000  -0.000   0.200   0.200
   22       -0.001   0.000  -0.009  -0.009
   23       -0.001   0.000  -0.008  -0.008
   24       -0.001   0.000  -0.068  -0.069
   25        0.001  -0.005  -0.000  -0.004
   26        0.001  -0.005  -0.000  -0.004
   27        0.003   0.019   0.000   0.022
   28        0.003   0.019   0.000   0.022
   29        0.006   0.059   0.000   0.064
   30        0.006   0.059   0.000   0.064
   31        0.001   0.007   0.000   0.009
   32        0.001   0.007   0.000   0.009
   33        0.006   0.058   0.000   0.064
   34        0.006   0.058   0.000   0.064
   35        0.001   0.007   0.000   0.009
   36        0.001   0.007   0.000   0.009
   37        0.003   0.019   0.000   0.022
   38        0.003   0.019   0.000   0.022
   39        0.001  -0.003  -0.000  -0.002
   40        0.001  -0.003  -0.000  -0.002
   41        0.003   0.019   0.000   0.021
   42        0.003   0.019   0.000   0.021
   43        0.001  -0.005  -0.000  -0.005
   44        0.001  -0.005  -0.000  -0.005
   45        0.006   0.059   0.000   0.064
   46        0.006   0.059   0.000   0.064
   47        0.001   0.007   0.000   0.008
   48        0.001   0.007   0.000   0.008
   49        0.006   0.059   0.000   0.065
   50        0.006   0.059   0.000   0.065
   51        0.001   0.007   0.000   0.009
   52        0.001   0.007   0.000   0.009
   53        0.001  -0.003  -0.000  -0.002
   54        0.001  -0.003  -0.000  -0.002
   55        0.003   0.019   0.000   0.022
   56        0.003   0.019   0.000   0.022
--------------------------------------------------
tot           0.11    0.67    2.69    3.47
 

 total amount of memory used by VASP MPI-rank0    94687. kBytes
=======================================================================

   base      :      30000. kBytes
   nonlr-proj:      22863. kBytes
   fftplans  :       5418. kBytes
   grid      :      31961. kBytes
   one-center:        870. kBytes
   wavefun   :       3575. kBytes
 
  
  
 General timing and accounting informations for this job:
 ========================================================
  
                  Total CPU time used (sec):     1189.271
                            User time (sec):     1185.621
                          System time (sec):        3.650
                         Elapsed time (sec):     1197.148
  
                   Maximum memory used (kb):      145320.
                   Average memory used (kb):           0.
  
                          Minor page faults:        38405
                          Major page faults:            9
                 Voluntary context switches:         1287
