 vasp.5.4.4.18Apr17-6-g9f103f2a35 (build May 12 2020 05:39:39) gamma-only       
  
 MD_VERSION_INFO: Compiled 2020-05-12T12:39:39-UTC in devlin.sd.materialsdesign.
 com:/home/medea2/data/build/wwolf/vasp-gpu5.4.4/13047/x86_64/src/src/build/gam 
 from svn 13047
 
 This VASP executable licensed from Materials Design, Inc.
 
 executed on                        Lin64 date 2023.03.07  05:14:39
 running on   16 total cores
 distrk:  each k-point on   16 cores,    1 groups
 distr:  one band on NCORES_PER_BAND=   1 cores,   16 groups


--------------------------------------------------------------------------------------------------------


 INCAR:
 POTCAR:    PAW_PBE Li_sv 10Sep2004               
 POTCAR:    PAW_PBE Ni 02Aug2007                  
 POTCAR:    PAW_PBE O 08Apr2002                   

 ----------------------------------------------------------------------------- 
|                                                                             |
|           W    W    AA    RRRRR   N    N  II  N    N   GGGG   !!!           |
|           W    W   A  A   R    R  NN   N  II  NN   N  G    G  !!!           |
|           W    W  A    A  R    R  N N  N  II  N N  N  G       !!!           |
|           W WW W  AAAAAA  RRRRR   N  N N  II  N  N N  G  GGG   !            |
|           WW  WW  A    A  R   R   N   NN  II  N   NN  G    G                |
|           W    W  A    A  R    R  N    N  II  N    N   GGGG   !!!           |
|                                                                             |
|      For optimal performance we recommend to set                            |
|        NCORE= 4 - approx SQRT( number of cores)                             |
|      NCORE specifies how many cores store one orbital (NPAR=cpu/NCORE).     |
|      This setting can  greatly improve the performance of VASP for DFT.     |
|      The default,   NCORE=1            might be grossly inefficient         |
|      on modern multi-core architectures or massively parallel machines.     |
|      Do your own testing !!!!                                               |
|      Unfortunately you need to use the default for GW and RPA calculations. |
|      (for HF NCORE is supported but not extensively tested yet)             |
|                                                                             |
 ----------------------------------------------------------------------------- 

 POTCAR:    PAW_PBE Li_sv 10Sep2004               
  local pseudopotential read in
  atomic valenz-charges read in
  non local Contribution for L=           0  read in
    real space projection operators read in
  non local Contribution for L=           0  read in
    real space projection operators read in
  non local Contribution for L=           1  read in
    real space projection operators read in
    PAW grid and wavefunctions read in
 
   number of l-projection  operators is LMAX  =           3
   number of lm-projection operators is LMMAX =           5
 
 POTCAR:    PAW_PBE Ni 02Aug2007                  
  local pseudopotential read in
  partial core-charges read in
  partial kinetic energy density read in
  atomic valenz-charges read in
  non local Contribution for L=           2  read in
    real space projection operators read in
  non local Contribution for L=           2  read in
    real space projection operators read in
  non local Contribution for L=           0  read in
    real space projection operators read in
  non local Contribution for L=           0  read in
    real space projection operators read in
  non local Contribution for L=           1  read in
    real space projection operators read in
  non local Contribution for L=           1  read in
    real space projection operators read in
    PAW grid and wavefunctions read in
 
   number of l-projection  operators is LMAX  =           6
   number of lm-projection operators is LMMAX =          18
 
 POTCAR:    PAW_PBE O 08Apr2002                   
  local pseudopotential read in
  partial core-charges read in
  partial kinetic energy density read in
  kinetic energy density of atom read in
  atomic valenz-charges read in
  non local Contribution for L=           0  read in
    real space projection operators read in
  non local Contribution for L=           0  read in
    real space projection operators read in
  non local Contribution for L=           1  read in
    real space projection operators read in
  non local Contribution for L=           1  read in
    real space projection operators read in
    PAW grid and wavefunctions read in
 
   number of l-projection  operators is LMAX  =           4
   number of lm-projection operators is LMMAX =           8
 
 Optimization of the real space projectors (new method)

 maximal supplied QI-value         = 22.11
 optimisation between [QCUT,QGAM] = [ 11.28, 22.77] = [ 35.61,145.23] Ry 
 Optimized for a Real-space Cutoff    1.10 Angstroem

   l    n(q)    QCUT    max X(q) W(low)/X(q) W(high)/X(q)  e(spline) 
   0      7    11.276    10.506    0.54E-04    0.58E-04    0.16E-07
   0      7    11.276     8.367    0.11E-03    0.14E-03    0.35E-07
   1      7    11.276     8.983    0.23E-03    0.43E-03    0.86E-07
 Optimization of the real space projectors (new method)

 maximal supplied QI-value         = 16.25
 optimisation between [QCUT,QGAM] = [ 11.38, 22.75] = [ 36.24,144.96] Ry 
 Optimized for a Real-space Cutoff    1.47 Angstroem

   l    n(q)    QCUT    max X(q) W(low)/X(q) W(high)/X(q)  e(spline) 
   2      9    11.376    60.317    0.17E-03    0.16E-04    0.16E-06
   2      9    11.376    55.921    0.17E-03    0.16E-04    0.17E-06
   0     10    11.376    51.690    0.45E-04    0.60E-04    0.21E-06
   0     10    11.376    30.015    0.37E-04    0.55E-04    0.19E-06
   1     10    11.376    18.849    0.83E-04    0.11E-03    0.92E-07
   1     10    11.376    14.624    0.69E-04    0.92E-04    0.82E-07
 Optimization of the real space projectors (new method)

 maximal supplied QI-value         = 24.76
 optimisation between [QCUT,QGAM] = [ 11.39, 22.77] = [ 36.31,145.25] Ry 
 Optimized for a Real-space Cutoff    1.10 Angstroem

   l    n(q)    QCUT    max X(q) W(low)/X(q) W(high)/X(q)  e(spline) 
   0      7    11.387    20.381    0.22E-03    0.48E-03    0.18E-06
   0      7    11.387    15.268    0.22E-03    0.52E-03    0.19E-06
   1      7    11.387     5.964    0.22E-03    0.73E-03    0.24E-06
   1      7    11.387     5.382    0.19E-03    0.60E-03    0.21E-06

 ----------------------------------------------------------------------------- 
|                                                                             |
|  ADVICE TO THIS USER RUNNING 'VASP/VAMP'   (HEAR YOUR MASTER'S VOICE ...):  |
|                                                                             |
|      You enforced a specific xc-type in the INCAR file,                     |
|      a different type was found on the POTCAR file                          |
|          I HOPE YOU KNOW, WHAT YOU ARE  DOING                               |
|                                                                             |
 ----------------------------------------------------------------------------- 

  PAW_PBE Li_sv 10Sep2004               :
 energy of atom  1       EATOM= -202.7858
 kinetic energy error for atom=    0.0143 (will be added to EATOM!!)
  PAW_PBE Ni 02Aug2007                  :
 energy of atom  2       EATOM=-1077.6739
 kinetic energy error for atom=    0.0030 (will be added to EATOM!!)
  PAW_PBE O 08Apr2002                   :
 energy of atom  3       EATOM= -432.3788
 kinetic energy error for atom=    0.0224 (will be added to EATOM!!)
 
 
 POSCAR: ce630_1                                 
  positions in direct lattice
  No initial velocities read in
 exchange correlation table for  LEXCH =       14
   RHO(1)=    0.500       N(1)  =     2000
   RHO(2)=  100.500       N(2)  =     4000
 


--------------------------------------------------------------------------------------------------------


 ion  position               nearest neighbor table
   1  0.996  0.251  0.235-  44 2.02  39 2.07  36 2.10  51 2.18  48 2.20  30 2.22  12 2.76
   2  0.001  0.749  0.751-  45 2.06  31 2.08  37 2.13  49 2.14  38 2.15  50 2.16  14 2.83  15 2.84
                            21 2.84
   3  0.249  0.250  0.500-  52 2.09  48 2.09  30 2.14  28 2.14  40 2.15  42 2.16  18 2.84  20 2.84

   4  0.258  0.750  0.500-  43 2.07  41 2.07  53 2.12  49 2.12  31 2.12  29 2.13  14 2.81  22 2.81

   5  0.741  0.750  0.500-  43 2.08  41 2.08  31 2.13  29 2.13  54 2.14  50 2.14  15 2.81  23 2.81

   6  0.503  0.252  0.233-  56 2.02  39 2.07  36 2.09  51 2.18  48 2.19  42 2.28  17 2.78
   7  0.996  0.248  0.765-  46 2.02  35 2.07  32 2.10  55 2.18  52 2.20  28 2.22  26 2.76
   8  0.001  0.750  0.250-  47 2.06  29 2.07  33 2.14  53 2.14  34 2.15  54 2.16  22 2.83  23 2.84
                            13 2.84
   9  0.261  0.750  1.000-  37 2.09  33 2.09  59 2.09  57 2.09  47 2.16  45 2.16  13 2.83  21 2.83

  10  0.741  0.750  1.000-  59 2.08  57 2.08  38 2.10  34 2.10  47 2.15  45 2.15
  11  0.503  0.247  0.767-  58 2.02  35 2.07  32 2.10  55 2.17  52 2.19  40 2.28  27 2.78
  12  0.000  0.004  0.001-  37 1.85  38 1.85  36 1.86  39 1.86  46 2.00  47 2.09   1 2.76  17 2.78
                            17 2.78  13 2.86  14 2.86  15 2.86  16 2.87
  13  0.251  0.995  0.248-  42 1.85  30 1.85  59 1.87  47 1.87  36 1.99  53 2.01  16 2.78  16 2.79
                             9 2.83   8 2.84  19 2.85  12 2.86  17 2.87  18 2.87
  14  0.250  0.993  0.747-  58 1.85  46 1.85  43 1.86  31 1.87  37 2.03  52 2.08  15 2.78  15 2.79
                             4 2.81   2 2.83  17 2.85  18 2.86  12 2.86  19 2.87
  15  0.749  0.993  0.747-  58 1.85  46 1.85  43 1.87  31 1.87  55 1.99  38 2.01  14 2.78  14 2.79
                             5 2.81   2 2.84  17 2.85  18 2.86  19 2.86  12 2.86
  16  0.750  0.998  0.250-  42 1.87  47 1.87  30 1.87  59 1.87  39 1.97  54 1.99  13 2.78  13 2.79
                            19 2.84  18 2.85  12 2.87  17 2.88
  17  0.500  0.001  0.999-  36 1.87  38 1.87  37 1.88  39 1.88  58 1.98  59 1.98   6 2.78  12 2.78
                            12 2.78  15 2.85  14 2.85  13 2.87  16 2.88
  18  0.999  0.005  0.502-  54 1.85  53 1.85  55 1.86  52 1.87  30 2.03  31 2.08  19 2.78  19 2.79
                             3 2.84  16 2.85  15 2.86  14 2.86  13 2.87
  19  0.500  0.002  0.500-  55 1.87  54 1.87  52 1.87  53 1.87  43 1.97  42 1.99  18 2.78  18 2.79
                            16 2.84  13 2.85  15 2.86  14 2.87
  20  0.999  0.495  0.498-  50 1.85  49 1.85  51 1.86  48 1.87  28 2.03  29 2.08  25 2.78  25 2.79
                             3 2.84  24 2.85  23 2.86  22 2.86  21 2.87
  21  0.251  0.504  0.752-  40 1.85  28 1.85  57 1.87  45 1.87  32 1.99  49 2.01  24 2.78  24 2.79
                             9 2.83   2 2.84  25 2.85  26 2.86  27 2.87  20 2.87
  22  0.250  0.506  0.253-  56 1.85  44 1.85  41 1.86  29 1.87  33 2.03  48 2.07  23 2.78  23 2.79
                             4 2.81   8 2.83  27 2.85  20 2.86  26 2.86  25 2.87
  23  0.749  0.507  0.253-  56 1.85  44 1.85  41 1.87  29 1.87  51 1.99  34 2.01  22 2.78  22 2.79
                             5 2.81   8 2.84  27 2.85  20 2.86  26 2.86  25 2.87
  24  0.750  0.501  0.750-  40 1.87  28 1.87  45 1.87  57 1.87  35 1.97  50 2.00  21 2.78  21 2.79
                            25 2.84  20 2.85  26 2.87  27 2.88
  25  0.500  0.497  0.500-  51 1.87  50 1.87  48 1.87  49 1.87  41 1.97  40 1.99  20 2.78  20 2.79
                            24 2.84  21 2.85  23 2.87  22 2.87
  26  0.000  0.495  0.999-  33 1.85  34 1.85  32 1.86  35 1.86  44 2.00  45 2.09   7 2.76  27 2.78
                            27 2.79  21 2.86  23 2.86  22 2.86  24 2.87
  27  0.500  0.498  0.001-  32 1.87  34 1.87  33 1.87  35 1.88  57 1.97  56 1.97  11 2.78  26 2.78
                            26 2.79  23 2.85  22 2.85  21 2.87  24 2.88
  28  0.006  0.395  0.643-  21 1.85  24 1.87  20 2.03   3 2.14   7 2.22
  29  0.000  0.613  0.363-  22 1.87  23 1.87   8 2.07  20 2.08   4 2.13   5 2.13
  30  0.006  0.104  0.357-  13 1.85  16 1.87  18 2.03   3 2.14   1 2.22
  31  0.000  0.886  0.636-  14 1.87  15 1.87   2 2.08  18 2.08   4 2.12   5 2.13
  32  0.251  0.396  0.885-  26 1.86  27 1.87  21 1.99  11 2.10   7 2.10
  33  0.245  0.605  0.107-  26 1.85  27 1.87  22 2.03   9 2.09   8 2.14
  34  0.755  0.604  0.108-  26 1.85  27 1.87  23 2.01  10 2.10   8 2.15
  35  0.749  0.396  0.883-  26 1.86  27 1.88  24 1.97  11 2.07   7 2.07
  36  0.251  0.103  0.115-  12 1.86  17 1.87  13 1.99   6 2.09   1 2.10
  37  0.245  0.894  0.893-  12 1.85  17 1.88  14 2.03   9 2.09   2 2.13
  38  0.755  0.895  0.892-  12 1.85  17 1.87  15 2.01  10 2.10   2 2.15
  39  0.750  0.103  0.117-  12 1.86  17 1.88  16 1.97   6 2.07   1 2.07
  40  0.496  0.398  0.641-  21 1.85  24 1.87  25 1.99   3 2.15  11 2.28
  41  0.499  0.606  0.370-  22 1.86  23 1.87  25 1.97   4 2.07   5 2.08
  42  0.496  0.102  0.359-  13 1.85  16 1.87  19 1.99   3 2.16   6 2.28
  43  0.499  0.894  0.630-  14 1.86  15 1.87  19 1.97   4 2.07   5 2.08
  44  1.000  0.402  0.146-  22 1.85  23 1.85  26 2.00   1 2.02
  45  0.998  0.610  0.861-  21 1.87  24 1.87   2 2.06  26 2.09  10 2.15   9 2.16
  46  1.000  0.097  0.854-  14 1.85  15 1.85  12 2.00   7 2.02
  47  0.999  0.889  0.139-  13 1.87  16 1.87   8 2.06  12 2.09  10 2.15   9 2.16
  48  0.251  0.390  0.388-  20 1.87  25 1.87  22 2.07   3 2.09   6 2.19   1 2.20
  49  0.245  0.603  0.608-  20 1.85  25 1.87  21 2.01   4 2.12   2 2.14
  50  0.754  0.601  0.609-  20 1.85  25 1.87  24 2.00   5 2.14   2 2.16
  51  0.749  0.397  0.383-  20 1.86  25 1.87  23 1.99   6 2.18   1 2.18
  52  0.251  0.109  0.612-  18 1.87  19 1.87  14 2.08   3 2.09  11 2.19   7 2.20
  53  0.245  0.897  0.392-  18 1.85  19 1.87  13 2.01   4 2.12   8 2.14
  54  0.754  0.898  0.391-  18 1.85  19 1.87  16 1.99   5 2.14   8 2.16
  55  0.749  0.103  0.617-  18 1.86  19 1.87  15 1.99  11 2.17   7 2.18
  56  0.500  0.403  0.144-  22 1.85  23 1.85  27 1.97   6 2.02
  57  0.502  0.603  0.867-  21 1.87  24 1.87  27 1.97  10 2.08   9 2.09
  58  0.500  0.096  0.856-  14 1.85  15 1.85  17 1.98  11 2.02
  59  0.502  0.896  0.133-  13 1.87  16 1.87  17 1.98  10 2.08   9 2.09
 
  LATTYP: Found a triclinic cell.
 ALAT       =    14.9632075354
 B/A-ratio  =     0.3721739402
 C/A-ratio  =     0.7663652807
 COS(alpha) =     0.0000297518
 COS(beta)  =     0.3776454731
 COS(gamma) =     0.7443129351
  
  Lattice vectors:
  
 A1 = (  -9.9920648323,  11.1376191741,  -0.0982815671)
 A2 = (   0.0001748768,   5.5689159005,  -0.0002001242)
 A3 = (  -6.3911921707,   0.0001997209,  -9.5210942705)


Analysis of symmetry for initial positions (statically):
=====================================================================
 Subroutine PRICEL returns:
 Original cell was already a primitive cell.
 

 Routine SETGRP: Setting up the symmetry group for a 
 triclinic supercell.


 Subroutine GETGRP returns: Found  1 space group operations
 (whereof  1 operations were pure point group operations)
 out of a pool of  2 trial point group operations.


The static configuration has the point symmetry C_1 .


Analysis of symmetry for dynamics (positions and initial velocities):
=====================================================================
 Subroutine PRICEL returns:
 Original cell was already a primitive cell.
 

 Routine SETGRP: Setting up the symmetry group for a 
 triclinic supercell.


 Subroutine GETGRP returns: Found  1 space group operations
 (whereof  1 operations were pure point group operations)
 out of a pool of  2 trial point group operations.


The dynamic configuration has the point symmetry C_1 .


Analysis of structural, dynamic, and magnetic symmetry:
=====================================================================
 Subroutine PRICEL returns:
 Original cell was already a primitive cell.
 

 Routine SETGRP: Setting up the symmetry group for a 
 triclinic supercell.


 Subroutine GETGRP returns: Found  1 space group operations
 (whereof  1 operations were pure point group operations)
 out of a pool of  2 trial point group operations.


The magnetic configuration has the point symmetry C_1 .


 Subroutine INISYM returns: Found  1 space group operations
 (whereof  1 operations are pure point group operations),
 and found     1 'primitive' translations

 
 
 KPOINTS: Automatic mesh                          

Automatic generation of k-mesh.
Space group operators:
 irot       det(A)        alpha          n_x          n_y          n_z        tau_x        tau_y        tau_z
    1     1.000000     0.000001     1.000000     0.000000     0.000000     0.000000     0.000000     0.000000
 
 Subroutine IBZKPT returns following result:
 ===========================================
 
 Found      1 irreducible k-points:
 
 Following reciprocal coordinates:
            Coordinates               Weight
  0.000000  0.000000  0.000000      1.000000
 
 Following cartesian coordinates:
            Coordinates               Weight
  0.000000  0.000000  0.000000      1.000000
 


--------------------------------------------------------------------------------------------------------




 Dimension of arrays:
   k-points           NKPTS =      1   k-points in BZ     NKDIM =      1   number of bands    NBANDS=    256
   number of dos      NEDOS =    301   number of ions     NIONS =     59
   non local maximal  LDIM  =      6   non local SUM 2l+1 LMDIM =     18
   total plane-waves  NPLWV = 268800
   max r-space proj   IRMAX =   6906   max aug-charges    IRDMAX=  16752
   dimension x,y,z NGX =    42 NGY =   80 NGZ =   80
   dimension x,y,z NGXF=    84 NGYF=  160 NGZF=  160
   support grid    NGXF=    84 NGYF=  160 NGZF=  160
   ions per type =              11  16  32
   NGX,Y,Z   is equivalent  to a cutoff of  12.54, 13.18, 13.31 a.u.
   NGXF,Y,Z  is equivalent  to a cutoff of  25.08, 26.37, 26.62 a.u.

 SYSTEM =  unknown system                          
 POSCAR =  ce630_1                                 

 Startparameter for this run:
   NWRITE =      1    write-flag & timer
   PREC   = accura    normal or accurate (medium, high low for compatibility)
   ISTART =      0    job   : 0-new  1-cont  2-samecut
   ICHARG =      2    charge: 1-file 2-atom 10-const
   ISPIN  =      2    spin polarized calculation?
   LNONCOLLINEAR =      F non collinear calculations
   LSORBIT =      F    spin-orbit coupling
   INIWAV =      1    electr: 0-lowe 1-rand  2-diag
   LASPH  =      F    aspherical Exc in radial PAW
   METAGGA=      F    non-selfconsistent MetaGGA calc.

 Electronic Relaxation 1
   ENCUT  =  500.0 eV  36.75 Ry    6.06 a.u.  10.15 18.39 18.22*2*pi/ulx,y,z
   ENINI  =  500.0     initial cutoff
   ENAUG  =  628.9 eV  augmentation charge cutoff
   NELM   =     80;   NELMIN=  2; NELMDL= -5     # of ELM steps 
   EDIFF  = 0.1E-04   stopping-criterion for ELM
   LREAL  =      T    real-space projection
   NLSPLINE    = F    spline interpolate recip. space projectors
   LCOMPAT=      F    compatible to vasp.4.4
   GGA_COMPAT  = T    GGA compatible to vasp.4.4-vasp.4.6
   LMAXPAW     = -100 max onsite density
   LMAXMIX     =    2 max onsite mixed and CHGCAR
   VOSKOWN=      1    Vosko Wilk Nusair interpolation
   ROPT   =   -0.00025  -0.00025  -0.00025
 Ionic relaxation
   EDIFFG = -.2E-01   stopping-criterion for IOM
   NSW    =     20    number of steps for IOM
   NBLOCK =      1;   KBLOCK =     20    inner block; outer block 
   IBRION =      1    ionic relax: 0-MD 1-quasi-New 2-CG
   NFREE  =      0    steps in history (QN), initial steepest desc. (CG)
   ISIF   =      3    stress and relaxation
   IWAVPR =     11    prediction:  0-non 1-charg 2-wave 3-comb
   ISYM   =      2    0-nonsym 1-usesym 2-fastsym
   LCORR  =      T    Harris-Foulkes like correction to forces

   POTIM  = 0.5000    time-step for ionic-motion
   TEIN   =    0.0    initial temperature
   TEBEG  =    0.0;   TEEND  =   0.0 temperature during run
   SMASS  =  -3.00    Nose mass-parameter (am)
   estimated Nose-frequenzy (Omega)   =  0.10E-29 period in steps =****** mass=  -0.709E-27a.u.
   SCALEE = 1.0000    scale energy and forces
   NPACO  =    256;   APACO  = 16.0  distance and # of slots for P.C.
   PSTRESS=    0.0 pullay stress

  Mass of Ions in am
   POMASS =   7.01 58.69 16.00
  Ionic Valenz
   ZVAL   =   3.00 10.00  6.00
  Atomic Wigner-Seitz radii
   RWIGS  =   1.23  1.15  0.73
  virtual crystal weights 
   VCA    =   1.00  1.00  1.00
   NELECT =     385.0000    total number of electrons
   NUPDOWN=      -1.0000    fix difference up-down

 DOS related values:
   EMIN   =  10.00;   EMAX   =-10.00  energy-range for DOS
   EFERMI =   0.00
   ISMEAR =     0;   SIGMA  =   0.05  broadening in eV -4-tet -1-fermi 0-gaus

 Electronic relaxation 2 (details)
   IALGO  =     38    algorithm
   LDIAG  =      T    sub-space diagonalisation (order eigenvalues)
   LSUBROT=      F    optimize rotation matrix (better conditioning)
   TURBO    =      0    0=normal 1=particle mesh
   IRESTART =      0    0=no restart 2=restart with 2 vectors
   NREBOOT  =      0    no. of reboots
   NMIN     =      0    reboot dimension
   EREF     =   0.00    reference energy to select bands
   IMIX   =      4    mixing-type and parameters
     AMIX     =   0.40;   BMIX     =  1.00
     AMIX_MAG =   1.60;   BMIX_MAG =  1.00
     AMIN     =   0.10
     WC   =   100.;   INIMIX=   1;  MIXPRE=   1;  MAXMIX= -45

 Intra band minimization:
   WEIMIN = 0.0010     energy-eigenvalue tresh-hold
   EBREAK =  0.98E-08  absolut break condition
   DEPER  =   0.30     relativ break condition  

   TIME   =   0.40     timestep for ELM

  volume/ion in A,a.u.               =       8.92        60.20
  Fermi-wavevector in a.u.,A,eV,Ry     =   1.475052  2.787445 29.603279  2.175780
  Thomas-Fermi vector in A             =   2.589749
 
 Write flags
   LWAVE        =      F    write WAVECAR
   LDOWNSAMPLE  =      F    k-point downsampling of WAVECAR
   LCHARG       =      T    write CHGCAR
   LVTOT        =      F    write LOCPOT, total local potential
   LVHAR        =      F    write LOCPOT, Hartree potential only
   LELF         =      F    write electronic localiz. function (ELF)
   LORBIT       =      0    0 simple, 1 ext, 2 COOP (PROOUT), +10 PAW based schemes


 Dipole corrections
   LMONO  =      F    monopole corrections only (constant potential shift)
   LDIPOL =      F    correct potential (dipole corrections)
   IDIPOL =      0    1-x, 2-y, 3-z, 4-all directions 
   EPSILON=  1.0000000 bulk dielectric constant

 Exchange correlation treatment:
   GGA     =    PS    GGA type
   LEXCH   =    14    internal setting for exchange type
   VOSKOWN=      1    Vosko Wilk Nusair interpolation
   LHFCALC =     F    Hartree Fock is set to
   LHFONE  =     F    Hartree Fock one center treatment
   AEXX    =    0.0000 exact exchange contribution

 Linear response parameters
   LEPSILON=     F    determine dielectric tensor
   LRPA    =     F    only Hartree local field effects (RPA)
   LNABLA  =     F    use nabla operator in PAW spheres
   LVEL    =     F    velocity operator in full k-point grid
   LINTERFAST=   F  fast interpolation
   KINTER  =     0    interpolate to denser k-point grid
   CSHIFT  =0.1000    complex shift for real part using Kramers Kronig
   OMEGAMAX=  -1.0    maximum frequency
   DEG_THRESHOLD= 0.2000000E-02 threshold for treating states as degnerate
   RTIME   =   -0.100 relaxation time in fs
  (WPLASMAI=    0.000 imaginary part of plasma frequency in eV, 0.658/RTIME)
   DFIELD  = 0.0000000 0.0000000 0.0000000 field for delta impulse in time
 
 Orbital magnetization related:
   ORBITALMAG=     F  switch on orbital magnetization
   LCHIMAG   =     F  perturbation theory with respect to B field
   DQ        =  0.001000  dq finite difference perturbation B field
   LLRAUG    =     F  two centre corrections for induced B field



--------------------------------------------------------------------------------------------------------


 quasi-Newton-method for relaxation of ions
 charge density and potential will be updated during run
 spin polarized calculation
 Variant of blocked Davidson
 Davidson routine will perform the subspace rotation
 perform sub-space diagonalisation
    after iterative eigenvector-optimisation
 modified Broyden-mixing scheme, WC =      100.0
 initial mixing is a Kerker type mixing with AMIX =  0.4000 and BMIX =      1.0000
 Hartree-type preconditioning will be used
 using additional bands           63
 real space projection scheme for non local part
 use partial core corrections
 calculate Harris-corrections to forces 
   (improved forces if not selfconsistent)
 use gradient corrections 
 use of overlap-Matrix (Vanderbilt PP)
 Gauss-broadening in eV      SIGMA  =   0.05


--------------------------------------------------------------------------------------------------------


  energy-cutoff  :      500.00
  volume of cell :      526.34
      direct lattice vectors                 reciprocal lattice vectors
     0.000174877  5.568915901 -0.000200124    -0.000003883  0.179568164  0.000006374
    -3.601222415 -0.000412348  9.423212952    -0.001035637  0.000003832  0.105725133
     9.992414586  0.000212627  0.097881319     0.099702673 -0.000001762  0.038102874

  length of vectors
     5.568915907 10.087900941  9.992893978     0.179568164  0.105730205  0.106735430


 
 k-points in units of 2pi/SCALE and weight: Automatic mesh                          
   0.00000000  0.00000000  0.00000000       1.000
 
 k-points in reciprocal lattice and weights: Automatic mesh                          
   0.00000000  0.00000000  0.00000000       1.000
 
 position of ions in fractional coordinates (direct lattice) 
   0.99622229  0.25079397  0.23508475
   0.00124776  0.74925218  0.75056708
   0.24865174  0.24979132  0.49998271
   0.25820046  0.74979602  0.49990658
   0.74092420  0.74981724  0.49986926
   0.50303312  0.25196612  0.23301476
   0.99646820  0.24837031  0.76497558
   0.00138428  0.75030150  0.24960853
   0.26059587  0.74982898  0.99995248
   0.74118828  0.74983282  0.99990704
   0.50331167  0.24726286  0.76690526
   0.00001382  0.00390860  0.00124793
   0.25102920  0.99524589  0.24806793
   0.25027949  0.99297414  0.74728855
   0.74916566  0.99255849  0.74718930
   0.75008405  0.99839360  0.25036452
   0.49995470  0.00145547  0.99913167
   0.99912382  0.00462978  0.50202047
   0.50032597  0.00233028  0.49998303
   0.99903154  0.49501595  0.49792206
   0.25108840  0.50425011  0.75190732
   0.25026500  0.50633715  0.25260107
   0.74908359  0.50696232  0.25254668
   0.75003853  0.50092921  0.74953813
   0.50028818  0.49729144  0.49998223
   0.00005855  0.49536495  0.99850688
   0.49995660  0.49794252  0.00082602
   0.00565735  0.39531884  0.64296096
   0.00018559  0.61309813  0.36321362
   0.00575767  0.10437921  0.35692011
   0.00016590  0.88626178  0.63642699
   0.25112072  0.39617096  0.88507715
   0.24507619  0.60506845  0.10692711
   0.75453715  0.60408750  0.10769633
   0.74946261  0.39635030  0.88330387
   0.25100981  0.10326069  0.11487104
   0.24497019  0.89417179  0.89285038
   0.75456336  0.89507883  0.89215386
   0.74950232  0.10305327  0.11654468
   0.49574751  0.39770175  0.64087668
   0.49887962  0.60570572  0.36951064
   0.49571796  0.10182952  0.35893212
   0.49886776  0.89388312  0.63023749
   0.99966709  0.40208848  0.14555122
   0.99847274  0.61037393  0.86055963
   0.99965711  0.09708196  0.85441784
   0.99856866  0.88904743  0.13939641
   0.25086708  0.39027901  0.38798142
   0.24512893  0.60263171  0.60783199
   0.75411642  0.60130908  0.60907937
   0.74881699  0.39686036  0.38314577
   0.25086182  0.10940341  0.61195990
   0.24518080  0.89697246  0.39205583
   0.75419261  0.89830738  0.39085345
   0.74895280  0.10278989  0.61685626
   0.49975590  0.40325856  0.14371232
   0.50216793  0.60342504  0.86736131
   0.49991917  0.09615272  0.85614262
   0.50214551  0.89579933  0.13264259
 
 position of ions in cartesian coordinates  (Angst):
   1.44607363  5.54782472  2.38609602
   4.80175391  0.00679931  7.13382909
   4.09652391  1.38472394  2.40272601
   2.29513672  1.43769376  7.11436741
   2.29477180  4.12594166  7.11446711
   1.42108202  2.80129479  2.39703753
   6.74969067  5.54930784  2.41512372
  -0.20781042  0.00745263  7.09468255
   7.29168439  1.45113991  7.16362267
   7.29130055  4.12751861  7.16355823
   6.77287477  2.80296147  2.40497556
  -0.00160590  0.00007562  0.03695372
  -1.10526031  1.39760286  9.40264494
   3.89134004  1.39353487  9.43010228
   3.89193239  4.17179015  9.42607597
  -1.09356016  4.17679654  9.43243140
   9.97858383  2.78441752  0.11141148
   4.99989852  5.56414136  0.09256588
   4.98773336  2.78637860  0.07079760
   3.19295583  5.56342438  4.71317805
   5.69749678  1.39824213  4.82520360
   0.70070569  1.39354966  4.79599763
   0.69799806  4.17142817  4.80178359
   5.68586941  4.17685431  4.79357830
   3.20526014  2.78596405  4.73492194
   8.19357536  0.00033411  4.76566457
  -1.78486040  2.78401111  4.69219920
   5.00110240  0.03147901  3.78810635
   1.42147838  0.00085795  5.81290603
   3.19060197  0.03209683  1.01852218
   3.16781658  0.00069376  8.41372776
   7.41740200  1.39849500  3.81978558
  -1.11048319  1.36458193  5.71210598
  -1.09917512  4.20172774  5.70283561
   7.39912395  4.17371863  3.82120224
   0.77601824  1.39783437  0.98424097
   5.70166251  1.36403952  8.51331554
   5.69152525  4.20192051  8.52169261
   0.79357609  4.17389767  0.98235046
   4.97177972  2.76074847  3.81025893
   1.51110974  2.77804745  5.74376234
   3.21997449  2.76064596  0.99459480
   3.07860960  2.77791802  8.48483963
   0.00657291  5.56692710  3.80301206
   6.40115093  5.56034201  5.83571642
   8.18825837  5.56714802  0.99825547
  -1.80857619  5.56060793  8.39112772
   2.47143355  1.39697924  3.71560815
   3.90354129  1.36498314  5.73817328
   3.92085772  4.19949248  5.72573009
   2.39949991  4.17001666  3.77705264
   5.72101489  1.39711339  1.09078087
   0.68742994  1.36510475  8.49068838
   0.67069693  4.19974791  8.50304806
   5.79384521  4.17094393  1.02883984
  -0.01610329  2.78296285  3.81395802
   6.49405384  2.79646657  5.77100063
   8.20875210  2.78415021  0.98976788
  -1.90046506  2.79606494  8.45419059
 


--------------------------------------------------------------------------------------------------------


 use serial FFT for orbitals x direction half grid
 k-point  1 :   0.0000 0.0000 0.0000  plane waves:    6677

 maximum and minimum number of plane-waves per node :      6677     6677

 maximum number of plane-waves:      6677
 maximum index in each direction: 
   IXMAX=   10   IYMAX=   18   IZMAX=   18
   IXMIN=    0   IYMIN=  -18   IZMIN=  -18

 The following grids will avoid any aliasing or wrap around errors in the Hartre
 e energy
  - symmetry arguments have not been applied
  - exchange correlation energies might require even more grid points
  - we recommend to set PREC=Normal or Accurate and rely on VASP defaults
 NGX is ok and might be reduce to    42
 NGY is ok and might be reduce to    80
 NGZ is ok and might be reduce to    80

 serial   3D FFT for wavefunctions
 parallel 3D FFT for charge:
    minimum data exchange during FFTs selected (reduces bandwidth)


 total amount of memory used by VASP MPI-rank0   100292. kBytes
=======================================================================

   base      :      30000. kBytes
   nonlr-proj:      24381. kBytes
   fftplans  :       6149. kBytes
   grid      :      35266. kBytes
   one-center:        917. kBytes
   wavefun   :       3579. kBytes
 
     INWAV:  cpu time    0.0000: real time    0.0000
 Broyden mixing: mesh for mixing (old mesh)
   NGX = 21   NGY = 37   NGZ = 37
  (NGX  = 84   NGY  =160   NGZ  =160)
  gives a total of  28749 points

 initial charge density was supplied:
 charge density of overlapping atoms calculated
 number of electron     385.0000000 magnetization      40.0000000
 keeping initial charge density in first step


--------------------------------------------------------------------------------------------------------


 Maximum index for non-local projection operator         6685
 Maximum index for augmentation-charges         1576 (set IRDMAX)


--------------------------------------------------------------------------------------------------------


 First call to EWALD:  gamma=   0.220
 Maximum number of real-space cells 4x 2x 2
 Maximum number of reciprocal cells 2x 3x 3

    FEWALD:  cpu time    0.0036: real time    0.0036


--------------------------------------- Iteration      1(   1)  ---------------------------------------


    POTLOK:  cpu time    0.2113: real time    0.2169
    SETDIJ:  cpu time    0.0329: real time    0.0330
     EDDAV:  cpu time    2.1749: real time    2.1968
    --------------------------------------------
      LOOP:  cpu time    2.4196: real time    2.4472

 eigenvalue-minimisations  :  1040
 total energy-change (2. order) : 0.6724645E+04  (-0.1710869E+05)
 number of electron     385.0000000 magnetization      40.0000000
 augmentation part      385.0000000 magnetization      40.0000000

 Free energy of the ion-electron system (eV)
  ---------------------------------------------------
  alpha Z        PSCENC =      1200.70225609
  Ewald energy   TEWEN  =    -23190.05145823
  -Hartree energ DENC   =    -10766.74412991
  -exchange      EXHF   =         0.00000000
  -V(xc)+E(xc)   XCENC  =      1569.74727398
  PAW double counting   =     27341.08330877   -28624.25545446
  entropy T*S    EENTRO =        -0.01293397
  eigenvalues    EBANDS =      5969.31272979
  atomic energy  EATOM  =     33224.86309968
  Solvation  Ediel_sol  =         0.00000000
  ---------------------------------------------------
  free energy    TOTEN  =      6724.64469174 eV

  energy without entropy =     6724.65762572  energy(sigma->0) =     6724.65115873


--------------------------------------------------------------------------------------------------------




--------------------------------------- Iteration      1(   2)  ---------------------------------------


     EDDAV:  cpu time    2.2699: real time    2.2753
    --------------------------------------------
      LOOP:  cpu time    2.2697: real time    2.2751

 eigenvalue-minimisations  :  1056
 total energy-change (2. order) :-0.5438515E+04  (-0.4859214E+04)
 number of electron     385.0000000 magnetization      40.0000000
 augmentation part      385.0000000 magnetization      40.0000000

 Free energy of the ion-electron system (eV)
  ---------------------------------------------------
  alpha Z        PSCENC =      1200.70225609
  Ewald energy   TEWEN  =    -23190.05145823
  -Hartree energ DENC   =    -10766.74412991
  -exchange      EXHF   =         0.00000000
  -V(xc)+E(xc)   XCENC  =      1569.74727398
  PAW double counting   =     27341.08330877   -28624.25545446
  entropy T*S    EENTRO =        -0.02450909
  eigenvalues    EBANDS =       530.80966191
  atomic energy  EATOM  =     33224.86309968
  Solvation  Ediel_sol  =         0.00000000
  ---------------------------------------------------
  free energy    TOTEN  =      1286.13004875 eV

  energy without entropy =     1286.15455784  energy(sigma->0) =     1286.14230329


--------------------------------------------------------------------------------------------------------




--------------------------------------- Iteration      1(   3)  ---------------------------------------


     EDDAV:  cpu time    2.4682: real time    2.4741
    --------------------------------------------
      LOOP:  cpu time    2.4683: real time    2.4741

 eigenvalue-minimisations  :  1184
 total energy-change (2. order) :-0.1500957E+04  (-0.1246103E+04)
 number of electron     385.0000000 magnetization      40.0000000
 augmentation part      385.0000000 magnetization      40.0000000

 Free energy of the ion-electron system (eV)
  ---------------------------------------------------
  alpha Z        PSCENC =      1200.70225609
  Ewald energy   TEWEN  =    -23190.05145823
  -Hartree energ DENC   =    -10766.74412991
  -exchange      EXHF   =         0.00000000
  -V(xc)+E(xc)   XCENC  =      1569.74727398
  PAW double counting   =     27341.08330877   -28624.25545446
  entropy T*S    EENTRO =        -0.07010899
  eigenvalues    EBANDS =      -970.10184986
  atomic energy  EATOM  =     33224.86309968
  Solvation  Ediel_sol  =         0.00000000
  ---------------------------------------------------
  free energy    TOTEN  =      -214.82706293 eV

  energy without entropy =     -214.75695394  energy(sigma->0) =     -214.79200843


--------------------------------------------------------------------------------------------------------




--------------------------------------- Iteration      1(   4)  ---------------------------------------


     EDDAV:  cpu time    2.5261: real time    2.5321
    --------------------------------------------
      LOOP:  cpu time    2.5261: real time    2.5320

 eigenvalue-minimisations  :  1216
 total energy-change (2. order) :-0.2401294E+03  (-0.2320260E+03)
 number of electron     385.0000000 magnetization      40.0000000
 augmentation part      385.0000000 magnetization      40.0000000

 Free energy of the ion-electron system (eV)
  ---------------------------------------------------
  alpha Z        PSCENC =      1200.70225609
  Ewald energy   TEWEN  =    -23190.05145823
  -Hartree energ DENC   =    -10766.74412991
  -exchange      EXHF   =         0.00000000
  -V(xc)+E(xc)   XCENC  =      1569.74727398
  PAW double counting   =     27341.08330877   -28624.25545446
  entropy T*S    EENTRO =        -0.16165651
  eigenvalues    EBANDS =     -1210.13966147
  atomic energy  EATOM  =     33224.86309968
  Solvation  Ediel_sol  =         0.00000000
  ---------------------------------------------------
  free energy    TOTEN  =      -454.95642205 eV

  energy without entropy =     -454.79476555  energy(sigma->0) =     -454.87559380


--------------------------------------------------------------------------------------------------------




--------------------------------------- Iteration      1(   5)  ---------------------------------------


     EDDAV:  cpu time    3.0216: real time    3.0287
    CHARGE:  cpu time    0.1274: real time    0.1278
    MIXING:  cpu time    0.0036: real time    0.0084
    --------------------------------------------
      LOOP:  cpu time    3.1523: real time    3.1645

 eigenvalue-minimisations  :  1680
 total energy-change (2. order) :-0.1274650E+02  (-0.1262101E+02)
 number of electron     384.9999849 magnetization      42.1890750
 augmentation part      116.1003271 magnetization      31.5550034

 Broyden mixing:
  rms(total) = 0.11236E+02    rms(broyden)= 0.11235E+02
  rms(prec ) = 0.13686E+02
  weight for this iteration     100.00

 Free energy of the ion-electron system (eV)
  ---------------------------------------------------
  alpha Z        PSCENC =      1200.70225609
  Ewald energy   TEWEN  =    -23190.05145823
  -Hartree energ DENC   =    -10766.74412991
  -exchange      EXHF   =         0.00000000
  -V(xc)+E(xc)   XCENC  =      1569.74727398
  PAW double counting   =     27341.08330877   -28624.25545446
  entropy T*S    EENTRO =        -0.15429469
  eigenvalues    EBANDS =     -1222.89351965
  atomic energy  EATOM  =     33224.86309968
  Solvation  Ediel_sol  =         0.00000000
  ---------------------------------------------------
  free energy    TOTEN  =      -467.70291841 eV

  energy without entropy =     -467.54862373  energy(sigma->0) =     -467.62577107


--------------------------------------------------------------------------------------------------------




--------------------------------------- Iteration      1(   6)  ---------------------------------------


    POTLOK:  cpu time    0.1548: real time    0.1552
    SETDIJ:  cpu time    0.0231: real time    0.0232
     EDDAV:  cpu time    2.4015: real time    2.4072
    CHARGE:  cpu time    0.1222: real time    0.1224
    MIXING:  cpu time    0.0035: real time    0.0036
    --------------------------------------------
      LOOP:  cpu time    2.7052: real time    2.7116

 eigenvalue-minimisations  :  1536
 total energy-change (2. order) :-0.1587544E+02  (-0.1055036E+03)
 number of electron     384.9999822 magnetization      36.0930202
 augmentation part      146.2677455 magnetization      34.0482242

 Broyden mixing:
  rms(total) = 0.17975E+02    rms(broyden)= 0.17974E+02
  rms(prec ) = 0.19839E+02
  weight for this iteration     100.00

 eigenvalues of (default mixing * dielectric matrix)
  average eigenvalue GAMMA=   0.2531
  0.2531

 Free energy of the ion-electron system (eV)
  ---------------------------------------------------
  alpha Z        PSCENC =      1200.70225609
  Ewald energy   TEWEN  =    -23190.05145823
  -Hartree energ DENC   =    -10281.99789618
  -exchange      EXHF   =         0.00000000
  -V(xc)+E(xc)   XCENC  =      1582.67800989
  PAW double counting   =     30090.16017779   -31207.01452386
  entropy T*S    EENTRO =        -0.04912356
  eigenvalues    EBANDS =     -1902.86890078
  atomic energy  EATOM  =     33224.86309968
  Solvation  Ediel_sol  =         0.00000000
  ---------------------------------------------------
  free energy    TOTEN  =      -483.57835916 eV

  energy without entropy =     -483.52923560  energy(sigma->0) =     -483.55379738


--------------------------------------------------------------------------------------------------------




--------------------------------------- Iteration      1(   7)  ---------------------------------------


    POTLOK:  cpu time    0.1585: real time    0.1589
    SETDIJ:  cpu time    0.0238: real time    0.0238
     EDDAV:  cpu time    2.8133: real time    2.8200
    CHARGE:  cpu time    0.1528: real time    0.1532
    MIXING:  cpu time    0.0052: real time    0.0052
    --------------------------------------------
      LOOP:  cpu time    3.1536: real time    3.1611

 eigenvalue-minimisations  :  1408
 total energy-change (2. order) : 0.1209740E+03  (-0.2558782E+02)
 number of electron     384.9999828 magnetization      26.8287917
 augmentation part      132.2725461 magnetization      24.1503167

 Broyden mixing:
  rms(total) = 0.53606E+01    rms(broyden)= 0.53600E+01
  rms(prec ) = 0.60280E+01
  weight for this iteration     100.00

 eigenvalues of (default mixing * dielectric matrix)
  average eigenvalue GAMMA=   0.5804
  0.5804  0.5804

 Free energy of the ion-electron system (eV)
  ---------------------------------------------------
  alpha Z        PSCENC =      1200.70225609
  Ewald energy   TEWEN  =    -23190.05145823
  -Hartree energ DENC   =    -10496.33076883
  -exchange      EXHF   =         0.00000000
  -V(xc)+E(xc)   XCENC  =      1570.36374155
  PAW double counting   =     31405.98550978   -32655.08467766
  entropy T*S    EENTRO =        -0.01536181
  eigenvalues    EBANDS =     -1423.03667217
  atomic energy  EATOM  =     33224.86309968
  Solvation  Ediel_sol  =         0.00000000
  ---------------------------------------------------
  free energy    TOTEN  =      -362.60433159 eV

  energy without entropy =     -362.58896978  energy(sigma->0) =     -362.59665068


--------------------------------------------------------------------------------------------------------




--------------------------------------- Iteration      1(   8)  ---------------------------------------


    POTLOK:  cpu time    0.1972: real time    0.1977
    SETDIJ:  cpu time    0.0326: real time    0.0327
     EDDAV:  cpu time    2.9120: real time    2.9188
    CHARGE:  cpu time    0.1195: real time    0.1198
    MIXING:  cpu time    0.0039: real time    0.0039
    --------------------------------------------
      LOOP:  cpu time    3.2652: real time    3.2729

 eigenvalue-minimisations  :  1568
 total energy-change (2. order) : 0.1465267E+01  (-0.8925962E+01)
 number of electron     384.9999823 magnetization      21.9211872
 augmentation part      127.6668860 magnetization      19.5541677

 Broyden mixing:
  rms(total) = 0.41451E+01    rms(broyden)= 0.41445E+01
  rms(prec ) = 0.50571E+01
  weight for this iteration     100.00

 eigenvalues of (default mixing * dielectric matrix)
  average eigenvalue GAMMA=   0.5747
  0.6980  0.6980  0.3282

 Free energy of the ion-electron system (eV)
  ---------------------------------------------------
  alpha Z        PSCENC =      1200.70225609
  Ewald energy   TEWEN  =    -23190.05145823
  -Hartree energ DENC   =    -10484.77852495
  -exchange      EXHF   =         0.00000000
  -V(xc)+E(xc)   XCENC  =      1560.55405081
  PAW double counting   =     32761.77100094   -34060.62078369
  entropy T*S    EENTRO =        -0.02817774
  eigenvalues    EBANDS =     -1373.55052780
  atomic energy  EATOM  =     33224.86309968
  Solvation  Ediel_sol  =         0.00000000
  ---------------------------------------------------
  free energy    TOTEN  =      -361.13906488 eV

  energy without entropy =     -361.11088714  energy(sigma->0) =     -361.12497601


--------------------------------------------------------------------------------------------------------




--------------------------------------- Iteration      1(   9)  ---------------------------------------


    POTLOK:  cpu time    0.1588: real time    0.1592
    SETDIJ:  cpu time    0.0232: real time    0.0233
     EDDAV:  cpu time    2.7211: real time    2.7275
    CHARGE:  cpu time    0.1483: real time    0.1487
    MIXING:  cpu time    0.0049: real time    0.0049
    --------------------------------------------
      LOOP:  cpu time    3.0563: real time    3.0635

 eigenvalue-minimisations  :  1456
 total energy-change (2. order) :-0.3982099E+01  (-0.6512692E+01)
 number of electron     384.9999818 magnetization      17.8994052
 augmentation part      127.5102420 magnetization      14.8331714

 Broyden mixing:
  rms(total) = 0.48336E+01    rms(broyden)= 0.48330E+01
  rms(prec ) = 0.65164E+01
  weight for this iteration     100.00

 eigenvalues of (default mixing * dielectric matrix)
  average eigenvalue GAMMA=   0.5657
  0.8899  0.7514  0.4094  0.2120

 Free energy of the ion-electron system (eV)
  ---------------------------------------------------
  alpha Z        PSCENC =      1200.70225609
  Ewald energy   TEWEN  =    -23190.05145823
  -Hartree energ DENC   =    -10459.05597956
  -exchange      EXHF   =         0.00000000
  -V(xc)+E(xc)   XCENC  =      1558.09039926
  PAW double counting   =     33491.37652001   -34796.93314120
  entropy T*S    EENTRO =        -0.04054847
  eigenvalues    EBANDS =     -1394.07231167
  atomic energy  EATOM  =     33224.86309968
  Solvation  Ediel_sol  =         0.00000000
  ---------------------------------------------------
  free energy    TOTEN  =      -365.12116410 eV

  energy without entropy =     -365.08061563  energy(sigma->0) =     -365.10088986


--------------------------------------------------------------------------------------------------------




--------------------------------------- Iteration      1(  10)  ---------------------------------------


    POTLOK:  cpu time    0.1993: real time    0.1998
    SETDIJ:  cpu time    0.0382: real time    0.0383
     EDDAV:  cpu time    2.5835: real time    2.5896
    CHARGE:  cpu time    0.1447: real time    0.1451
    MIXING:  cpu time    0.0051: real time    0.0051
    --------------------------------------------
      LOOP:  cpu time    2.9709: real time    2.9779

 eigenvalue-minimisations  :  1408
 total energy-change (2. order) : 0.4972587E+01  (-0.4954584E+01)
 number of electron     384.9999824 magnetization      12.4019982
 augmentation part      128.0468340 magnetization       9.5618918

 Broyden mixing:
  rms(total) = 0.24117E+01    rms(broyden)= 0.24108E+01
  rms(prec ) = 0.31049E+01
  weight for this iteration     100.00

 eigenvalues of (default mixing * dielectric matrix)
  average eigenvalue GAMMA=   0.6409
  1.5450  0.5248  0.5248  0.4748  0.1354

 Free energy of the ion-electron system (eV)
  ---------------------------------------------------
  alpha Z        PSCENC =      1200.70225609
  Ewald energy   TEWEN  =    -23190.05145823
  -Hartree energ DENC   =    -10450.54901279
  -exchange      EXHF   =         0.00000000
  -V(xc)+E(xc)   XCENC  =      1557.08302774
  PAW double counting   =     34137.80994465   -35451.59839792
  entropy T*S    EENTRO =        -0.02800134
  eigenvalues    EBANDS =     -1388.38003497
  atomic energy  EATOM  =     33224.86309968
  Solvation  Ediel_sol  =         0.00000000
  ---------------------------------------------------
  free energy    TOTEN  =      -360.14857710 eV

  energy without entropy =     -360.12057576  energy(sigma->0) =     -360.13457643


--------------------------------------------------------------------------------------------------------




--------------------------------------- Iteration      1(  11)  ---------------------------------------


    POTLOK:  cpu time    0.2142: real time    0.2147
    SETDIJ:  cpu time    0.0333: real time    0.0333
     EDDAV:  cpu time    2.2762: real time    2.2816
    CHARGE:  cpu time    0.1134: real time    0.1137
    MIXING:  cpu time    0.0039: real time    0.0039
    --------------------------------------------
      LOOP:  cpu time    2.6410: real time    2.6473

 eigenvalue-minimisations  :  1312
 total energy-change (2. order) :-0.1253584E+01  (-0.2438143E+01)
 number of electron     384.9999823 magnetization       9.8294365
 augmentation part      128.1584059 magnetization       7.3171946

 Broyden mixing:
  rms(total) = 0.26872E+01    rms(broyden)= 0.26867E+01
  rms(prec ) = 0.36564E+01
  weight for this iteration     100.00

 eigenvalues of (default mixing * dielectric matrix)
  average eigenvalue GAMMA=   0.6227
  1.7820  0.5637  0.5637  0.4469  0.2477  0.1319

 Free energy of the ion-electron system (eV)
  ---------------------------------------------------
  alpha Z        PSCENC =      1200.70225609
  Ewald energy   TEWEN  =    -23190.05145823
  -Hartree energ DENC   =    -10456.83193451
  -exchange      EXHF   =         0.00000000
  -V(xc)+E(xc)   XCENC  =      1557.16140988
  PAW double counting   =     35025.38441982   -36353.98641732
  entropy T*S    EENTRO =        -0.02025171
  eigenvalues    EBANDS =     -1368.62328503
  atomic energy  EATOM  =     33224.86309968
  Solvation  Ediel_sol  =         0.00000000
  ---------------------------------------------------
  free energy    TOTEN  =      -361.40216133 eV

  energy without entropy =     -361.38190962  energy(sigma->0) =     -361.39203548


--------------------------------------------------------------------------------------------------------




--------------------------------------- Iteration      1(  12)  ---------------------------------------


    POTLOK:  cpu time    0.1495: real time    0.1498
    SETDIJ:  cpu time    0.0236: real time    0.0237
     EDDAV:  cpu time    2.3523: real time    2.3579
    CHARGE:  cpu time    0.1488: real time    0.1491
    MIXING:  cpu time    0.0052: real time    0.0052
    --------------------------------------------
      LOOP:  cpu time    2.6794: real time    2.6858

 eigenvalue-minimisations  :  1248
 total energy-change (2. order) : 0.1379960E+01  (-0.2090292E+01)
 number of electron     384.9999821 magnetization       8.2320302
 augmentation part      128.1460982 magnetization       6.1820703

 Broyden mixing:
  rms(total) = 0.15166E+01    rms(broyden)= 0.15157E+01
  rms(prec ) = 0.20557E+01
  weight for this iteration     100.00

 eigenvalues of (default mixing * dielectric matrix)
  average eigenvalue GAMMA=   0.6050
  1.9019  0.5798  0.5798  0.4479  0.4479  0.1388  0.1388

 Free energy of the ion-electron system (eV)
  ---------------------------------------------------
  alpha Z        PSCENC =      1200.70225609
  Ewald energy   TEWEN  =    -23190.05145823
  -Hartree energ DENC   =    -10464.10042009
  -exchange      EXHF   =         0.00000000
  -V(xc)+E(xc)   XCENC  =      1557.46920005
  PAW double counting   =     35436.43592306   -36772.11021688
  entropy T*S    EENTRO =        -0.04448774
  eigenvalues    EBANDS =     -1353.18609771
  atomic energy  EATOM  =     33224.86309968
  Solvation  Ediel_sol  =         0.00000000
  ---------------------------------------------------
  free energy    TOTEN  =      -360.02220176 eV

  energy without entropy =     -359.97771402  energy(sigma->0) =     -359.99995789


--------------------------------------------------------------------------------------------------------




--------------------------------------- Iteration      1(  13)  ---------------------------------------


    POTLOK:  cpu time    0.2050: real time    0.2055
    SETDIJ:  cpu time    0.0327: real time    0.0328
     EDDAV:  cpu time    2.7642: real time    2.7707
    CHARGE:  cpu time    0.1575: real time    0.1578
    MIXING:  cpu time    0.0047: real time    0.0047
    --------------------------------------------
      LOOP:  cpu time    3.1641: real time    3.1715

 eigenvalue-minimisations  :  1376
 total energy-change (2. order) : 0.4163273E+00  (-0.5536935E+00)
 number of electron     384.9999822 magnetization       7.7519162
 augmentation part      127.9524256 magnetization       5.5416584

 Broyden mixing:
  rms(total) = 0.12680E+01    rms(broyden)= 0.12676E+01
  rms(prec ) = 0.16176E+01
  weight for this iteration     100.00

 eigenvalues of (default mixing * dielectric matrix)
  average eigenvalue GAMMA=   0.5956
  1.9530  0.6255  0.6255  0.4899  0.4899  0.3107  0.1425  0.1275

 Free energy of the ion-electron system (eV)
  ---------------------------------------------------
  alpha Z        PSCENC =      1200.70225609
  Ewald energy   TEWEN  =    -23190.05145823
  -Hartree energ DENC   =    -10472.00510883
  -exchange      EXHF   =         0.00000000
  -V(xc)+E(xc)   XCENC  =      1557.76826613
  PAW double counting   =     35656.04467213   -36995.90265546
  entropy T*S    EENTRO =        -0.05171352
  eigenvalues    EBANDS =     -1340.97323248
  atomic energy  EATOM  =     33224.86309968
  Solvation  Ediel_sol  =         0.00000000
  ---------------------------------------------------
  free energy    TOTEN  =      -359.60587448 eV

  energy without entropy =     -359.55416096  energy(sigma->0) =     -359.58001772


--------------------------------------------------------------------------------------------------------




--------------------------------------- Iteration      1(  14)  ---------------------------------------


    POTLOK:  cpu time    0.1586: real time    0.1590
    SETDIJ:  cpu time    0.0229: real time    0.0230
     EDDAV:  cpu time    2.6765: real time    2.6828
    CHARGE:  cpu time    0.1528: real time    0.1532
    MIXING:  cpu time    0.0057: real time    0.0057
    --------------------------------------------
      LOOP:  cpu time    3.0166: real time    3.0237

 eigenvalue-minimisations  :  1376
 total energy-change (2. order) : 0.3709228E-01  (-0.5000805E+00)
 number of electron     384.9999822 magnetization       7.5598456
 augmentation part      127.8774130 magnetization       5.2437782

 Broyden mixing:
  rms(total) = 0.12601E+01    rms(broyden)= 0.12597E+01
  rms(prec ) = 0.16484E+01
  weight for this iteration     100.00

 eigenvalues of (default mixing * dielectric matrix)
  average eigenvalue GAMMA=   0.5725
  1.9879  0.6969  0.6969  0.4974  0.4974  0.3673  0.1627  0.1229  0.1229

 Free energy of the ion-electron system (eV)
  ---------------------------------------------------
  alpha Z        PSCENC =      1200.70225609
  Ewald energy   TEWEN  =    -23190.05145823
  -Hartree energ DENC   =    -10474.26194176
  -exchange      EXHF   =         0.00000000
  -V(xc)+E(xc)   XCENC  =      1557.84370764
  PAW double counting   =     35719.74654224   -37060.29636323
  entropy T*S    EENTRO =        -0.05632681
  eigenvalues    EBANDS =     -1338.05829783
  atomic energy  EATOM  =     33224.86309968
  Solvation  Ediel_sol  =         0.00000000
  ---------------------------------------------------
  free energy    TOTEN  =      -359.56878220 eV

  energy without entropy =     -359.51245539  energy(sigma->0) =     -359.54061880


--------------------------------------------------------------------------------------------------------




--------------------------------------- Iteration      1(  15)  ---------------------------------------


    POTLOK:  cpu time    0.2039: real time    0.2044
    SETDIJ:  cpu time    0.0332: real time    0.0333
     EDDAV:  cpu time    2.5021: real time    2.5080
    CHARGE:  cpu time    0.1493: real time    0.1496
    MIXING:  cpu time    0.0060: real time    0.0060
    --------------------------------------------
      LOOP:  cpu time    2.8945: real time    2.9013

 eigenvalue-minimisations  :  1328
 total energy-change (2. order) : 0.9490857E-01  (-0.3885971E+00)
 number of electron     384.9999822 magnetization       7.4266062
 augmentation part      127.8319109 magnetization       5.0942991

 Broyden mixing:
  rms(total) = 0.97066E+00    rms(broyden)= 0.97028E+00
  rms(prec ) = 0.12773E+01
  weight for this iteration     100.00

 eigenvalues of (default mixing * dielectric matrix)
  average eigenvalue GAMMA=   0.5446
  2.0129  0.7323  0.7323  0.5011  0.5011  0.3279  0.2700  0.1347  0.1347  0.0987

 Free energy of the ion-electron system (eV)
  ---------------------------------------------------
  alpha Z        PSCENC =      1200.70225609
  Ewald energy   TEWEN  =    -23190.05145823
  -Hartree energ DENC   =    -10475.99822679
  -exchange      EXHF   =         0.00000000
  -V(xc)+E(xc)   XCENC  =      1557.90489717
  PAW double counting   =     35758.84380000   -37099.73654977
  entropy T*S    EENTRO =        -0.04947960
  eigenvalues    EBANDS =     -1335.95221220
  atomic energy  EATOM  =     33224.86309968
  Solvation  Ediel_sol  =         0.00000000
  ---------------------------------------------------
  free energy    TOTEN  =      -359.47387363 eV

  energy without entropy =     -359.42439403  energy(sigma->0) =     -359.44913383


--------------------------------------------------------------------------------------------------------




--------------------------------------- Iteration      1(  16)  ---------------------------------------


    POTLOK:  cpu time    0.2046: real time    0.2051
    SETDIJ:  cpu time    0.0326: real time    0.0327
     EDDAV:  cpu time    2.5013: real time    2.5072
    CHARGE:  cpu time    0.1169: real time    0.1171
    MIXING:  cpu time    0.0052: real time    0.0052
    --------------------------------------------
      LOOP:  cpu time    2.8606: real time    2.8673

 eigenvalue-minimisations  :  1328
 total energy-change (2. order) : 0.8062350E-01  (-0.1701337E+00)
 number of electron     384.9999822 magnetization       7.3912987
 augmentation part      127.7822358 magnetization       5.0608381

 Broyden mixing:
  rms(total) = 0.69241E+00    rms(broyden)= 0.69214E+00
  rms(prec ) = 0.85189E+00
  weight for this iteration     100.00

 eigenvalues of (default mixing * dielectric matrix)
  average eigenvalue GAMMA=   0.5279
  2.0130  0.7529  0.7529  0.5049  0.5049  0.3834  0.3834  0.1557  0.1409  0.1234
  0.0918

 Free energy of the ion-electron system (eV)
  ---------------------------------------------------
  alpha Z        PSCENC =      1200.70225609
  Ewald energy   TEWEN  =    -23190.05145823
  -Hartree energ DENC   =    -10477.59553513
  -exchange      EXHF   =         0.00000000
  -V(xc)+E(xc)   XCENC  =      1557.96698902
  PAW double counting   =     35797.10516564   -37138.45390097
  entropy T*S    EENTRO =        -0.03657623
  eigenvalues    EBANDS =     -1333.89328999
  atomic energy  EATOM  =     33224.86309968
  Solvation  Ediel_sol  =         0.00000000
  ---------------------------------------------------
  free energy    TOTEN  =      -359.39325013 eV

  energy without entropy =     -359.35667390  energy(sigma->0) =     -359.37496202


--------------------------------------------------------------------------------------------------------




--------------------------------------- Iteration      1(  17)  ---------------------------------------


    POTLOK:  cpu time    0.1538: real time    0.1542
    SETDIJ:  cpu time    0.0229: real time    0.0229
     EDDAV:  cpu time    2.3754: real time    2.3810
    CHARGE:  cpu time    0.1521: real time    0.1524
    MIXING:  cpu time    0.0063: real time    0.0063
    --------------------------------------------
      LOOP:  cpu time    2.7104: real time    2.7168

 eigenvalue-minimisations  :  1408
 total energy-change (2. order) :-0.6033313E-01  (-0.1076769E+00)
 number of electron     384.9999822 magnetization       7.4729556
 augmentation part      127.7630640 magnetization       5.0666573

 Broyden mixing:
  rms(total) = 0.64075E+00    rms(broyden)= 0.64057E+00
  rms(prec ) = 0.79835E+00
  weight for this iteration     100.00

 eigenvalues of (default mixing * dielectric matrix)
  average eigenvalue GAMMA=   0.5225
  2.0073  0.7990  0.7990  0.5333  0.5333  0.4230  0.4230  0.2403  0.1672  0.1294
  0.1294  0.0863

 Free energy of the ion-electron system (eV)
  ---------------------------------------------------
  alpha Z        PSCENC =      1200.70225609
  Ewald energy   TEWEN  =    -23190.05145823
  -Hartree energ DENC   =    -10478.49224714
  -exchange      EXHF   =         0.00000000
  -V(xc)+E(xc)   XCENC  =      1558.02776608
  PAW double counting   =     35828.84858222   -37170.24083320
  entropy T*S    EENTRO =        -0.04826297
  eigenvalues    EBANDS =     -1333.06248580
  atomic energy  EATOM  =     33224.86309968
  Solvation  Ediel_sol  =         0.00000000
  ---------------------------------------------------
  free energy    TOTEN  =      -359.45358326 eV

  energy without entropy =     -359.40532029  energy(sigma->0) =     -359.42945178


--------------------------------------------------------------------------------------------------------




--------------------------------------- Iteration      1(  18)  ---------------------------------------


    POTLOK:  cpu time    0.1979: real time    0.1984
    SETDIJ:  cpu time    0.0329: real time    0.0330
     EDDAV:  cpu time    2.6730: real time    2.6793
    CHARGE:  cpu time    0.1242: real time    0.1245
    MIXING:  cpu time    0.0057: real time    0.0057
    --------------------------------------------
      LOOP:  cpu time    3.0337: real time    3.0409

 eigenvalue-minimisations  :  1376
 total energy-change (2. order) : 0.2028411E-01  (-0.5984731E-01)
 number of electron     384.9999822 magnetization       7.4664556
 augmentation part      127.8001466 magnetization       5.1434698

 Broyden mixing:
  rms(total) = 0.44205E+00    rms(broyden)= 0.44190E+00
  rms(prec ) = 0.54275E+00
  weight for this iteration     100.00

 eigenvalues of (default mixing * dielectric matrix)
  average eigenvalue GAMMA=   0.5836
  2.0332  1.1420  1.1420  0.6082  0.6082  0.4983  0.4983  0.3916  0.1893  0.1348
  0.1340  0.1212  0.0851

 Free energy of the ion-electron system (eV)
  ---------------------------------------------------
  alpha Z        PSCENC =      1200.70225609
  Ewald energy   TEWEN  =    -23190.05145823
  -Hartree energ DENC   =    -10478.95983915
  -exchange      EXHF   =         0.00000000
  -V(xc)+E(xc)   XCENC  =      1558.11445690
  PAW double counting   =     35853.37880623   -37194.38222732
  entropy T*S    EENTRO =        -0.04457227
  eigenvalues    EBANDS =     -1333.05382110
  atomic energy  EATOM  =     33224.86309968
  Solvation  Ediel_sol  =         0.00000000
  ---------------------------------------------------
  free energy    TOTEN  =      -359.43329916 eV

  energy without entropy =     -359.38872688  energy(sigma->0) =     -359.41101302


--------------------------------------------------------------------------------------------------------




--------------------------------------- Iteration      1(  19)  ---------------------------------------


    POTLOK:  cpu time    0.1589: real time    0.1593
    SETDIJ:  cpu time    0.0233: real time    0.0233
     EDDAV:  cpu time    2.8031: real time    2.8098
    CHARGE:  cpu time    0.1524: real time    0.1527
    MIXING:  cpu time    0.0069: real time    0.0070
    --------------------------------------------
      LOOP:  cpu time    3.1446: real time    3.1521

 eigenvalue-minimisations  :  1376
 total energy-change (2. order) :-0.1255442E+00  (-0.9987266E-01)
 number of electron     384.9999822 magnetization       7.3969833
 augmentation part      127.8147214 magnetization       5.2114003

 Broyden mixing:
  rms(total) = 0.73869E+00    rms(broyden)= 0.73850E+00
  rms(prec ) = 0.94648E+00
  weight for this iteration     100.00

 eigenvalues of (default mixing * dielectric matrix)
  average eigenvalue GAMMA=   0.5749
  2.0775  1.2023  1.2023  0.6323  0.6323  0.5318  0.5318  0.4234  0.2109  0.1449
  0.1341  0.1257  0.1148  0.0849

 Free energy of the ion-electron system (eV)
  ---------------------------------------------------
  alpha Z        PSCENC =      1200.70225609
  Ewald energy   TEWEN  =    -23190.05145823
  -Hartree energ DENC   =    -10480.76924054
  -exchange      EXHF   =         0.00000000
  -V(xc)+E(xc)   XCENC  =      1558.30685604
  PAW double counting   =     35916.07906427   -37256.98914395
  entropy T*S    EENTRO =        -0.03470970
  eigenvalues    EBANDS =     -1331.66556700
  atomic energy  EATOM  =     33224.86309968
  Solvation  Ediel_sol  =         0.00000000
  ---------------------------------------------------
  free energy    TOTEN  =      -359.55884334 eV

  energy without entropy =     -359.52413364  energy(sigma->0) =     -359.54148849


--------------------------------------------------------------------------------------------------------




--------------------------------------- Iteration      1(  20)  ---------------------------------------


    POTLOK:  cpu time    0.2108: real time    0.2113
    SETDIJ:  cpu time    0.0339: real time    0.0340
     EDDAV:  cpu time    2.6077: real time    2.6138
    CHARGE:  cpu time    0.1588: real time    0.1592
    MIXING:  cpu time    0.0071: real time    0.0071
    --------------------------------------------
      LOOP:  cpu time    3.0183: real time    3.0254

 eigenvalue-minimisations  :  1376
 total energy-change (2. order) : 0.1141602E+00  (-0.8003399E-01)
 number of electron     384.9999822 magnetization       7.3665970
 augmentation part      127.8536065 magnetization       5.1330318

 Broyden mixing:
  rms(total) = 0.27856E+00    rms(broyden)= 0.27828E+00
  rms(prec ) = 0.35137E+00
  weight for this iteration     100.00

 eigenvalues of (default mixing * dielectric matrix)
  average eigenvalue GAMMA=   0.5701
  2.1221  1.2256  1.2256  0.6553  0.6553  0.5439  0.5439  0.3968  0.3968  0.1867
  0.1471  0.1291  0.1291  0.1096  0.0848

 Free energy of the ion-electron system (eV)
  ---------------------------------------------------
  alpha Z        PSCENC =      1200.70225609
  Ewald energy   TEWEN  =    -23190.05145823
  -Hartree energ DENC   =    -10482.07697142
  -exchange      EXHF   =         0.00000000
  -V(xc)+E(xc)   XCENC  =      1558.45115483
  PAW double counting   =     35967.81256744   -37308.66477782
  entropy T*S    EENTRO =        -0.04394411
  eigenvalues    EBANDS =     -1330.43660962
  atomic energy  EATOM  =     33224.86309968
  Solvation  Ediel_sol  =         0.00000000
  ---------------------------------------------------
  free energy    TOTEN  =      -359.44468317 eV

  energy without entropy =     -359.40073906  energy(sigma->0) =     -359.42271111


--------------------------------------------------------------------------------------------------------




--------------------------------------- Iteration      1(  21)  ---------------------------------------


    POTLOK:  cpu time    0.1730: real time    0.1734
    SETDIJ:  cpu time    0.0230: real time    0.0230
     EDDAV:  cpu time    2.6009: real time    2.6070
    CHARGE:  cpu time    0.1125: real time    0.1128
    MIXING:  cpu time    0.0060: real time    0.0060
    --------------------------------------------
      LOOP:  cpu time    2.9154: real time    2.9223

 eigenvalue-minimisations  :  1488
 total energy-change (2. order) : 0.5887773E-02  (-0.1629350E-01)
 number of electron     384.9999822 magnetization       7.2633624
 augmentation part      127.8550230 magnetization       5.1030505

 Broyden mixing:
  rms(total) = 0.24289E+00    rms(broyden)= 0.24280E+00
  rms(prec ) = 0.31145E+00
  weight for this iteration     100.00

 eigenvalues of (default mixing * dielectric matrix)
  average eigenvalue GAMMA=   0.5652
  2.2199  1.2012  1.2012  0.7162  0.7162  0.5678  0.5678  0.4391  0.4391  0.2111
  0.1778  0.1380  0.1292  0.1264  0.0848  0.1082

 Free energy of the ion-electron system (eV)
  ---------------------------------------------------
  alpha Z        PSCENC =      1200.70225609
  Ewald energy   TEWEN  =    -23190.05145823
  -Hartree energ DENC   =    -10482.67093200
  -exchange      EXHF   =         0.00000000
  -V(xc)+E(xc)   XCENC  =      1558.49420707
  PAW double counting   =     35981.76960017   -37322.61739691
  entropy T*S    EENTRO =        -0.04243627
  eigenvalues    EBANDS =     -1329.88573499
  atomic energy  EATOM  =     33224.86309968
  Solvation  Ediel_sol  =         0.00000000
  ---------------------------------------------------
  free energy    TOTEN  =      -359.43879540 eV

  energy without entropy =     -359.39635913  energy(sigma->0) =     -359.41757726


--------------------------------------------------------------------------------------------------------




--------------------------------------- Iteration      1(  22)  ---------------------------------------


    POTLOK:  cpu time    0.1515: real time    0.1519
    SETDIJ:  cpu time    0.0223: real time    0.0224
     EDDAV:  cpu time    2.2561: real time    2.2614
    CHARGE:  cpu time    0.1227: real time    0.1230
    MIXING:  cpu time    0.0066: real time    0.0066
    --------------------------------------------
      LOOP:  cpu time    2.5592: real time    2.5653

 eigenvalue-minimisations  :  1440
 total energy-change (2. order) : 0.8837249E-02  (-0.1160995E-01)
 number of electron     384.9999823 magnetization       7.2606864
 augmentation part      127.8478263 magnetization       5.0262366

 Broyden mixing:
  rms(total) = 0.18399E+00    rms(broyden)= 0.18391E+00
  rms(prec ) = 0.22521E+00
  weight for this iteration     100.00

 eigenvalues of (default mixing * dielectric matrix)
  average eigenvalue GAMMA=   0.5797
  2.2248  1.2551  1.2551  0.8730  0.8730  0.5366  0.5366  0.4867  0.4867  0.4093
  0.1936  0.1490  0.1364  0.1276  0.1223  0.0848  0.1043

 Free energy of the ion-electron system (eV)
  ---------------------------------------------------
  alpha Z        PSCENC =      1200.70225609
  Ewald energy   TEWEN  =    -23190.05145823
  -Hartree energ DENC   =    -10483.57428412
  -exchange      EXHF   =         0.00000000
  -V(xc)+E(xc)   XCENC  =      1558.54595036
  PAW double counting   =     36006.78722638   -37347.84078340
  entropy T*S    EENTRO =        -0.04363923
  eigenvalues    EBANDS =     -1328.81832567
  atomic energy  EATOM  =     33224.86309968
  Solvation  Ediel_sol  =         0.00000000
  ---------------------------------------------------
  free energy    TOTEN  =      -359.42995815 eV

  energy without entropy =     -359.38631891  energy(sigma->0) =     -359.40813853


--------------------------------------------------------------------------------------------------------




--------------------------------------- Iteration      1(  23)  ---------------------------------------


    POTLOK:  cpu time    0.1571: real time    0.1575
    SETDIJ:  cpu time    0.0226: real time    0.0226
     EDDAV:  cpu time    2.4285: real time    2.4342
    CHARGE:  cpu time    0.1247: real time    0.1250
    MIXING:  cpu time    0.0069: real time    0.0070
    --------------------------------------------
      LOOP:  cpu time    2.7398: real time    2.7463

 eigenvalue-minimisations  :  1440
 total energy-change (2. order) :-0.1916288E-02  (-0.4785230E-02)
 number of electron     384.9999823 magnetization       7.2960880
 augmentation part      127.8321223 magnetization       5.0712741

 Broyden mixing:
  rms(total) = 0.16789E+00    rms(broyden)= 0.16785E+00
  rms(prec ) = 0.20415E+00
  weight for this iteration     100.00

 eigenvalues of (default mixing * dielectric matrix)
  average eigenvalue GAMMA=   0.5634
  2.1681  1.2937  1.2937  0.9253  0.9253  0.5378  0.5378  0.4939  0.4939  0.4172
  0.1930  0.0848  0.1419  0.1419  0.1317  0.1317  0.1223  0.1067

 Free energy of the ion-electron system (eV)
  ---------------------------------------------------
  alpha Z        PSCENC =      1200.70225609
  Ewald energy   TEWEN  =    -23190.05145823
  -Hartree energ DENC   =    -10484.12082882
  -exchange      EXHF   =         0.00000000
  -V(xc)+E(xc)   XCENC  =      1558.57549455
  PAW double counting   =     36015.18833279   -37356.34892746
  entropy T*S    EENTRO =        -0.04324171
  eigenvalues    EBANDS =     -1328.19660132
  atomic energy  EATOM  =     33224.86309968
  Solvation  Ediel_sol  =         0.00000000
  ---------------------------------------------------
  free energy    TOTEN  =      -359.43187443 eV

  energy without entropy =     -359.38863272  energy(sigma->0) =     -359.41025358


--------------------------------------------------------------------------------------------------------




--------------------------------------- Iteration      1(  24)  ---------------------------------------


    POTLOK:  cpu time    0.1593: real time    0.1597
    SETDIJ:  cpu time    0.0230: real time    0.0230
     EDDAV:  cpu time    2.3911: real time    2.3968
    CHARGE:  cpu time    0.1220: real time    0.1223
    MIXING:  cpu time    0.0072: real time    0.0072
    --------------------------------------------
      LOOP:  cpu time    2.7026: real time    2.7089

 eigenvalue-minimisations  :  1408
 total energy-change (2. order) : 0.5209540E-03  (-0.2945172E-02)
 number of electron     384.9999823 magnetization       7.3000427
 augmentation part      127.8296733 magnetization       5.0381793

 Broyden mixing:
  rms(total) = 0.14944E+00    rms(broyden)= 0.14942E+00
  rms(prec ) = 0.17733E+00
  weight for this iteration     100.00

 eigenvalues of (default mixing * dielectric matrix)
  average eigenvalue GAMMA=   0.5499
  2.1569  1.2822  1.2822  0.9179  0.9179  0.5584  0.5584  0.4954  0.4954  0.4274
  0.2861  0.1945  0.1511  0.1511  0.0848  0.1336  0.1292  0.1210  0.1050

 Free energy of the ion-electron system (eV)
  ---------------------------------------------------
  alpha Z        PSCENC =      1200.70225609
  Ewald energy   TEWEN  =    -23190.05145823
  -Hartree energ DENC   =    -10484.20552494
  -exchange      EXHF   =         0.00000000
  -V(xc)+E(xc)   XCENC  =      1558.58679398
  PAW double counting   =     36015.78613332   -37356.89903801
  entropy T*S    EENTRO =        -0.04465761
  eigenvalues    EBANDS =     -1328.16895776
  atomic energy  EATOM  =     33224.86309968
  Solvation  Ediel_sol  =         0.00000000
  ---------------------------------------------------
  free energy    TOTEN  =      -359.43135348 eV

  energy without entropy =     -359.38669587  energy(sigma->0) =     -359.40902468


--------------------------------------------------------------------------------------------------------




--------------------------------------- Iteration      1(  25)  ---------------------------------------


    POTLOK:  cpu time    0.1578: real time    0.1581
    SETDIJ:  cpu time    0.0224: real time    0.0224
     EDDAV:  cpu time    2.5244: real time    2.5304
    CHARGE:  cpu time    0.1223: real time    0.1226
    MIXING:  cpu time    0.0072: real time    0.0072
    --------------------------------------------
      LOOP:  cpu time    2.8340: real time    2.8407

 eigenvalue-minimisations  :  1504
 total energy-change (2. order) :-0.4573798E-03  (-0.4274613E-03)
 number of electron     384.9999823 magnetization       7.2489621
 augmentation part      127.8270212 magnetization       4.9881348

 Broyden mixing:
  rms(total) = 0.15453E+00    rms(broyden)= 0.15453E+00
  rms(prec ) = 0.17897E+00
  weight for this iteration     100.00

 eigenvalues of (default mixing * dielectric matrix)
  average eigenvalue GAMMA=   0.5695
  2.2679  0.8562  1.2002  1.2002  0.9851  0.9851  0.5835  0.5835  0.5058  0.5058
  0.4232  0.2443  0.1950  0.1567  0.0848  0.1379  0.1277  0.1277  0.1038  0.1149

 Free energy of the ion-electron system (eV)
  ---------------------------------------------------
  alpha Z        PSCENC =      1200.70225609
  Ewald energy   TEWEN  =    -23190.05145823
  -Hartree energ DENC   =    -10484.23765240
  -exchange      EXHF   =         0.00000000
  -V(xc)+E(xc)   XCENC  =      1558.58993288
  PAW double counting   =     36016.70103453   -37357.82558399
  entropy T*S    EENTRO =        -0.04403318
  eigenvalues    EBANDS =     -1328.12940623
  atomic energy  EATOM  =     33224.86309968
  Solvation  Ediel_sol  =         0.00000000
  ---------------------------------------------------
  free energy    TOTEN  =      -359.43181086 eV

  energy without entropy =     -359.38777768  energy(sigma->0) =     -359.40979427


--------------------------------------------------------------------------------------------------------




--------------------------------------- Iteration      1(  26)  ---------------------------------------


    POTLOK:  cpu time    0.1585: real time    0.1588
    SETDIJ:  cpu time    0.0230: real time    0.0231
     EDDAV:  cpu time    2.4740: real time    2.4799
    CHARGE:  cpu time    0.1196: real time    0.1199
    MIXING:  cpu time    0.0076: real time    0.0076
    --------------------------------------------
      LOOP:  cpu time    2.7827: real time    2.7893

 eigenvalue-minimisations  :  1456
 total energy-change (2. order) : 0.3484347E-02  (-0.1402131E-02)
 number of electron     384.9999823 magnetization       7.1821868
 augmentation part      127.8207213 magnetization       4.9449754

 Broyden mixing:
  rms(total) = 0.16545E+00    rms(broyden)= 0.16544E+00
  rms(prec ) = 0.19189E+00
  weight for this iteration     100.00

 eigenvalues of (default mixing * dielectric matrix)
  average eigenvalue GAMMA=   0.5991
  2.2744  1.4288  1.2341  1.2341  1.0543  1.0543  0.5940  0.5940  0.5176  0.5176
  0.4359  0.4359  0.1965  0.1737  0.0848  0.1484  0.1358  0.1275  0.1243  0.1040
  0.1120

 Free energy of the ion-electron system (eV)
  ---------------------------------------------------
  alpha Z        PSCENC =      1200.70225609
  Ewald energy   TEWEN  =    -23190.05145823
  -Hartree energ DENC   =    -10484.44834567
  -exchange      EXHF   =         0.00000000
  -V(xc)+E(xc)   XCENC  =      1558.58853964
  PAW double counting   =     36019.61594565   -37360.80873660
  entropy T*S    EENTRO =        -0.04430234
  eigenvalues    EBANDS =     -1327.84532474
  atomic energy  EATOM  =     33224.86309968
  Solvation  Ediel_sol  =         0.00000000
  ---------------------------------------------------
  free energy    TOTEN  =      -359.42832651 eV

  energy without entropy =     -359.38402418  energy(sigma->0) =     -359.40617534


--------------------------------------------------------------------------------------------------------




--------------------------------------- Iteration      1(  27)  ---------------------------------------


    POTLOK:  cpu time    0.1567: real time    0.1571
    SETDIJ:  cpu time    0.0225: real time    0.0226
     EDDAV:  cpu time    2.3888: real time    2.3945
    CHARGE:  cpu time    0.1144: real time    0.1147
    MIXING:  cpu time    0.0075: real time    0.0075
    --------------------------------------------
      LOOP:  cpu time    2.6900: real time    2.6964

 eigenvalue-minimisations  :  1472
[...]
   -.114E+01 0.547E+01 0.255E+01   0.106E+01 -.568E+01 -.241E+01   0.695E-01 0.206E+00 -.125E+00   0.711E-02 0.123E-03 -.201E-02
   -.949E+01 -.204E+01 -.313E+01   0.102E+02 0.215E+01 0.298E+01   -.700E+00 -.106E+00 0.139E+00   -.185E-02 -.331E-02 0.398E-02
   0.238E+02 0.262E+01 -.106E+03   -.249E+02 -.257E+01 0.107E+03   0.114E+01 -.478E-01 -.842E+00   0.285E-01 -.153E-02 -.564E-02
   -.383E+01 -.167E+02 0.225E+02   0.395E+01 0.169E+02 -.223E+02   -.152E+00 -.164E+00 -.136E+00   0.261E-01 0.134E-02 -.650E-02
   -.330E+02 -.155E+02 -.159E+02   0.340E+02 0.156E+02 0.162E+02   -.975E+00 -.160E+00 -.242E+00   -.187E-01 0.440E-02 0.898E-02
   -.435E+02 0.161E+02 -.646E+01   0.440E+02 -.163E+02 0.690E+01   -.458E+00 0.155E+00 -.448E+00   -.203E-01 -.214E-02 0.717E-02
   -.250E+02 0.159E+02 -.222E+02   0.251E+02 -.161E+02 0.226E+02   -.176E+00 0.175E+00 -.350E+00   0.276E-01 -.533E-02 -.360E-02
   0.544E+02 -.274E+01 -.735E+02   -.550E+02 0.270E+01 0.739E+02   0.602E+00 0.391E-01 -.409E+00   0.292E-01 0.289E-02 -.725E-02
   -.154E+01 0.147E+02 -.725E+02   0.880E+00 -.149E+02 0.729E+02   0.695E+00 0.148E+00 -.411E+00   -.304E-01 -.252E-02 0.176E-02
   0.297E+02 -.144E+02 -.411E+02   -.300E+02 0.146E+02 0.411E+02   0.255E+00 -.152E+00 -.805E-02   -.316E-01 0.140E-02 -.172E-04
   -.246E+01 0.142E+02 0.722E+02   0.324E+01 -.143E+02 -.726E+02   -.797E+00 0.104E+00 0.388E+00   0.141E-01 0.185E-01 -.741E-02
   0.619E+01 -.169E+02 -.230E+02   -.655E+01 0.171E+02 0.229E+02   0.321E+00 -.178E+00 0.122E+00   0.435E-01 -.806E-02 0.277E-03
   0.352E+02 -.154E+02 0.162E+02   -.362E+02 0.156E+02 -.164E+02   0.104E+01 -.171E+00 0.259E+00   -.427E-01 -.751E-02 0.553E-02
   0.455E+02 0.162E+02 0.620E+01   -.462E+02 -.163E+02 -.662E+01   0.688E+00 0.161E+00 0.412E+00   -.433E-01 0.877E-02 0.864E-02
   0.275E+02 0.159E+02 0.215E+02   -.277E+02 -.161E+02 -.219E+02   0.217E+00 0.192E+00 0.371E+00   0.390E-01 0.661E-02 -.349E-02
   -.323E+02 -.140E+02 0.406E+02   0.327E+02 0.141E+02 -.406E+02   -.394E+00 -.100E+00 -.366E-02   0.146E-01 -.166E-01 -.475E-02
   -.265E+02 0.258E+01 0.106E+03   0.277E+02 -.261E+01 -.107E+03   -.121E+01 0.107E-01 0.824E+00   -.166E-01 0.157E-01 0.633E-02
   -.556E+02 -.266E+01 0.734E+02   0.563E+02 0.270E+01 -.738E+02   -.701E+00 -.276E-01 0.398E+00   -.147E-01 -.173E-01 0.986E-02
   0.284E+02 0.333E+02 0.326E+03   -.322E+02 -.354E+02 -.342E+03   0.375E+01 0.207E+01 0.161E+02   0.318E-01 0.336E-01 0.462E-02
   -.177E+02 -.129E+01 -.272E+03   0.220E+02 0.139E+01 0.285E+03   -.428E+01 -.996E-01 -.129E+02   -.270E-01 -.913E-03 0.107E-01
   -.258E+02 0.323E+02 -.326E+03   0.292E+02 -.343E+02 0.343E+03   -.345E+01 0.203E+01 -.163E+02   -.138E-02 -.545E-02 -.258E-01
   0.178E+02 -.114E+01 0.270E+03   -.223E+02 0.109E+01 -.283E+03   0.447E+01 0.500E-01 0.128E+02   -.150E-01 0.614E-03 0.981E-03
   -.366E+02 -.226E+01 0.331E+03   0.363E+02 0.260E+01 -.347E+03   0.329E+00 -.344E+00 0.160E+02   -.198E-01 0.185E-02 0.244E-01
   -.318E+02 -.306E+02 -.281E+03   0.357E+02 0.326E+02 0.297E+03   -.387E+01 -.204E+01 -.157E+02   -.111E-01 -.356E-03 -.213E-02
   -.254E+02 0.301E+02 -.283E+03   0.283E+02 -.321E+02 0.299E+03   -.290E+01 0.195E+01 -.161E+02   -.682E-02 -.723E-04 -.649E-03
   -.323E+02 0.278E+01 0.329E+03   0.319E+02 -.331E+01 -.344E+03   0.385E+00 0.522E+00 0.148E+02   0.321E-02 0.225E-03 0.646E-02
   0.339E+02 -.177E+01 -.330E+03   -.328E+02 0.213E+01 0.345E+03   -.111E+01 -.357E+00 -.151E+02   0.250E-01 -.126E-02 0.358E-02
   0.328E+02 -.304E+02 0.282E+03   -.367E+02 0.324E+02 -.298E+03   0.385E+01 -.200E+01 0.158E+02   0.478E-02 -.175E-02 -.186E-01
   0.275E+02 0.303E+02 0.283E+03   -.308E+02 -.323E+02 -.299E+03   0.322E+01 0.195E+01 0.159E+02   0.751E-02 0.967E-03 -.146E-01
   0.314E+02 0.237E+01 -.329E+03   -.310E+02 -.287E+01 0.344E+03   -.349E+00 0.492E+00 -.148E+02   0.333E-01 0.962E-03 -.625E-03
   0.271E+02 -.324E+02 0.322E+03   -.303E+02 0.345E+02 -.339E+03   0.320E+01 -.205E+01 0.167E+02   0.448E-01 -.338E-01 -.346E-02
   0.170E+02 0.121E+01 -.294E+03   -.167E+02 -.133E+01 0.310E+03   -.287E+00 0.124E+00 -.155E+02   -.375E-01 -.716E-03 0.186E-01
   -.246E+02 -.320E+02 -.322E+03   0.275E+02 0.341E+02 0.339E+03   -.292E+01 -.207E+01 -.170E+02   0.572E-02 0.668E-02 -.308E-01
   -.178E+02 0.915E+00 0.293E+03   0.174E+02 -.818E+00 -.308E+03   0.439E+00 -.963E-01 0.153E+02   -.249E-01 -.956E-03 0.810E-02
   0.585E+02 -.193E+01 0.354E+03   -.641E+02 0.191E+01 -.372E+03   0.566E+01 0.244E-01 0.186E+02   -.109E-01 -.149E-02 0.571E-02
   -.241E+02 0.391E+01 -.278E+03   0.285E+02 -.440E+01 0.290E+03   -.434E+01 0.457E+00 -.125E+02   0.291E-02 0.325E-01 -.166E-01
   -.562E+02 -.142E+01 -.354E+03   0.617E+02 0.143E+01 0.372E+03   -.548E+01 -.714E-02 -.188E+02   -.106E-01 -.225E-03 0.172E-01
   0.245E+02 0.347E+01 0.276E+03   -.289E+02 -.376E+01 -.289E+03   0.442E+01 0.291E+00 0.123E+02   0.265E-01 -.573E-02 0.561E-02
   0.322E+02 -.250E+01 0.306E+03   -.363E+02 0.289E+01 -.320E+03   0.411E+01 -.373E+00 0.136E+02   -.126E-01 -.146E-01 -.295E-01
   -.275E+02 -.301E+02 -.298E+03   0.306E+02 0.321E+02 0.314E+03   -.320E+01 -.198E+01 -.161E+02   0.461E-01 -.141E-01 0.120E-01
   -.331E+02 0.301E+02 -.291E+03   0.368E+02 -.322E+02 0.307E+03   -.365E+01 0.209E+01 -.164E+02   0.218E-01 0.153E-01 0.278E-01
   -.702E+01 0.239E+01 0.331E+03   0.688E+01 -.280E+01 -.349E+03   0.140E+00 0.398E+00 0.172E+02   -.200E-01 0.142E-01 -.280E-01
   -.344E+02 -.215E+01 -.306E+03   0.387E+02 0.246E+01 0.319E+03   -.421E+01 -.311E+00 -.136E+02   -.175E-01 0.816E-02 -.330E-02
   0.286E+02 -.308E+02 0.297E+03   -.319E+02 0.329E+02 -.313E+03   0.338E+01 -.208E+01 0.157E+02   -.108E-01 0.912E-02 0.179E-01
   0.327E+02 0.299E+02 0.292E+03   -.362E+02 -.319E+02 -.309E+03   0.353E+01 0.201E+01 0.166E+02   -.184E-01 -.696E-02 0.188E-01
   0.440E+01 0.240E+01 -.330E+03   -.358E+01 -.289E+01 0.346E+03   -.789E+00 0.504E+00 -.161E+02   -.223E-01 -.921E-02 -.848E-02
   0.583E+02 0.169E+01 0.346E+03   -.634E+02 -.170E+01 -.365E+03   0.513E+01 0.347E-02 0.189E+02   -.136E-01 0.110E-02 0.446E-02
   0.120E+02 -.436E+01 -.299E+03   -.117E+02 0.513E+01 0.313E+03   -.324E+00 -.742E+00 -.146E+02   0.700E-02 -.322E-01 -.173E-01
   -.561E+02 0.144E+01 -.346E+03   0.610E+02 -.147E+01 0.365E+03   -.495E+01 0.395E-01 -.192E+02   -.134E-01 -.114E-02 0.177E-01
   -.129E+02 -.339E+01 0.297E+03   0.126E+02 0.382E+01 -.312E+03   0.313E+00 -.439E+00 0.144E+02   0.307E-01 0.731E-02 0.646E-02
 -----------------------------------------------------------------------------------------------
   -.538E+00 0.113E-02 0.471E+00   0.131E-12 0.128E-12 0.114E-12   0.540E+00 -.475E-02 -.493E+00   0.300E-02 0.237E-02 0.185E-01
 
 
 POSITION                                       TOTAL-FORCE (eV/Angst)
 -----------------------------------------------------------------------------------
      1.44393      5.55206      2.38207        -0.003026      0.003499     -0.004358
      4.79629      0.00413      7.13680        -0.003969     -0.006020     -0.002440
      4.09363      1.38454      2.40104        -0.002267      0.001767     -0.002169
      2.28933      1.43879      7.12561        -0.007094      0.003767      0.009537
      2.29479      4.12614      7.12165         0.004224     -0.001471      0.004449
      1.41597      2.79752      2.39122        -0.008044     -0.002636     -0.006810
      6.74270      5.54689      2.41474        -0.008641     -0.007585     -0.004155
     -0.20782      0.01031      7.10387         0.003799      0.007618      0.006286
      7.28936      1.45127      7.16920         0.003198      0.000330      0.005159
      7.28642      4.12715      7.17261        -0.001419     -0.000155      0.007704
      6.76898      2.80465      2.40577        -0.003735      0.005397     -0.003327
     -0.00182      0.00100      0.03618         0.002773      0.001316     -0.002568
     -1.10542      1.39732      9.40788        -0.000305     -0.002216      0.001630
      3.88775      1.39374      9.43431        -0.000172      0.001109     -0.004456
      3.89246      4.17215      9.43065         0.002187      0.003090     -0.002375
     -1.09533      4.17611      9.43829        -0.002294     -0.001588      0.000625
      9.97191      2.78410      0.10886         0.002037      0.000504     -0.004322
      4.99798      5.56313      0.09411         0.001638     -0.002712      0.002114
      4.98610      2.78638      0.07187         0.002322     -0.001019      0.003158
      3.18494      5.56353      4.71334        -0.004199     -0.001762     -0.007370
      5.70042      1.39833      4.82502         0.000311     -0.001700     -0.002984
      0.69943      1.39318      4.80040         0.003325      0.001098      0.007150
      0.70218      4.17162      4.80255         0.001411      0.002860      0.003515
      5.68271      4.17700      4.79701         0.002771     -0.000063      0.000977
      3.19692      2.78641      4.73543        -0.004575      0.002778     -0.006068
      8.18601      0.00034      4.76938         0.001439     -0.002715      0.004154
     -1.78687      2.78320      4.69571        -0.003535     -0.000813      0.002997
      5.00555      0.03593      3.78861         0.001761     -0.000025     -0.005002
      1.42003      0.00176      5.81922         0.003753      0.002387      0.002891
      3.18622      0.03184      1.02019         0.001861     -0.002955      0.005869
      3.16896      0.00069      8.41526         0.000073      0.001857     -0.001244
      7.39870      1.39816      3.82409        -0.011334     -0.000204      0.000915
     -1.10973      1.36263      5.71391        -0.002924      0.000177      0.003118
     -1.07802      4.20334      5.69508         0.006979     -0.000199      0.004083
      7.39374      4.17243      3.82461         0.005714     -0.004209     -0.000959
      0.78089      1.39927      0.98306         0.002835     -0.000094      0.000489
      5.69880      1.36351      8.51810         0.002201      0.001561     -0.007934
      5.67825      4.20383      8.52559        -0.001986      0.002466     -0.010734
      0.79193      4.17252      0.97937        -0.002732     -0.000844     -0.000631
      4.97599      2.75941      3.81087         0.003699     -0.000868     -0.006468
      1.50198      2.77713      5.75287        -0.003121     -0.000375      0.006719
      3.21493      2.75957      0.99682         0.000502     -0.002040      0.006619
      3.08176      2.77913      8.48485         0.001274      0.000579     -0.001022
      0.00902      5.56641      3.80629        -0.004641      0.001524     -0.001839
      6.39778      5.55886      5.83926         0.006815     -0.002696      0.000529
      8.18327      5.56988      0.99999         0.007658      0.002091      0.002872
     -1.80707      5.55879      8.39322        -0.001432     -0.004465     -0.000244
      2.46328      1.39719      3.71687        -0.002820      0.002782     -0.003502
      3.92023      1.36356      5.72453         0.015817      0.000063     -0.003564
      3.91667      4.20174      5.72174        -0.002732      0.000355     -0.004216
      2.37734      4.17033      3.78182        -0.014805      0.001667     -0.005607
      5.71906      1.39848      1.08814         0.001497      0.002300      0.001019
      0.67874      1.36058      8.49496        -0.004883     -0.002237     -0.001548
      0.66910      4.19936      8.51339         0.000529     -0.002905      0.003599
      5.80510      4.17142      1.02861         0.007637     -0.000566      0.005308
     -0.01371      2.78171      3.81662        -0.006274     -0.000326     -0.001170
      6.48427      2.79704      5.77847         0.001824      0.000403      0.005079
      8.20562      2.78190      0.98870         0.009694      0.002178      0.002269
     -1.89915      2.79668      8.45800        -0.000594     -0.000066     -0.001750
 -----------------------------------------------------------------------------------
    total drift:                                0.005026     -0.001242     -0.003281


--------------------------------------------------------------------------------------------------------



  FREE ENERGIE OF THE ION-ELECTRON SYSTEM (eV)
  ---------------------------------------------------
  free  energy   TOTEN  =      -359.5053286948 eV

  energy  without entropy=     -359.4804004559  energy(sigma->0) =     -359.49286458
 
 d Force = 0.9243149E-04[ 0.795E-04, 0.105E-03]  d Energy = 0.6978070E-04 0.227E-04
 d Force = 0.4726959E+00[ 0.472E+00, 0.473E+00]  d Ewald  = 0.2102617E+01-0.163E+01


--------------------------------------------------------------------------------------------------------


    POTLOK:  cpu time    0.1817: real time    0.1821


--------------------------------------------------------------------------------------------------------


 Quasi-Newton relaxation of ions (Broydens 2nd method)
  g(Force)  = 0.149E-03   g(Stress)= 0.176E-03

 retain information from N=  1 steps
 eigenvalues of (default step * inverse Hessian matrix)
  average eigenvalue of G=   0.1757
 eigenvalue spectrum of G is  0.1757


--------------------------------------------------------------------------------------------------------


  
 reached required accuracy - stopping structural energy minimisation
     LOOP+:  cpu time   19.8064: real time   19.9022
    4ORBIT:  cpu time    0.0000: real time    0.0000

volume of typ            1:    16.3 %

volume of typ            2:    19.4 %

volume of typ            3:     9.9 %
 
total charge     
 
# of ion       s       p       d       tot
------------------------------------------
    1        2.076   0.242   0.088   2.406
    2        2.079   0.249   0.093   2.420
    3        2.074   0.236   0.087   2.398
    4        2.083   0.250   0.095   2.429
    5        2.079   0.248   0.093   2.420
    6        2.075   0.239   0.088   2.402
    7        2.076   0.242   0.089   2.406
    8        2.079   0.249   0.093   2.421
    9        2.079   0.252   0.093   2.424
   10        2.082   0.247   0.092   2.420
   11        2.075   0.239   0.088   2.401
   12        0.274   0.368   7.862   8.504
   13        0.278   0.379   7.865   8.522
   14        0.273   0.367   7.866   8.506
   15        0.279   0.380   7.863   8.521
   16        0.272   0.369   7.855   8.495
   17        0.272   0.368   7.852   8.492
   18        0.273   0.366   7.868   8.507
   19        0.272   0.367   7.857   8.496
   20        0.273   0.366   7.869   8.508
   21        0.281   0.385   7.861   8.527
   22        0.274   0.368   7.864   8.506
   23        0.281   0.384   7.859   8.524
   24        0.272   0.369   7.855   8.497
   25        0.272   0.366   7.859   8.497
   26        0.274   0.367   7.861   8.502
   27        0.271   0.366   7.852   8.490
   28        1.267   2.768   0.006   4.041
   29        1.255   2.801   0.006   4.062
   30        1.266   2.769   0.006   4.041
   31        1.255   2.802   0.006   4.062
   32        1.261   2.783   0.007   4.051
   33        1.263   2.778   0.006   4.048
   34        1.264   2.777   0.007   4.047
   35        1.261   2.787   0.006   4.054
   36        1.261   2.785   0.006   4.052
   37        1.263   2.778   0.006   4.048
   38        1.263   2.780   0.006   4.049
   39        1.260   2.787   0.006   4.054
   40        1.267   2.768   0.007   4.042
   41        1.259   2.791   0.007   4.057
   42        1.266   2.770   0.007   4.043
   43        1.259   2.792   0.006   4.057
   44        1.270   2.761   0.007   4.038
   45        1.258   2.795   0.006   4.059
   46        1.269   2.762   0.007   4.039
   47        1.257   2.796   0.006   4.059
   48        1.258   2.791   0.006   4.055
   49        1.264   2.776   0.007   4.047
   50        1.263   2.779   0.007   4.049
   51        1.264   2.775   0.007   4.045
   52        1.258   2.791   0.006   4.055
   53        1.262   2.780   0.006   4.049
   54        1.263   2.779   0.007   4.049
   55        1.264   2.776   0.007   4.046
   56        1.269   2.765   0.007   4.041
   57        1.262   2.784   0.006   4.053
   58        1.268   2.766   0.007   4.041
   59        1.262   2.785   0.006   4.053
--------------------------------------------------
tot          67.65   97.60  126.97  292.22
 
magnetization (x)
 
# of ion       s       p       d       tot
------------------------------------------
    1        0.005   0.013   0.000   0.018
    2        0.005   0.013   0.000   0.018
    3        0.005   0.012  -0.000   0.017
    4        0.000   0.003  -0.000   0.003
    5        0.004   0.008  -0.001   0.011
    6        0.004   0.009  -0.000   0.013
    7        0.005   0.013   0.000   0.018
    8        0.005   0.013   0.000   0.019
    9        0.005   0.014   0.000   0.019
   10        0.000   0.005  -0.000   0.005
   11        0.004   0.009  -0.000   0.013
   12        0.002   0.000   0.575   0.577
   13        0.000  -0.000   0.450   0.450
   14        0.003  -0.000   0.538   0.541
   15        0.000  -0.000   0.378   0.378
   16        0.000  -0.000   0.424   0.424
   17       -0.000  -0.000   0.429   0.429
   18        0.003  -0.000   0.587   0.590
   19        0.000  -0.000   0.434   0.433
   20        0.004  -0.000   0.604   0.607
   21       -0.002  -0.000  -0.267  -0.269
   22        0.003  -0.000   0.521   0.524
   23       -0.002  -0.000  -0.254  -0.256
   24       -0.000  -0.000   0.419   0.419
   25        0.001  -0.001   0.455   0.455
   26        0.003  -0.000   0.595   0.598
   27        0.000  -0.001   0.467   0.467
   28        0.007   0.070   0.000   0.077
   29        0.006   0.055   0.000   0.061
   30        0.009   0.081   0.000   0.090
   31        0.007   0.057   0.000   0.064
   32        0.001  -0.025  -0.000  -0.024
   33        0.009   0.076   0.000   0.085
   34        0.001  -0.001  -0.000  -0.000
   35        0.008   0.053   0.000   0.062
   36        0.008   0.060   0.000   0.068
   37        0.008   0.071   0.000   0.079
   38        0.007   0.043   0.000   0.050
   39        0.008   0.048   0.000   0.055
   40        0.005   0.031   0.000   0.036
   41        0.004   0.044   0.000   0.048
   42        0.007   0.038   0.000   0.045
   43        0.006   0.045   0.000   0.051
   44        0.006   0.069   0.000   0.075
   45        0.007   0.051   0.000   0.058
   46        0.008   0.077   0.000   0.085
   47        0.009   0.055   0.000   0.064
   48        0.008   0.060   0.000   0.068
   49        0.000  -0.004  -0.000  -0.004
   50        0.007   0.040   0.000   0.047
   51        0.001  -0.023  -0.000  -0.022
   52        0.008   0.057   0.000   0.065
   53        0.008   0.052   0.000   0.060
   54        0.007   0.032   0.000   0.039
   55        0.008   0.056   0.000   0.064
   56        0.004   0.034   0.000   0.039
   57        0.007   0.050   0.000   0.057
   58        0.006   0.038   0.000   0.044
   59        0.008   0.052   0.000   0.060
--------------------------------------------------
tot           0.26    1.55    6.36    8.17
 

 total amount of memory used by VASP MPI-rank0   100292. kBytes
=======================================================================

   base      :      30000. kBytes
   nonlr-proj:      24381. kBytes
   fftplans  :       6149. kBytes
   grid      :      35266. kBytes
   one-center:        917. kBytes
   wavefun   :       3579. kBytes
 
  
  
 General timing and accounting informations for this job:
 ========================================================
  
                  Total CPU time used (sec):      542.222
                            User time (sec):      537.903
                          System time (sec):        4.319
                         Elapsed time (sec):      548.924
  
                   Maximum memory used (kb):      148464.
                   Average memory used (kb):           0.
  
                          Minor page faults:        37061
                          Major page faults:           47
                 Voluntary context switches:         1297
