 vasp.5.4.4.18Apr17-6-g9f103f2a35 (build May 12 2020 05:39:39) gamma-only       
  
 MD_VERSION_INFO: Compiled 2020-05-12T12:39:39-UTC in devlin.sd.materialsdesign.
 com:/home/medea2/data/build/wwolf/vasp-gpu5.4.4/13047/x86_64/src/src/build/gam 
 from svn 13047
 
 This VASP executable licensed from Materials Design, Inc.
 
 executed on                        Lin64 date 2023.03.07  05:13:39
 running on   16 total cores
 distrk:  each k-point on   16 cores,    1 groups
 distr:  one band on NCORES_PER_BAND=   1 cores,   16 groups


--------------------------------------------------------------------------------------------------------


 INCAR:
 POTCAR:    PAW_PBE Li_sv 10Sep2004               
 POTCAR:    PAW_PBE Ni 02Aug2007                  
 POTCAR:    PAW_PBE O 08Apr2002                   

 ----------------------------------------------------------------------------- 
|                                                                             |
|           W    W    AA    RRRRR   N    N  II  N    N   GGGG   !!!           |
|           W    W   A  A   R    R  NN   N  II  NN   N  G    G  !!!           |
|           W    W  A    A  R    R  N N  N  II  N N  N  G       !!!           |
|           W WW W  AAAAAA  RRRRR   N  N N  II  N  N N  G  GGG   !            |
|           WW  WW  A    A  R   R   N   NN  II  N   NN  G    G                |
|           W    W  A    A  R    R  N    N  II  N    N   GGGG   !!!           |
|                                                                             |
|      For optimal performance we recommend to set                            |
|        NCORE= 4 - approx SQRT( number of cores)                             |
|      NCORE specifies how many cores store one orbital (NPAR=cpu/NCORE).     |
|      This setting can  greatly improve the performance of VASP for DFT.     |
|      The default,   NCORE=1            might be grossly inefficient         |
|      on modern multi-core architectures or massively parallel machines.     |
|      Do your own testing !!!!                                               |
|      Unfortunately you need to use the default for GW and RPA calculations. |
|      (for HF NCORE is supported but not extensively tested yet)             |
|                                                                             |
 ----------------------------------------------------------------------------- 

 POTCAR:    PAW_PBE Li_sv 10Sep2004               
  local pseudopotential read in
  atomic valenz-charges read in
  non local Contribution for L=           0  read in
    real space projection operators read in
  non local Contribution for L=           0  read in
    real space projection operators read in
  non local Contribution for L=           1  read in
    real space projection operators read in
    PAW grid and wavefunctions read in
 
   number of l-projection  operators is LMAX  =           3
   number of lm-projection operators is LMMAX =           5
 
 POTCAR:    PAW_PBE Ni 02Aug2007                  
  local pseudopotential read in
  partial core-charges read in
  partial kinetic energy density read in
  atomic valenz-charges read in
  non local Contribution for L=           2  read in
    real space projection operators read in
  non local Contribution for L=           2  read in
    real space projection operators read in
  non local Contribution for L=           0  read in
    real space projection operators read in
  non local Contribution for L=           0  read in
    real space projection operators read in
  non local Contribution for L=           1  read in
    real space projection operators read in
  non local Contribution for L=           1  read in
    real space projection operators read in
    PAW grid and wavefunctions read in
 
   number of l-projection  operators is LMAX  =           6
   number of lm-projection operators is LMMAX =          18
 
 POTCAR:    PAW_PBE O 08Apr2002                   
  local pseudopotential read in
  partial core-charges read in
  partial kinetic energy density read in
  kinetic energy density of atom read in
  atomic valenz-charges read in
  non local Contribution for L=           0  read in
    real space projection operators read in
  non local Contribution for L=           0  read in
    real space projection operators read in
  non local Contribution for L=           1  read in
    real space projection operators read in
  non local Contribution for L=           1  read in
    real space projection operators read in
    PAW grid and wavefunctions read in
 
   number of l-projection  operators is LMAX  =           4
   number of lm-projection operators is LMMAX =           8
 
 Optimization of the real space projectors (new method)

 maximal supplied QI-value         = 22.11
 optimisation between [QCUT,QGAM] = [ 11.28, 22.77] = [ 35.61,145.23] Ry 
 Optimized for a Real-space Cutoff    1.10 Angstroem

   l    n(q)    QCUT    max X(q) W(low)/X(q) W(high)/X(q)  e(spline) 
   0      7    11.276    10.506    0.54E-04    0.58E-04    0.16E-07
   0      7    11.276     8.367    0.11E-03    0.14E-03    0.35E-07
   1      7    11.276     8.983    0.23E-03    0.43E-03    0.86E-07
 Optimization of the real space projectors (new method)

 maximal supplied QI-value         = 16.25
 optimisation between [QCUT,QGAM] = [ 11.38, 22.75] = [ 36.24,144.96] Ry 
 Optimized for a Real-space Cutoff    1.47 Angstroem

   l    n(q)    QCUT    max X(q) W(low)/X(q) W(high)/X(q)  e(spline) 
   2      9    11.376    60.317    0.17E-03    0.16E-04    0.16E-06
   2      9    11.376    55.921    0.17E-03    0.16E-04    0.17E-06
   0     10    11.376    51.690    0.45E-04    0.60E-04    0.21E-06
   0     10    11.376    30.015    0.37E-04    0.55E-04    0.19E-06
   1     10    11.376    18.849    0.83E-04    0.11E-03    0.92E-07
   1     10    11.376    14.624    0.69E-04    0.92E-04    0.82E-07
 Optimization of the real space projectors (new method)

 maximal supplied QI-value         = 24.76
 optimisation between [QCUT,QGAM] = [ 11.39, 22.77] = [ 36.31,145.25] Ry 
 Optimized for a Real-space Cutoff    1.10 Angstroem

   l    n(q)    QCUT    max X(q) W(low)/X(q) W(high)/X(q)  e(spline) 
   0      7    11.387    20.381    0.22E-03    0.48E-03    0.18E-06
   0      7    11.387    15.268    0.22E-03    0.52E-03    0.19E-06
   1      7    11.387     5.964    0.22E-03    0.73E-03    0.24E-06
   1      7    11.387     5.382    0.19E-03    0.60E-03    0.21E-06

 ----------------------------------------------------------------------------- 
|                                                                             |
|  ADVICE TO THIS USER RUNNING 'VASP/VAMP'   (HEAR YOUR MASTER'S VOICE ...):  |
|                                                                             |
|      You enforced a specific xc-type in the INCAR file,                     |
|      a different type was found on the POTCAR file                          |
|          I HOPE YOU KNOW, WHAT YOU ARE  DOING                               |
|                                                                             |
 ----------------------------------------------------------------------------- 

  PAW_PBE Li_sv 10Sep2004               :
 energy of atom  1       EATOM= -202.7858
 kinetic energy error for atom=    0.0143 (will be added to EATOM!!)
  PAW_PBE Ni 02Aug2007                  :
 energy of atom  2       EATOM=-1077.6739
 kinetic energy error for atom=    0.0030 (will be added to EATOM!!)
  PAW_PBE O 08Apr2002                   :
 energy of atom  3       EATOM= -432.3788
 kinetic energy error for atom=    0.0224 (will be added to EATOM!!)
 
 
 POSCAR: ce251_1                                 
  positions in direct lattice
  No initial velocities read in
 exchange correlation table for  LEXCH =       14
   RHO(1)=    0.500       N(1)  =     2000
   RHO(2)=  100.500       N(2)  =     4000
 


--------------------------------------------------------------------------------------------------------


 ion  position               nearest neighbor table
   1  0.000  0.251  0.250-  31 2.08  45 2.08  49 2.13  52 2.13  40 2.14  37 2.14  21 2.84
   2  0.000  0.749  0.750-  32 2.08  46 2.08  50 2.13  51 2.13  39 2.14  38 2.14  21 2.84
   3  0.259  0.250  0.500-  43 2.09  41 2.09  53 2.11  49 2.12  31 2.15  29 2.15  14 2.84  22 2.84

   4  0.259  0.750  0.500-  44 2.09  42 2.09  54 2.11  50 2.12  32 2.15  30 2.15  15 2.84  23 2.84

   5  0.741  0.750  0.500-  44 2.09  42 2.09  55 2.11  51 2.12  32 2.15  30 2.15  16 2.84  24 2.84

   6  0.741  0.250  0.500-  43 2.09  41 2.09  56 2.11  52 2.12  31 2.15  29 2.15  17 2.84  25 2.84

   7  0.000  0.249  0.750-  29 2.08  47 2.08  53 2.13  56 2.13  36 2.14  33 2.14  19 2.84
   8  0.000  0.751  0.250-  30 2.08  48 2.08  54 2.13  55 2.13  35 2.14  34 2.14  19 2.84
   9  0.258  0.250  0.000-  59 2.10  57 2.10  37 2.10  33 2.11  47 2.15  45 2.15
  10  0.258  0.750  1.000-  60 2.10  58 2.10  38 2.10  34 2.11  48 2.15  46 2.15
  11  0.742  0.750  1.000-  60 2.10  58 2.10  39 2.10  35 2.11  48 2.15  46 2.15
  12  0.742  0.250  0.000-  59 2.10  57 2.10  40 2.10  36 2.11  47 2.15  45 2.15
  13  0.000  0.000  0.000-  37 1.85  38 1.85  39 1.85  40 1.85  47 2.05  48 2.05  18 2.80  18 2.80
                            14 2.86  15 2.86  16 2.86  17 2.86
  14  0.251  0.001  0.250-  60 1.88  43 1.88  31 1.89  48 1.89  54 2.03  37 2.03  17 2.79  17 2.82
                             3 2.84  18 2.86  20 2.86  13 2.86  19 2.87
  15  0.251  0.999  0.750-  59 1.88  44 1.88  32 1.89  47 1.89  53 2.03  38 2.03  16 2.79  16 2.82
                             4 2.84  18 2.86  20 2.86  13 2.86  19 2.87
  16  0.749  0.999  0.750-  59 1.88  44 1.88  32 1.89  47 1.89  56 2.03  39 2.03  15 2.79  15 2.82
                             5 2.84  18 2.86  20 2.86  13 2.86  19 2.87
  17  0.749  0.001  0.250-  60 1.88  43 1.88  31 1.89  48 1.89  55 2.03  40 2.03  14 2.79  14 2.82
                             6 2.84  18 2.86  20 2.86  13 2.86  19 2.87
  18  0.500  0.000  0.000-  37 1.87  38 1.87  39 1.87  40 1.87  59 1.92  60 1.92  13 2.80  13 2.80
                            17 2.86  14 2.86  15 2.86  16 2.86
  19  0.000  0.000  0.500-  53 1.85  54 1.85  55 1.85  56 1.85  31 2.06  32 2.06  20 2.80  20 2.80
                             7 2.84   8 2.84  14 2.87  15 2.87  16 2.87  17 2.87
  20  0.500  0.000  0.500-  53 1.87  54 1.87  55 1.87  56 1.87  43 1.93  44 1.93  19 2.80  19 2.80
                            14 2.86  15 2.86  16 2.86  17 2.86
  21  0.000  0.500  0.500-  49 1.85  50 1.85  51 1.85  52 1.85  29 2.06  30 2.06  26 2.80  26 2.80
                             1 2.84   2 2.84  22 2.87  23 2.87  24 2.87  25 2.87
  22  0.251  0.499  0.750-  58 1.88  41 1.88  29 1.89  46 1.89  50 2.03  33 2.03  25 2.79  25 2.82
                             3 2.84  28 2.86  26 2.86  27 2.86  21 2.87
  23  0.251  0.501  0.250-  57 1.88  42 1.88  30 1.89  45 1.89  49 2.03  34 2.03  24 2.79  24 2.82
                             4 2.84  28 2.86  26 2.86  27 2.86  21 2.87
  24  0.749  0.501  0.250-  57 1.88  42 1.88  30 1.89  45 1.89  52 2.03  35 2.03  23 2.79  23 2.82
                             5 2.84  28 2.86  26 2.86  27 2.86  21 2.87
  25  0.749  0.499  0.750-  58 1.88  41 1.88  29 1.89  46 1.89  51 2.03  36 2.03  22 2.79  22 2.82
                             6 2.84  28 2.86  26 2.86  27 2.86  21 2.87
  26  0.500  0.500  0.500-  49 1.87  50 1.87  51 1.87  52 1.87  41 1.93  42 1.93  21 2.80  21 2.80
                            25 2.86  22 2.86  23 2.86  24 2.86
  27  0.000  0.500  0.000-  33 1.85  34 1.85  35 1.85  36 1.85  45 2.05  46 2.05  28 2.80  28 2.80
                            22 2.86  23 2.86  24 2.86  25 2.86
  28  0.500  0.500  0.000-  33 1.87  34 1.87  35 1.87  36 1.87  57 1.92  58 1.92  27 2.80  27 2.80
                            22 2.86  23 2.86  24 2.86  25 2.86
  29  0.000  0.389  0.639-  22 1.89  25 1.89  21 2.06   7 2.08   3 2.15   6 2.15
  30  0.000  0.611  0.361-  23 1.89  24 1.89  21 2.06   8 2.08   4 2.15   5 2.15
  31  0.000  0.111  0.361-  14 1.89  17 1.89  19 2.06   1 2.08   6 2.15   3 2.15
  32  0.000  0.889  0.639-  15 1.89  16 1.89  19 2.06   2 2.08   5 2.15   4 2.15
  33  0.247  0.394  0.891-  27 1.85  28 1.87  22 2.03   9 2.11   7 2.14
  34  0.247  0.606  0.109-  27 1.85  28 1.87  23 2.03  10 2.11   8 2.14
  35  0.753  0.606  0.109-  27 1.85  28 1.87  24 2.03  11 2.11   8 2.14
  36  0.753  0.394  0.891-  27 1.85  28 1.87  25 2.03  12 2.11   7 2.14
  37  0.247  0.106  0.109-  13 1.85  18 1.87  14 2.03   9 2.10   1 2.14
  38  0.247  0.894  0.891-  13 1.85  18 1.87  15 2.03  10 2.10   2 2.14
  39  0.753  0.894  0.891-  13 1.85  18 1.87  16 2.03  11 2.10   2 2.14
  40  0.753  0.106  0.109-  13 1.85  18 1.87  17 2.03  12 2.10   1 2.14
  41  0.500  0.397  0.631-  22 1.88  25 1.88  26 1.93   6 2.09   3 2.09
  42  0.500  0.603  0.369-  23 1.88  24 1.88  26 1.93   5 2.09   4 2.09
  43  0.500  0.103  0.369-  14 1.88  17 1.88  20 1.93   6 2.09   3 2.09
  44  0.500  0.897  0.631-  15 1.88  16 1.88  20 1.93   5 2.09   4 2.09
  45  0.000  0.390  0.138-  23 1.89  24 1.89  27 2.05   1 2.08  12 2.15   9 2.15
  46  0.000  0.610  0.862-  22 1.89  25 1.89  27 2.05   2 2.08  11 2.15  10 2.15
  47  0.000  0.110  0.862-  15 1.89  16 1.89  13 2.05   7 2.08  12 2.15   9 2.15
  48  0.000  0.890  0.138-  14 1.89  17 1.89  13 2.05   8 2.08  11 2.15  10 2.15
  49  0.247  0.395  0.390-  21 1.85  26 1.87  23 2.03   3 2.12   1 2.13
  50  0.247  0.605  0.610-  21 1.85  26 1.87  22 2.03   4 2.12   2 2.13
  51  0.753  0.605  0.610-  21 1.85  26 1.87  25 2.03   5 2.12   2 2.13
  52  0.753  0.395  0.390-  21 1.85  26 1.87  24 2.03   6 2.12   1 2.13
  53  0.247  0.105  0.610-  19 1.85  20 1.87  15 2.03   3 2.11   7 2.13
  54  0.247  0.895  0.390-  19 1.85  20 1.87  14 2.03   4 2.11   8 2.13
  55  0.753  0.895  0.390-  19 1.85  20 1.87  17 2.03   5 2.11   8 2.13
  56  0.753  0.105  0.610-  19 1.85  20 1.87  16 2.03   6 2.11   7 2.13
  57  0.500  0.399  0.131-  23 1.88  24 1.88  28 1.92  12 2.10   9 2.10
  58  0.500  0.601  0.869-  22 1.88  25 1.88  28 1.92  11 2.10  10 2.10
  59  0.500  0.101  0.869-  15 1.88  16 1.88  18 1.92  12 2.10   9 2.10
  60  0.500  0.899  0.131-  14 1.88  17 1.88  18 1.92  11 2.10  10 2.10
 
  LATTYP: Found a simple monoclinic cell.
 ALAT       =    11.3829566444
 B/A-ratio  =     0.4923899414
 C/A-ratio  =     1.6694249792
 COS(beta)  =    -0.9011200545
  
  Lattice vectors:
  
 A1 = (  -6.3629931670,   0.0000000000,  -9.4384331288)
 A2 = (   0.0000000000,  -5.6048533547,   0.0000000000)
 A3 = (   2.7405322811,   0.0000000000,  18.8043397599)


Analysis of symmetry for initial positions (statically):
=====================================================================
 Subroutine PRICEL returns:
 Original cell was already a primitive cell.
 

 Routine SETGRP: Setting up the symmetry group for a 
 simple monoclinic supercell.


 Subroutine GETGRP returns: Found  4 space group operations
 (whereof  4 operations were pure point group operations)
 out of a pool of  4 trial point group operations.


The static configuration has the point symmetry C_2h.


Analysis of symmetry for dynamics (positions and initial velocities):
=====================================================================
 Subroutine PRICEL returns:
 Original cell was already a primitive cell.
 

 Routine SETGRP: Setting up the symmetry group for a 
 simple monoclinic supercell.


 Subroutine GETGRP returns: Found  4 space group operations
 (whereof  4 operations were pure point group operations)
 out of a pool of  4 trial point group operations.


The dynamic configuration has the point symmetry C_2h.


Analysis of structural, dynamic, and magnetic symmetry:
=====================================================================
 Subroutine PRICEL returns:
 Original cell was already a primitive cell.
 

 Routine SETGRP: Setting up the symmetry group for a 
 simple monoclinic supercell.


 Subroutine GETGRP returns: Found  4 space group operations
 (whereof  4 operations were pure point group operations)
 out of a pool of  4 trial point group operations.


The magnetic configuration has the point symmetry C_2h.


 Subroutine INISYM returns: Found  4 space group operations
 (whereof  4 operations are pure point group operations),
 and found     1 'primitive' translations

 
 
 KPOINTS: Automatic mesh                          

Automatic generation of k-mesh.
Space group operators:
 irot       det(A)        alpha          n_x          n_y          n_z        tau_x        tau_y        tau_z
    1     1.000000     0.000000     1.000000     0.000000     0.000000     0.000000     0.000000     0.000000
    2    -1.000000     0.000000     1.000000     0.000000     0.000000     0.000000     0.000000     0.000000
    3     1.000000   180.000000     0.000000     1.000000     0.000000     0.000000     0.000000     0.000000
    4    -1.000000   180.000000     0.000000     1.000000     0.000000     0.000000     0.000000     0.000000
 
 Subroutine IBZKPT returns following result:
 ===========================================
 
 Found      1 irreducible k-points:
 
 Following reciprocal coordinates:
            Coordinates               Weight
  0.000000  0.000000  0.000000      1.000000
 
 Following cartesian coordinates:
            Coordinates               Weight
  0.000000  0.000000  0.000000      1.000000
 


--------------------------------------------------------------------------------------------------------




 Dimension of arrays:
   k-points           NKPTS =      1   k-points in BZ     NKDIM =      1   number of bands    NBANDS=    256
   number of dos      NEDOS =    301   number of ions     NIONS =     60
   non local maximal  LDIM  =      6   non local SUM 2l+1 LMDIM =     18
   total plane-waves  NPLWV = 268800
   max r-space proj   IRMAX =   6915   max aug-charges    IRDMAX=  16773
   dimension x,y,z NGX =    42 NGY =   80 NGZ =   80
   dimension x,y,z NGXF=    84 NGYF=  160 NGZF=  160
   support grid    NGXF=    84 NGYF=  160 NGZF=  160
   ions per type =              12  16  32
   NGX,Y,Z   is equivalent  to a cutoff of  12.46, 13.24, 13.32 a.u.
   NGXF,Y,Z  is equivalent  to a cutoff of  24.92, 26.49, 26.64 a.u.

 SYSTEM =  unknown system                          
 POSCAR =  ce251_1                                 

 Startparameter for this run:
   NWRITE =      1    write-flag & timer
   PREC   = accura    normal or accurate (medium, high low for compatibility)
   ISTART =      0    job   : 0-new  1-cont  2-samecut
   ICHARG =      2    charge: 1-file 2-atom 10-const
   ISPIN  =      2    spin polarized calculation?
   LNONCOLLINEAR =      F non collinear calculations
   LSORBIT =      F    spin-orbit coupling
   INIWAV =      1    electr: 0-lowe 1-rand  2-diag
   LASPH  =      F    aspherical Exc in radial PAW
   METAGGA=      F    non-selfconsistent MetaGGA calc.

 Electronic Relaxation 1
   ENCUT  =  500.0 eV  36.75 Ry    6.06 a.u.  10.22 18.31 18.21*2*pi/ulx,y,z
   ENINI  =  500.0     initial cutoff
   ENAUG  =  628.9 eV  augmentation charge cutoff
   NELM   =     80;   NELMIN=  2; NELMDL= -5     # of ELM steps 
   EDIFF  = 0.1E-04   stopping-criterion for ELM
   LREAL  =      T    real-space projection
   NLSPLINE    = F    spline interpolate recip. space projectors
   LCOMPAT=      F    compatible to vasp.4.4
   GGA_COMPAT  = T    GGA compatible to vasp.4.4-vasp.4.6
   LMAXPAW     = -100 max onsite density
   LMAXMIX     =    2 max onsite mixed and CHGCAR
   VOSKOWN=      1    Vosko Wilk Nusair interpolation
   ROPT   =   -0.00025  -0.00025  -0.00025
 Ionic relaxation
   EDIFFG = -.2E-01   stopping-criterion for IOM
   NSW    =     20    number of steps for IOM
   NBLOCK =      1;   KBLOCK =     20    inner block; outer block 
   IBRION =      1    ionic relax: 0-MD 1-quasi-New 2-CG
   NFREE  =      0    steps in history (QN), initial steepest desc. (CG)
   ISIF   =      3    stress and relaxation
   IWAVPR =     11    prediction:  0-non 1-charg 2-wave 3-comb
   ISYM   =      2    0-nonsym 1-usesym 2-fastsym
   LCORR  =      T    Harris-Foulkes like correction to forces

   POTIM  = 0.5000    time-step for ionic-motion
   TEIN   =    0.0    initial temperature
   TEBEG  =    0.0;   TEEND  =   0.0 temperature during run
   SMASS  =  -3.00    Nose mass-parameter (am)
   estimated Nose-frequenzy (Omega)   =  0.10E-29 period in steps =****** mass=  -0.718E-27a.u.
   SCALEE = 1.0000    scale energy and forces
   NPACO  =    256;   APACO  = 16.0  distance and # of slots for P.C.
   PSTRESS=    0.0 pullay stress

  Mass of Ions in am
   POMASS =   7.01 58.69 16.00
  Ionic Valenz
   ZVAL   =   3.00 10.00  6.00
  Atomic Wigner-Seitz radii
   RWIGS  =   1.23  1.15  0.73
  virtual crystal weights 
   VCA    =   1.00  1.00  1.00
   NELECT =     388.0000    total number of electrons
   NUPDOWN=      -1.0000    fix difference up-down

 DOS related values:
   EMIN   =  10.00;   EMAX   =-10.00  energy-range for DOS
   EFERMI =   0.00
   ISMEAR =     0;   SIGMA  =   0.05  broadening in eV -4-tet -1-fermi 0-gaus

 Electronic relaxation 2 (details)
   IALGO  =     38    algorithm
   LDIAG  =      T    sub-space diagonalisation (order eigenvalues)
   LSUBROT=      F    optimize rotation matrix (better conditioning)
   TURBO    =      0    0=normal 1=particle mesh
   IRESTART =      0    0=no restart 2=restart with 2 vectors
   NREBOOT  =      0    no. of reboots
   NMIN     =      0    reboot dimension
   EREF     =   0.00    reference energy to select bands
   IMIX   =      4    mixing-type and parameters
     AMIX     =   0.40;   BMIX     =  1.00
     AMIX_MAG =   1.60;   BMIX_MAG =  1.00
     AMIN     =   0.10
     WC   =   100.;   INIMIX=   1;  MIXPRE=   1;  MAXMIX= -45

 Intra band minimization:
   WEIMIN = 0.0010     energy-eigenvalue tresh-hold
   EBREAK =  0.98E-08  absolut break condition
   DEPER  =   0.30     relativ break condition  

   TIME   =   0.40     timestep for ELM

  volume/ion in A,a.u.               =       8.76        59.12
  Fermi-wavevector in a.u.,A,eV,Ry     =   1.479513  2.795873 29.782576  2.188958
  Thomas-Fermi vector in A             =   2.593661
 
 Write flags
   LWAVE        =      F    write WAVECAR
   LDOWNSAMPLE  =      F    k-point downsampling of WAVECAR
   LCHARG       =      T    write CHGCAR
   LVTOT        =      F    write LOCPOT, total local potential
   LVHAR        =      F    write LOCPOT, Hartree potential only
   LELF         =      F    write electronic localiz. function (ELF)
   LORBIT       =      0    0 simple, 1 ext, 2 COOP (PROOUT), +10 PAW based schemes


 Dipole corrections
   LMONO  =      F    monopole corrections only (constant potential shift)
   LDIPOL =      F    correct potential (dipole corrections)
   IDIPOL =      0    1-x, 2-y, 3-z, 4-all directions 
   EPSILON=  1.0000000 bulk dielectric constant

 Exchange correlation treatment:
   GGA     =    PS    GGA type
   LEXCH   =    14    internal setting for exchange type
   VOSKOWN=      1    Vosko Wilk Nusair interpolation
   LHFCALC =     F    Hartree Fock is set to
   LHFONE  =     F    Hartree Fock one center treatment
   AEXX    =    0.0000 exact exchange contribution

 Linear response parameters
   LEPSILON=     F    determine dielectric tensor
   LRPA    =     F    only Hartree local field effects (RPA)
   LNABLA  =     F    use nabla operator in PAW spheres
   LVEL    =     F    velocity operator in full k-point grid
   LINTERFAST=   F  fast interpolation
   KINTER  =     0    interpolate to denser k-point grid
   CSHIFT  =0.1000    complex shift for real part using Kramers Kronig
   OMEGAMAX=  -1.0    maximum frequency
   DEG_THRESHOLD= 0.2000000E-02 threshold for treating states as degnerate
   RTIME   =   -0.100 relaxation time in fs
  (WPLASMAI=    0.000 imaginary part of plasma frequency in eV, 0.658/RTIME)
   DFIELD  = 0.0000000 0.0000000 0.0000000 field for delta impulse in time
 
 Orbital magnetization related:
   ORBITALMAG=     F  switch on orbital magnetization
   LCHIMAG   =     F  perturbation theory with respect to B field
   DQ        =  0.001000  dq finite difference perturbation B field
   LLRAUG    =     F  two centre corrections for induced B field



--------------------------------------------------------------------------------------------------------


 quasi-Newton-method for relaxation of ions
 charge density and potential will be updated during run
 spin polarized calculation
 Variant of blocked Davidson
 Davidson routine will perform the subspace rotation
 perform sub-space diagonalisation
    after iterative eigenvector-optimisation
 modified Broyden-mixing scheme, WC =      100.0
 initial mixing is a Kerker type mixing with AMIX =  0.4000 and BMIX =      1.0000
 Hartree-type preconditioning will be used
 using additional bands           62
 real space projection scheme for non local part
 use partial core corrections
 calculate Harris-corrections to forces 
   (improved forces if not selfconsistent)
 use gradient corrections 
 use of overlap-Matrix (Vanderbilt PP)
 Gauss-broadening in eV      SIGMA  =   0.05


--------------------------------------------------------------------------------------------------------


  energy-cutoff  :      500.00
  volume of cell :      525.65
      direct lattice vectors                 reciprocal lattice vectors
     0.000000000  5.604853355  0.000000000     0.000000000  0.178416800  0.000000000
    -3.622460886  0.000000000  9.365906631    -0.000773323  0.000000000  0.106471131
     9.985454053  0.000000000  0.072526498     0.099865130  0.000000000  0.038624934

  length of vectors
     5.604853355 10.042033155  9.985717437     0.178416800  0.106473939  0.107074412


 
 k-points in units of 2pi/SCALE and weight: Automatic mesh                          
   0.00000000  0.00000000  0.00000000       1.000
 
 k-points in reciprocal lattice and weights: Automatic mesh                          
   0.00000000  0.00000000  0.00000000       1.000
 
 position of ions in fractional coordinates (direct lattice) 
   0.00000000  0.25057014  0.24986672
   0.00000000  0.74942986  0.75013328
   0.25913829  0.24989272  0.50002514
   0.25913829  0.75010728  0.49997486
   0.74086171  0.75010728  0.49997486
   0.74086171  0.24989272  0.50002514
   0.00000000  0.24902327  0.74990880
   0.00000000  0.75097673  0.25009120
   0.25834875  0.24966080  0.00004902
   0.25834875  0.75033920  0.99995098
   0.74165125  0.75033920  0.99995098
   0.74165125  0.24966080  0.00004902
   0.00000000  0.00000000  0.00000000
   0.25120927  0.00067978  0.25000353
   0.25120927  0.99932022  0.74999647
   0.74879073  0.99932022  0.74999647
   0.74879073  0.00067978  0.25000353
   0.50000000  0.00000000  0.00000000
   0.00000000  0.00000000  0.50000000
   0.50000000  0.00000000  0.50000000
   0.00000000  0.50000000  0.50000000
   0.25120173  0.49924132  0.75009441
   0.25120173  0.50075868  0.24990559
   0.74879827  0.50075868  0.24990559
   0.74879827  0.49924132  0.75009441
   0.50000000  0.50000000  0.50000000
   0.00000000  0.50000000  0.00000000
   0.50000000  0.50000000  0.00000000
   0.00000000  0.38932457  0.63927557
   0.00000000  0.61067543  0.36072443
   0.00000000  0.11066088  0.36091287
   0.00000000  0.88933912  0.63908713
   0.24708726  0.39448822  0.89058292
   0.24708726  0.60551178  0.10941708
   0.75291274  0.60551178  0.10941708
   0.75291274  0.39448822  0.89058292
   0.24710449  0.10553088  0.10941364
   0.24710449  0.89446912  0.89058636
   0.75289551  0.89446912  0.89058636
   0.75289551  0.10553088  0.10941364
   0.50000000  0.39725725  0.63091011
   0.50000000  0.60274275  0.36908989
   0.50000000  0.10271659  0.36915653
   0.50000000  0.89728341  0.63084347
   0.00000000  0.39038468  0.13800354
   0.00000000  0.60961532  0.86199646
   0.00000000  0.10967334  0.86193367
   0.00000000  0.89032666  0.13806633
   0.24692949  0.39538640  0.38976346
   0.24692949  0.60461360  0.61023654
   0.75307051  0.60461360  0.61023654
   0.75307051  0.39538640  0.38976346
   0.24694738  0.10471627  0.61010224
   0.24694738  0.89528373  0.38989776
   0.75305262  0.89528373  0.38989776
   0.75305262  0.10471627  0.61010224
   0.50000000  0.39880816  0.13126171
   0.50000000  0.60119184  0.86873829
   0.50000000  0.10127637  0.86868783
   0.50000000  0.89872363  0.13131217
 
 position of ions in cartesian coordinates  (Angst):
   1.58735212  0.00000000  2.36493849
   4.77564105  0.00000000  7.07349463
   4.08775146  1.45243211  2.37673696
   2.27524171  1.45243211  7.06169617
   2.27524171  4.15242124  7.06169617
   4.08775146  4.15242124  2.37673696
   6.58610281  0.00000000  2.38671695
  -0.22310964  0.00000000  7.05171617
  -0.90389700  1.44800686  2.33830330
   7.26689016  1.44800686  7.10012983
   7.26689016  4.15684650  7.10012983
  -0.90389700  4.15684650  2.33830330
   0.00000000  0.00000000  0.00000000
   2.49393629  1.40799112  0.02449864
   3.86905688  1.40799112  9.41393449
   3.86905688  4.19686223  9.41393449
   2.49393629  4.19686223  0.02449864
   0.00000000  2.80242668  0.00000000
   4.99272703  0.00000000  0.03626325
   4.99272703  2.80242668  0.03626325
   3.18149658  0.00000000  4.71921656
   5.68155111  1.40794886  4.73024931
   0.68144205  1.40794886  4.70818382
   0.68144205  4.19690450  4.70818382
   5.68155111  4.19690450  4.73024931
   3.18149658  2.80242668  4.71921656
  -1.81123044  0.00000000  4.68295332
  -1.81123044  2.80242668  4.68295332
   4.97314380  0.00000000  3.69274199
   1.38984936  0.00000000  5.74569114
   3.20301417  0.00000000  1.06261522
   3.15997900  0.00000000  8.37581791
   7.46385668  1.38488786  3.75933070
  -1.10086351  1.38488786  5.67910243
  -1.10086351  4.21996550  5.67910243
   7.46385668  4.21996550  3.75933070
   0.71026339  1.38498443  0.99632776
   5.65272978  1.38498443  8.44210537
   5.65272978  4.21986892  8.44210537
   0.71026339  4.21986892  0.99632776
   4.86087507  2.80242668  3.76643201
   1.50211810  2.80242668  5.67200112
   3.31410874  2.80242668  0.98880762
   3.04888443  2.80242668  8.44962551
  -0.03612523  0.00000000  3.66631538
   6.39911839  0.00000000  5.77211775
   8.20951167  0.00000000  1.08970329
  -1.84651851  0.00000000  8.34872984
   2.45969335  1.38400358  3.73142028
   3.90329981  1.38400358  5.70701284
   3.90329981  4.22084977  5.70701284
   2.45969335  4.22084977  3.73142028
   5.71281729  1.38410385  1.02501139
   0.65017587  1.38410385  8.41342174
   0.65017587  4.22074950  8.41342174
   5.71281729  4.22074950  1.02501139
  -0.13395919  2.80242668  3.74471994
   6.49695235  2.80242668  5.69371319
   8.30737272  2.80242668  1.01154791
  -1.94437956  2.80242668  8.42688522
 


--------------------------------------------------------------------------------------------------------


 use serial FFT for orbitals x direction half grid
 k-point  1 :   0.0000 0.0000 0.0000  plane waves:    6664

 maximum and minimum number of plane-waves per node :      6664     6664

 maximum number of plane-waves:      6664
 maximum index in each direction: 
   IXMAX=   10   IYMAX=   18   IZMAX=   18
   IXMIN=    0   IYMIN=  -18   IZMIN=  -18

 The following grids will avoid any aliasing or wrap around errors in the Hartre
 e energy
  - symmetry arguments have not been applied
  - exchange correlation energies might require even more grid points
  - we recommend to set PREC=Normal or Accurate and rely on VASP defaults
 NGX is ok and might be reduce to    42
 NGY is ok and might be reduce to    80
 NGZ is ok and might be reduce to    80

 serial   3D FFT for wavefunctions
 parallel 3D FFT for charge:
    minimum data exchange during FFTs selected (reduces bandwidth)


 total amount of memory used by VASP MPI-rank0   100479. kBytes
=======================================================================

   base      :      30000. kBytes
   nonlr-proj:      24560. kBytes
   fftplans  :       6149. kBytes
   grid      :      35266. kBytes
   one-center:        933. kBytes
   wavefun   :       3571. kBytes
 
     INWAV:  cpu time    0.0000: real time    0.0000
 Broyden mixing: mesh for mixing (old mesh)
   NGX = 21   NGY = 37   NGZ = 37
  (NGX  = 84   NGY  =160   NGZ  =160)
  gives a total of  28749 points

 initial charge density was supplied:
 charge density of overlapping atoms calculated
 number of electron     388.0000000 magnetization      40.0000000
 keeping initial charge density in first step


--------------------------------------------------------------------------------------------------------


 Maximum index for non-local projection operator         6678
 Maximum index for augmentation-charges         1586 (set IRDMAX)


--------------------------------------------------------------------------------------------------------


 First call to EWALD:  gamma=   0.220
 Maximum number of real-space cells 4x 2x 2
 Maximum number of reciprocal cells 2x 3x 3

    FEWALD:  cpu time    0.0038: real time    0.0038


--------------------------------------- Iteration      1(   1)  ---------------------------------------


    POTLOK:  cpu time    0.1790: real time    0.1852
    SETDIJ:  cpu time    0.0223: real time    0.0223
     EDDAV:  cpu time    1.9920: real time    2.0135
    --------------------------------------------
      LOOP:  cpu time    2.1938: real time    2.2216

 eigenvalue-minimisations  :  1056
 total energy-change (2. order) : 0.6794748E+04  (-0.1728350E+05)
 number of electron     388.0000000 magnetization      40.0000000
 augmentation part      388.0000000 magnetization      40.0000000

 Free energy of the ion-electron system (eV)
  ---------------------------------------------------
  alpha Z        PSCENC =      1217.29097608
  Ewald energy   TEWEN  =    -23729.62121392
  -Hartree energ DENC   =    -10450.26140030
  -exchange      EXHF   =         0.00000000
  -V(xc)+E(xc)   XCENC  =      1583.16920798
  PAW double counting   =     27420.82707004   -28719.22785117
  entropy T*S    EENTRO =        -0.02913654
  eigenvalues    EBANDS =      6046.71999708
  atomic energy  EATOM  =     33425.88044021
  Solvation  Ediel_sol  =         0.00000000
  ---------------------------------------------------
  free energy    TOTEN  =      6794.74808946 eV

  energy without entropy =     6794.77722600  energy(sigma->0) =     6794.76265773


--------------------------------------------------------------------------------------------------------




--------------------------------------- Iteration      1(   2)  ---------------------------------------


     EDDAV:  cpu time    1.9366: real time    1.9412
    --------------------------------------------
      LOOP:  cpu time    1.9364: real time    1.9410

 eigenvalue-minimisations  :  1040
 total energy-change (2. order) :-0.5458730E+04  (-0.4956677E+04)
 number of electron     388.0000000 magnetization      40.0000000
 augmentation part      388.0000000 magnetization      40.0000000

 Free energy of the ion-electron system (eV)
  ---------------------------------------------------
  alpha Z        PSCENC =      1217.29097608
  Ewald energy   TEWEN  =    -23729.62121392
  -Hartree energ DENC   =    -10450.26140030
  -exchange      EXHF   =         0.00000000
  -V(xc)+E(xc)   XCENC  =      1583.16920798
  PAW double counting   =     27420.82707004   -28719.22785117
  entropy T*S    EENTRO =        -0.02421172
  eigenvalues    EBANDS =       587.98555545
  atomic energy  EATOM  =     33425.88044021
  Solvation  Ediel_sol  =         0.00000000
  ---------------------------------------------------
  free energy    TOTEN  =      1336.01857265 eV

  energy without entropy =     1336.04278437  energy(sigma->0) =     1336.03067851


--------------------------------------------------------------------------------------------------------




--------------------------------------- Iteration      1(   3)  ---------------------------------------


     EDDAV:  cpu time    2.1174: real time    2.1224
    --------------------------------------------
      LOOP:  cpu time    2.1174: real time    2.1224

 eigenvalue-minimisations  :  1168
 total energy-change (2. order) :-0.1546484E+04  (-0.1271307E+04)
 number of electron     388.0000000 magnetization      40.0000000
 augmentation part      388.0000000 magnetization      40.0000000

 Free energy of the ion-electron system (eV)
  ---------------------------------------------------
  alpha Z        PSCENC =      1217.29097608
  Ewald energy   TEWEN  =    -23729.62121392
  -Hartree energ DENC   =    -10450.26140030
  -exchange      EXHF   =         0.00000000
  -V(xc)+E(xc)   XCENC  =      1583.16920798
  PAW double counting   =     27420.82707004   -28719.22785117
  entropy T*S    EENTRO =        -0.08170212
  eigenvalues    EBANDS =      -958.44109402
  atomic energy  EATOM  =     33425.88044021
  Solvation  Ediel_sol  =         0.00000000
  ---------------------------------------------------
  free energy    TOTEN  =      -210.46556722 eV

  energy without entropy =     -210.38386510  energy(sigma->0) =     -210.42471616


--------------------------------------------------------------------------------------------------------




--------------------------------------- Iteration      1(   4)  ---------------------------------------


     EDDAV:  cpu time    2.2448: real time    2.2501
    --------------------------------------------
      LOOP:  cpu time    2.2448: real time    2.2501

 eigenvalue-minimisations  :  1248
 total energy-change (2. order) :-0.2489537E+03  (-0.2414595E+03)
 number of electron     388.0000000 magnetization      40.0000000
 augmentation part      388.0000000 magnetization      40.0000000

 Free energy of the ion-electron system (eV)
  ---------------------------------------------------
  alpha Z        PSCENC =      1217.29097608
  Ewald energy   TEWEN  =    -23729.62121392
  -Hartree energ DENC   =    -10450.26140030
  -exchange      EXHF   =         0.00000000
  -V(xc)+E(xc)   XCENC  =      1583.16920798
  PAW double counting   =     27420.82707004   -28719.22785117
  entropy T*S    EENTRO =        -0.12973691
  eigenvalues    EBANDS =     -1207.34670978
  atomic energy  EATOM  =     33425.88044021
  Solvation  Ediel_sol  =         0.00000000
  ---------------------------------------------------
  free energy    TOTEN  =      -459.41921778 eV

  energy without entropy =     -459.28948086  energy(sigma->0) =     -459.35434932


--------------------------------------------------------------------------------------------------------




--------------------------------------- Iteration      1(   5)  ---------------------------------------


     EDDAV:  cpu time    2.9563: real time    2.9633
    CHARGE:  cpu time    0.1645: real time    0.1649
    MIXING:  cpu time    0.0035: real time    0.0036
    --------------------------------------------
      LOOP:  cpu time    3.1240: real time    3.1315

 eigenvalue-minimisations  :  1760
 total energy-change (2. order) :-0.1357972E+02  (-0.1346254E+02)
 number of electron     387.9999788 magnetization      41.8615091
 augmentation part      117.4617437 magnetization      31.3494678

 Broyden mixing:
  rms(total) = 0.11019E+02    rms(broyden)= 0.11018E+02
  rms(prec ) = 0.13442E+02
  weight for this iteration     100.00

 Free energy of the ion-electron system (eV)
  ---------------------------------------------------
  alpha Z        PSCENC =      1217.29097608
  Ewald energy   TEWEN  =    -23729.62121392
  -Hartree energ DENC   =    -10450.26140030
  -exchange      EXHF   =         0.00000000
  -V(xc)+E(xc)   XCENC  =      1583.16920798
  PAW double counting   =     27420.82707004   -28719.22785117
  entropy T*S    EENTRO =        -0.13678963
  eigenvalues    EBANDS =     -1220.91938202
  atomic energy  EATOM  =     33425.88044021
  Solvation  Ediel_sol  =         0.00000000
  ---------------------------------------------------
  free energy    TOTEN  =      -472.99894273 eV

  energy without entropy =     -472.86215310  energy(sigma->0) =     -472.93054791


--------------------------------------------------------------------------------------------------------




--------------------------------------- Iteration      1(   6)  ---------------------------------------


    POTLOK:  cpu time    0.1627: real time    0.1631
    SETDIJ:  cpu time    0.0231: real time    0.0231
     EDDAV:  cpu time    2.5880: real time    2.5941
    CHARGE:  cpu time    0.1588: real time    0.1592
    MIXING:  cpu time    0.0036: real time    0.0036
    --------------------------------------------
      LOOP:  cpu time    2.9362: real time    2.9432

 eigenvalue-minimisations  :  1504
 total energy-change (2. order) :-0.4996185E+01  (-0.9941261E+02)
 number of electron     387.9999784 magnetization      35.1478577
 augmentation part      147.5547115 magnetization      33.4850848

 Broyden mixing:
  rms(total) = 0.16716E+02    rms(broyden)= 0.16715E+02
  rms(prec ) = 0.18535E+02
  weight for this iteration     100.00

 eigenvalues of (default mixing * dielectric matrix)
  average eigenvalue GAMMA=   0.2733
  0.2733

 Free energy of the ion-electron system (eV)
  ---------------------------------------------------
  alpha Z        PSCENC =      1217.29097608
  Ewald energy   TEWEN  =    -23729.62121392
  -Hartree energ DENC   =     -9978.25159087
  -exchange      EXHF   =         0.00000000
  -V(xc)+E(xc)   XCENC  =      1596.64962173
  PAW double counting   =     30129.00809035   -31263.37996184
  entropy T*S    EENTRO =        -0.04886660
  eigenvalues    EBANDS =     -1875.52262309
  atomic energy  EATOM  =     33425.88044021
  Solvation  Ediel_sol  =         0.00000000
  ---------------------------------------------------
  free energy    TOTEN  =      -477.99512794 eV

  energy without entropy =     -477.94626134  energy(sigma->0) =     -477.97069464


--------------------------------------------------------------------------------------------------------




--------------------------------------- Iteration      1(   7)  ---------------------------------------


    POTLOK:  cpu time    0.1600: real time    0.1604
    SETDIJ:  cpu time    0.0227: real time    0.0227
     EDDAV:  cpu time    2.4442: real time    2.4499
    CHARGE:  cpu time    0.1618: real time    0.1621
    MIXING:  cpu time    0.0037: real time    0.0037
    --------------------------------------------
      LOOP:  cpu time    2.7924: real time    2.7990

 eigenvalue-minimisations  :  1408
 total energy-change (2. order) : 0.1163550E+03  (-0.2396982E+02)
 number of electron     387.9999770 magnetization      24.7367991
 augmentation part      131.6032961 magnetization      21.5622038

 Broyden mixing:
  rms(total) = 0.44619E+01    rms(broyden)= 0.44615E+01
  rms(prec ) = 0.47959E+01
  weight for this iteration     100.00

 eigenvalues of (default mixing * dielectric matrix)
  average eigenvalue GAMMA=   0.6310
  0.6310  0.6310

 Free energy of the ion-electron system (eV)
  ---------------------------------------------------
  alpha Z        PSCENC =      1217.29097608
  Ewald energy   TEWEN  =    -23729.62121392
  -Hartree energ DENC   =    -10207.00297435
  -exchange      EXHF   =         0.00000000
  -V(xc)+E(xc)   XCENC  =      1583.32219295
  PAW double counting   =     31502.62928970   -32778.97047204
  entropy T*S    EENTRO =        -0.01251242
  eigenvalues    EBANDS =     -1375.15584203
  atomic energy  EATOM  =     33425.88044021
  Solvation  Ediel_sol  =         0.00000000
  ---------------------------------------------------
  free energy    TOTEN  =      -361.64011582 eV

  energy without entropy =     -361.62760340  energy(sigma->0) =     -361.63385961


--------------------------------------------------------------------------------------------------------




--------------------------------------- Iteration      1(   8)  ---------------------------------------


    POTLOK:  cpu time    0.1606: real time    0.1610
    SETDIJ:  cpu time    0.0231: real time    0.0231
     EDDAV:  cpu time    2.6616: real time    2.6679
    CHARGE:  cpu time    0.1596: real time    0.1600
    MIXING:  cpu time    0.0038: real time    0.0038
    --------------------------------------------
      LOOP:  cpu time    3.0086: real time    3.0157

 eigenvalue-minimisations  :  1552
 total energy-change (2. order) :-0.3099660E+01  (-0.6490603E+01)
 number of electron     387.9999758 magnetization      21.2989998
 augmentation part      129.6795302 magnetization      18.1391438

 Broyden mixing:
  rms(total) = 0.34640E+01    rms(broyden)= 0.34637E+01
  rms(prec ) = 0.40172E+01
  weight for this iteration     100.00

 eigenvalues of (default mixing * dielectric matrix)
  average eigenvalue GAMMA=   0.6296
  0.7603  0.7603  0.3684

 Free energy of the ion-electron system (eV)
  ---------------------------------------------------
  alpha Z        PSCENC =      1217.29097608
  Ewald energy   TEWEN  =    -23729.62121392
  -Hartree energ DENC   =    -10144.08809413
  -exchange      EXHF   =         0.00000000
  -V(xc)+E(xc)   XCENC  =      1573.35481430
  PAW double counting   =     33070.01218706   -34381.80475032
  entropy T*S    EENTRO =        -0.03436394
  eigenvalues    EBANDS =     -1395.72977143
  atomic energy  EATOM  =     33425.88044021
  Solvation  Ediel_sol  =         0.00000000
  ---------------------------------------------------
  free energy    TOTEN  =      -364.73977609 eV

  energy without entropy =     -364.70541215  energy(sigma->0) =     -364.72259412


--------------------------------------------------------------------------------------------------------




--------------------------------------- Iteration      1(   9)  ---------------------------------------


    POTLOK:  cpu time    0.1610: real time    0.1613
    SETDIJ:  cpu time    0.0225: real time    0.0226
     EDDAV:  cpu time    2.4752: real time    2.4810
    CHARGE:  cpu time    0.1561: real time    0.1565
    MIXING:  cpu time    0.0040: real time    0.0040
    --------------------------------------------
      LOOP:  cpu time    2.8187: real time    2.8254

 eigenvalue-minimisations  :  1424
 total energy-change (2. order) :-0.1481672E+01  (-0.3698822E+01)
 number of electron     387.9999761 magnetization      14.1702980
 augmentation part      129.4060864 magnetization      11.6007485

 Broyden mixing:
  rms(total) = 0.32462E+01    rms(broyden)= 0.32458E+01
  rms(prec ) = 0.41106E+01
  weight for this iteration     100.00

 eigenvalues of (default mixing * dielectric matrix)
  average eigenvalue GAMMA=   0.6487
  1.2387  0.7118  0.4272  0.2172

 Free energy of the ion-electron system (eV)
  ---------------------------------------------------
  alpha Z        PSCENC =      1217.29097608
  Ewald energy   TEWEN  =    -23729.62121392
  -Hartree energ DENC   =    -10143.18568581
  -exchange      EXHF   =         0.00000000
  -V(xc)+E(xc)   XCENC  =      1572.18456629
  PAW double counting   =     33615.86653556   -34938.87601115
  entropy T*S    EENTRO =        -0.01098461
  eigenvalues    EBANDS =     -1385.75007078
  atomic energy  EATOM  =     33425.88044021
  Solvation  Ediel_sol  =         0.00000000
  ---------------------------------------------------
  free energy    TOTEN  =      -366.22144813 eV

  energy without entropy =     -366.21046352  energy(sigma->0) =     -366.21595582


--------------------------------------------------------------------------------------------------------




--------------------------------------- Iteration      1(  10)  ---------------------------------------


    POTLOK:  cpu time    0.1585: real time    0.1589
    SETDIJ:  cpu time    0.0229: real time    0.0230
     EDDAV:  cpu time    2.2660: real time    2.2714
    CHARGE:  cpu time    0.1596: real time    0.1600
    MIXING:  cpu time    0.0037: real time    0.0037
    --------------------------------------------
      LOOP:  cpu time    2.6108: real time    2.6170

 eigenvalue-minimisations  :  1280
 total energy-change (2. order) :-0.3293744E+00  (-0.4395434E+01)
 number of electron     387.9999759 magnetization      12.0350228
 augmentation part      129.3234957 magnetization      10.0753144

 Broyden mixing:
  rms(total) = 0.28527E+01    rms(broyden)= 0.28518E+01
  rms(prec ) = 0.41318E+01
  weight for this iteration     100.00

 eigenvalues of (default mixing * dielectric matrix)
  average eigenvalue GAMMA=   0.6056
  1.3695  0.6729  0.4201  0.4201  0.1457

 Free energy of the ion-electron system (eV)
  ---------------------------------------------------
  alpha Z        PSCENC =      1217.29097608
  Ewald energy   TEWEN  =    -23729.62121392
  -Hartree energ DENC   =    -10136.77212244
  -exchange      EXHF   =         0.00000000
  -V(xc)+E(xc)   XCENC  =      1570.84829558
  PAW double counting   =     34700.84679338   -36040.83644930
  entropy T*S    EENTRO =        -0.01883111
  eigenvalues    EBANDS =     -1374.16871097
  atomic energy  EATOM  =     33425.88044021
  Solvation  Ediel_sol  =         0.00000000
  ---------------------------------------------------
  free energy    TOTEN  =      -366.55082250 eV

  energy without entropy =     -366.53199139  energy(sigma->0) =     -366.54140694


--------------------------------------------------------------------------------------------------------




--------------------------------------- Iteration      1(  11)  ---------------------------------------


    POTLOK:  cpu time    0.1614: real time    0.1617
    SETDIJ:  cpu time    0.0233: real time    0.0234
     EDDAV:  cpu time    2.3710: real time    2.3766
    CHARGE:  cpu time    0.1580: real time    0.1584
    MIXING:  cpu time    0.0042: real time    0.0042
    --------------------------------------------
      LOOP:  cpu time    2.7179: real time    2.7243

 eigenvalue-minimisations  :  1376
 total energy-change (2. order) : 0.1598654E+01  (-0.2406422E+01)
 number of electron     387.9999755 magnetization       8.6305169
 augmentation part      129.3688530 magnetization       6.4291773

 Broyden mixing:
  rms(total) = 0.20579E+01    rms(broyden)= 0.20572E+01
  rms(prec ) = 0.26426E+01
  weight for this iteration     100.00

 eigenvalues of (default mixing * dielectric matrix)
  average eigenvalue GAMMA=   0.6520
  1.8118  0.6513  0.6513  0.4802  0.1850  0.1323

 Free energy of the ion-electron system (eV)
  ---------------------------------------------------
  alpha Z        PSCENC =      1217.29097608
  Ewald energy   TEWEN  =    -23729.62121392
  -Hartree energ DENC   =    -10138.27457133
  -exchange      EXHF   =         0.00000000
  -V(xc)+E(xc)   XCENC  =      1570.82697778
  PAW double counting   =     34992.70525387   -36337.17188027
  entropy T*S    EENTRO =        -0.06122639
  eigenvalues    EBANDS =     -1366.52692491
  atomic energy  EATOM  =     33425.88044021
  Solvation  Ediel_sol  =         0.00000000
  ---------------------------------------------------
  free energy    TOTEN  =      -364.95216888 eV

  energy without entropy =     -364.89094249  energy(sigma->0) =     -364.92155568


--------------------------------------------------------------------------------------------------------




--------------------------------------- Iteration      1(  12)  ---------------------------------------


    POTLOK:  cpu time    0.1598: real time    0.1602
    SETDIJ:  cpu time    0.0231: real time    0.0231
     EDDAV:  cpu time    2.3641: real time    2.3697
    CHARGE:  cpu time    0.1586: real time    0.1590
    MIXING:  cpu time    0.0045: real time    0.0045
    --------------------------------------------
      LOOP:  cpu time    2.7100: real time    2.7165

 eigenvalue-minimisations  :  1376
 total energy-change (2. order) : 0.6304922E+00  (-0.7568142E+00)
 number of electron     387.9999758 magnetization       8.1611432
 augmentation part      129.1689413 magnetization       5.2382680

 Broyden mixing:
  rms(total) = 0.16209E+01    rms(broyden)= 0.16203E+01
  rms(prec ) = 0.20483E+01
  weight for this iteration     100.00

 eigenvalues of (default mixing * dielectric matrix)
  average eigenvalue GAMMA=   0.6149
  1.9139  0.6783  0.6783  0.4236  0.3228  0.1592  0.1284

 Free energy of the ion-electron system (eV)
  ---------------------------------------------------
  alpha Z        PSCENC =      1217.29097608
  Ewald energy   TEWEN  =    -23729.62121392
  -Hartree energ DENC   =    -10150.32609949
  -exchange      EXHF   =         0.00000000
  -V(xc)+E(xc)   XCENC  =      1571.16568698
  PAW double counting   =     35468.22907199   -36821.07832893
  entropy T*S    EENTRO =        -0.03674342
  eigenvalues    EBANDS =     -1345.82546616
  atomic energy  EATOM  =     33425.88044021
  Solvation  Ediel_sol  =         0.00000000
  ---------------------------------------------------
  free energy    TOTEN  =      -364.32167666 eV

  energy without entropy =     -364.28493324  energy(sigma->0) =     -364.30330495


--------------------------------------------------------------------------------------------------------




--------------------------------------- Iteration      1(  13)  ---------------------------------------


    POTLOK:  cpu time    0.1585: real time    0.1589
    SETDIJ:  cpu time    0.0227: real time    0.0227
     EDDAV:  cpu time    2.1008: real time    2.1058
    CHARGE:  cpu time    0.1681: real time    0.1685
    MIXING:  cpu time    0.0044: real time    0.0044
    --------------------------------------------
      LOOP:  cpu time    2.4545: real time    2.4604

 eigenvalue-minimisations  :  1232
 total energy-change (2. order) : 0.3241671E+00  (-0.5483222E+00)
 number of electron     387.9999757 magnetization       8.3433138
 augmentation part      128.9866732 magnetization       5.5340284

 Broyden mixing:
  rms(total) = 0.93880E+00    rms(broyden)= 0.93815E+00
  rms(prec ) = 0.11498E+01
  weight for this iteration     100.00

 eigenvalues of (default mixing * dielectric matrix)
  average eigenvalue GAMMA=   0.5871
  1.9429  0.7133  0.7133  0.4418  0.4418  0.1860  0.1313  0.1265

 Free energy of the ion-electron system (eV)
  ---------------------------------------------------
  alpha Z        PSCENC =      1217.29097608
  Ewald energy   TEWEN  =    -23729.62121392
  -Hartree energ DENC   =    -10155.49768074
  -exchange      EXHF   =         0.00000000
  -V(xc)+E(xc)   XCENC  =      1571.34916865
  PAW double counting   =     35572.74349765   -36928.02311038
  entropy T*S    EENTRO =        -0.04526032
  eigenvalues    EBANDS =     -1338.07432677
  atomic energy  EATOM  =     33425.88044021
  Solvation  Ediel_sol  =         0.00000000
  ---------------------------------------------------
  free energy    TOTEN  =      -363.99750954 eV

  energy without entropy =     -363.95224922  energy(sigma->0) =     -363.97487938


--------------------------------------------------------------------------------------------------------




--------------------------------------- Iteration      1(  14)  ---------------------------------------


    POTLOK:  cpu time    0.1460: real time    0.1463
    SETDIJ:  cpu time    0.0220: real time    0.0221
     EDDAV:  cpu time    1.8285: real time    1.8328
    CHARGE:  cpu time    0.1322: real time    0.1325
    MIXING:  cpu time    0.0041: real time    0.0041
    --------------------------------------------
      LOOP:  cpu time    2.1327: real time    2.1377

 eigenvalue-minimisations  :  1344
 total energy-change (2. order) :-0.1525819E+00  (-0.3325652E+00)
 number of electron     387.9999758 magnetization       8.5686336
 augmentation part      128.8315457 magnetization       5.4654001

 Broyden mixing:
  rms(total) = 0.10211E+01    rms(broyden)= 0.10208E+01
  rms(prec ) = 0.12537E+01
  weight for this iteration     100.00

 eigenvalues of (default mixing * dielectric matrix)
  average eigenvalue GAMMA=   0.5439
  1.9367  0.7253  0.7253  0.4314  0.4314  0.2453  0.1616  0.1299  0.1082

 Free energy of the ion-electron system (eV)
  ---------------------------------------------------
  alpha Z        PSCENC =      1217.29097608
  Ewald energy   TEWEN  =    -23729.62121392
  -Hartree energ DENC   =    -10159.03480096
  -exchange      EXHF   =         0.00000000
  -V(xc)+E(xc)   XCENC  =      1571.57208829
  PAW double counting   =     35612.74569734   -36968.89058013
  entropy T*S    EENTRO =        -0.03722932
  eigenvalues    EBANDS =     -1334.05546900
  atomic energy  EATOM  =     33425.88044021
  Solvation  Ediel_sol  =         0.00000000
  ---------------------------------------------------
  free energy    TOTEN  =      -364.15009141 eV

  energy without entropy =     -364.11286209  energy(sigma->0) =     -364.13147675


--------------------------------------------------------------------------------------------------------




--------------------------------------- Iteration      1(  15)  ---------------------------------------


    POTLOK:  cpu time    0.1308: real time    0.1311
    SETDIJ:  cpu time    0.0191: real time    0.0192
     EDDAV:  cpu time    1.7280: real time    1.7321
    CHARGE:  cpu time    0.1283: real time    0.1286
    MIXING:  cpu time    0.0045: real time    0.0045
    --------------------------------------------
      LOOP:  cpu time    2.0107: real time    2.0155

 eigenvalue-minimisations  :  1280
 total energy-change (2. order) : 0.8483747E-02  (-0.1775111E+00)
 number of electron     387.9999758 magnetization       9.2104709
 augmentation part      128.7853503 magnetization       5.9226120

 Broyden mixing:
  rms(total) = 0.84022E+00    rms(broyden)= 0.83988E+00
  rms(prec ) = 0.10238E+01
  weight for this iteration     100.00

 eigenvalues of (default mixing * dielectric matrix)
  average eigenvalue GAMMA=   0.5572
  1.9205  0.8159  0.8159  0.5366  0.5366  0.4027  0.1773  0.1497  0.1225  0.0945

 Free energy of the ion-electron system (eV)
  ---------------------------------------------------
  alpha Z        PSCENC =      1217.29097608
  Ewald energy   TEWEN  =    -23729.62121392
  -Hartree energ DENC   =    -10159.91332480
  -exchange      EXHF   =         0.00000000
  -V(xc)+E(xc)   XCENC  =      1571.69190936
  PAW double counting   =     35632.41276807   -36988.58299062
  entropy T*S    EENTRO =        -0.04508649
  eigenvalues    EBANDS =     -1333.25508555
  atomic energy  EATOM  =     33425.88044021
  Solvation  Ediel_sol  =         0.00000000
  ---------------------------------------------------
  free energy    TOTEN  =      -364.14160767 eV

  energy without entropy =     -364.09652117  energy(sigma->0) =     -364.11906442


--------------------------------------------------------------------------------------------------------




--------------------------------------- Iteration      1(  16)  ---------------------------------------


    POTLOK:  cpu time    0.1326: real time    0.1329
    SETDIJ:  cpu time    0.0188: real time    0.0189
     EDDAV:  cpu time    1.8726: real time    1.8771
    CHARGE:  cpu time    0.1212: real time    0.1215
    MIXING:  cpu time    0.0046: real time    0.0046
    --------------------------------------------
      LOOP:  cpu time    2.1498: real time    2.1549

 eigenvalue-minimisations  :  1424
 total energy-change (2. order) :-0.5569496E-01  (-0.9036672E-01)
 number of electron     387.9999759 magnetization       9.5471264
 augmentation part      128.8336736 magnetization       6.3231044

 Broyden mixing:
  rms(total) = 0.66144E+00    rms(broyden)= 0.66126E+00
  rms(prec ) = 0.75492E+00
  weight for this iteration     100.00

 eigenvalues of (default mixing * dielectric matrix)
  average eigenvalue GAMMA=   0.5361
  1.9253  0.8631  0.8631  0.5459  0.5459  0.3852  0.2433  0.1567  0.1567  0.1213
  0.0909

 Free energy of the ion-electron system (eV)
  ---------------------------------------------------
  alpha Z        PSCENC =      1217.29097608
  Ewald energy   TEWEN  =    -23729.62121392
  -Hartree energ DENC   =    -10159.64834517
  -exchange      EXHF   =         0.00000000
  -V(xc)+E(xc)   XCENC  =      1571.89575269
  PAW double counting   =     35679.97369008   -37035.87391473
  entropy T*S    EENTRO =        -0.01715967
  eigenvalues    EBANDS =     -1334.07752820
  atomic energy  EATOM  =     33425.88044021
  Solvation  Ediel_sol  =         0.00000000
  ---------------------------------------------------
  free energy    TOTEN  =      -364.19730262 eV

  energy without entropy =     -364.18014295  energy(sigma->0) =     -364.18872279


--------------------------------------------------------------------------------------------------------




--------------------------------------- Iteration      1(  17)  ---------------------------------------


    POTLOK:  cpu time    0.1420: real time    0.1424
    SETDIJ:  cpu time    0.0213: real time    0.0213
     EDDAV:  cpu time    1.8897: real time    1.8941
    CHARGE:  cpu time    0.1217: real time    0.1220
    MIXING:  cpu time    0.0055: real time    0.0055
    --------------------------------------------
      LOOP:  cpu time    2.1801: real time    2.1853

 eigenvalue-minimisations  :  1408
 total energy-change (2. order) : 0.1614273E-01  (-0.3506625E-01)
 number of electron     387.9999759 magnetization       9.8385260
 augmentation part      128.8630016 magnetization       6.7004343

 Broyden mixing:
  rms(total) = 0.43612E+00    rms(broyden)= 0.43607E+00
  rms(prec ) = 0.46253E+00
  weight for this iteration     100.00

 eigenvalues of (default mixing * dielectric matrix)
  average eigenvalue GAMMA=   0.5659
  1.9447  0.9703  0.9703  0.6216  0.6216  0.4426  0.4426  0.2386  0.1718  0.1526
  0.1219  0.0919

 Free energy of the ion-electron system (eV)
  ---------------------------------------------------
  alpha Z        PSCENC =      1217.29097608
  Ewald energy   TEWEN  =    -23729.62121392
  -Hartree energ DENC   =    -10159.67776640
  -exchange      EXHF   =         0.00000000
  -V(xc)+E(xc)   XCENC  =      1572.03340890
  PAW double counting   =     35715.43390127   -37071.20406175
  entropy T*S    EENTRO =        -0.01677617
  eigenvalues    EBANDS =     -1334.30006811
  atomic energy  EATOM  =     33425.88044021
  Solvation  Ediel_sol  =         0.00000000
  ---------------------------------------------------
  free energy    TOTEN  =      -364.18115989 eV

  energy without entropy =     -364.16438372  energy(sigma->0) =     -364.17277181


--------------------------------------------------------------------------------------------------------




--------------------------------------- Iteration      1(  18)  ---------------------------------------


    POTLOK:  cpu time    0.1271: real time    0.1274
    SETDIJ:  cpu time    0.0187: real time    0.0188
     EDDAV:  cpu time    1.8345: real time    1.8388
    CHARGE:  cpu time    0.1253: real time    0.1256
    MIXING:  cpu time    0.0052: real time    0.0052
    --------------------------------------------
      LOOP:  cpu time    2.1109: real time    2.1159

 eigenvalue-minimisations  :  1408
 total energy-change (2. order) :-0.8883121E-01  (-0.2090717E-01)
 number of electron     387.9999759 magnetization       9.8025631
 augmentation part      128.8675325 magnetization       6.7654365

 Broyden mixing:
  rms(total) = 0.44831E+00    rms(broyden)= 0.44823E+00
  rms(prec ) = 0.53333E+00
  weight for this iteration     100.00

 eigenvalues of (default mixing * dielectric matrix)
  average eigenvalue GAMMA=   0.5986
  2.0010  1.0724  1.0724  0.7332  0.7332  0.5137  0.5137  0.4267  0.1864  0.1582
  0.1582  0.1214  0.0914

 Free energy of the ion-electron system (eV)
  ---------------------------------------------------
  alpha Z        PSCENC =      1217.29097608
  Ewald energy   TEWEN  =    -23729.62121392
  -Hartree energ DENC   =    -10160.53999846
  -exchange      EXHF   =         0.00000000
  -V(xc)+E(xc)   XCENC  =      1572.25380182
  PAW double counting   =     35790.97113197   -37146.95701536
  entropy T*S    EENTRO =        -0.00049170
  eigenvalues    EBANDS =     -1333.54762173
  atomic energy  EATOM  =     33425.88044021
  Solvation  Ediel_sol  =         0.00000000
  ---------------------------------------------------
  free energy    TOTEN  =      -364.26999110 eV

  energy without entropy =     -364.26949940  energy(sigma->0) =     -364.26974525


--------------------------------------------------------------------------------------------------------




--------------------------------------- Iteration      1(  19)  ---------------------------------------


    POTLOK:  cpu time    0.1311: real time    0.1315
    SETDIJ:  cpu time    0.0186: real time    0.0187
     EDDAV:  cpu time    1.7540: real time    1.7582
    CHARGE:  cpu time    0.1184: real time    0.1187
    MIXING:  cpu time    0.0048: real time    0.0049
    --------------------------------------------
      LOOP:  cpu time    2.0270: real time    2.0319

 eigenvalue-minimisations  :  1312
 total energy-change (2. order) :-0.4788418E-01  (-0.3856821E-01)
 number of electron     387.9999760 magnetization       9.6707091
 augmentation part      128.8904685 magnetization       6.6529867

 Broyden mixing:
  rms(total) = 0.41991E+00    rms(broyden)= 0.41984E+00
  rms(prec ) = 0.51597E+00
  weight for this iteration     100.00

 eigenvalues of (default mixing * dielectric matrix)
  average eigenvalue GAMMA=   0.6075
  2.0559  1.1929  1.1929  0.7910  0.7910  0.5388  0.5388  0.4304  0.2592  0.1770
  0.1705  0.1535  0.1215  0.0915

 Free energy of the ion-electron system (eV)
  ---------------------------------------------------
  alpha Z        PSCENC =      1217.29097608
  Ewald energy   TEWEN  =    -23729.62121392
  -Hartree energ DENC   =    -10161.19601780
  -exchange      EXHF   =         0.00000000
  -V(xc)+E(xc)   XCENC  =      1572.41036045
  PAW double counting   =     35858.51055331   -37214.73450519
  entropy T*S    EENTRO =        -0.00057736
  eigenvalues    EBANDS =     -1332.85789106
  atomic energy  EATOM  =     33425.88044021
  Solvation  Ediel_sol  =         0.00000000
  ---------------------------------------------------
  free energy    TOTEN  =      -364.31787529 eV

  energy without entropy =     -364.31729792  energy(sigma->0) =     -364.31758661


--------------------------------------------------------------------------------------------------------




--------------------------------------- Iteration      1(  20)  ---------------------------------------


    POTLOK:  cpu time    0.1287: real time    0.1290
    SETDIJ:  cpu time    0.0188: real time    0.0188
     EDDAV:  cpu time    1.8157: real time    1.8200
    CHARGE:  cpu time    0.1200: real time    0.1203
    MIXING:  cpu time    0.0051: real time    0.0051
    --------------------------------------------
      LOOP:  cpu time    2.0883: real time    2.0933

 eigenvalue-minimisations  :  1392
 total energy-change (2. order) : 0.9657662E-02  (-0.1259603E-01)
 number of electron     387.9999760 magnetization       9.7997211
 augmentation part      128.9291156 magnetization       6.7853170

 Broyden mixing:
  rms(total) = 0.26837E+00    rms(broyden)= 0.26829E+00
  rms(prec ) = 0.30796E+00
  weight for this iteration     100.00

 eigenvalues of (default mixing * dielectric matrix)
  average eigenvalue GAMMA=   0.6641
  1.7771  1.3848  1.3848  1.1663  1.1663  0.6044  0.6044  0.4797  0.4797  0.2037
  0.1772  0.1637  0.1558  0.1215  0.0915

 Free energy of the ion-electron system (eV)
  ---------------------------------------------------
  alpha Z        PSCENC =      1217.29097608
  Ewald energy   TEWEN  =    -23729.62121392
  -Hartree energ DENC   =    -10161.70577868
  -exchange      EXHF   =         0.00000000
  -V(xc)+E(xc)   XCENC  =      1572.52879527
  PAW double counting   =     35916.06709117   -37272.51450059
  entropy T*S    EENTRO =        -0.00025016
  eigenvalues    EBANDS =     -1332.23377701
  atomic energy  EATOM  =     33425.88044021
  Solvation  Ediel_sol  =         0.00000000
  ---------------------------------------------------
  free energy    TOTEN  =      -364.30821762 eV

  energy without entropy =     -364.30796746  energy(sigma->0) =     -364.30809254


--------------------------------------------------------------------------------------------------------




--------------------------------------- Iteration      1(  21)  ---------------------------------------


    POTLOK:  cpu time    0.1271: real time    0.1274
    SETDIJ:  cpu time    0.0187: real time    0.0187
     EDDAV:  cpu time    1.9368: real time    1.9414
    CHARGE:  cpu time    0.1185: real time    0.1188
    MIXING:  cpu time    0.0052: real time    0.0052
    --------------------------------------------
      LOOP:  cpu time    2.2063: real time    2.2115

 eigenvalue-minimisations  :  1472
 total energy-change (2. order) :-0.2827191E-01  (-0.1289726E-01)
 number of electron     387.9999760 magnetization       9.9543804
 augmentation part      128.9308588 magnetization       6.9690654

 Broyden mixing:
  rms(total) = 0.21256E+00    rms(broyden)= 0.21251E+00
  rms(prec ) = 0.27231E+00
  weight for this iteration     100.00

 eigenvalues of (default mixing * dielectric matrix)
  average eigenvalue GAMMA=   0.6637
  1.7334  1.7334  1.3629  1.1644  1.1644  0.6155  0.6155  0.4896  0.4896  0.3364
  0.2065  0.1751  0.1646  0.1556  0.1215  0.0915

 Free energy of the ion-electron system (eV)
  ---------------------------------------------------
  alpha Z        PSCENC =      1217.29097608
  Ewald energy   TEWEN  =    -23729.62121392
  -Hartree energ DENC   =    -10162.76509858
  -exchange      EXHF   =         0.00000000
  -V(xc)+E(xc)   XCENC  =      1572.72076898
  PAW double counting   =     35950.53759308   -37306.96439086
  entropy T*S    EENTRO =        -0.00038940
  eigenvalues    EBANDS =     -1331.41517513
  atomic energy  EATOM  =     33425.88044021
  Solvation  Ediel_sol  =         0.00000000
  ---------------------------------------------------
  free energy    TOTEN  =      -364.33648954 eV

  energy without entropy =     -364.33610014  energy(sigma->0) =     -364.33629484


--------------------------------------------------------------------------------------------------------




--------------------------------------- Iteration      1(  22)  ---------------------------------------


    POTLOK:  cpu time    0.1271: real time    0.1274
    SETDIJ:  cpu time    0.0199: real time    0.0199
     EDDAV:  cpu time    1.8928: real time    1.8973
    CHARGE:  cpu time    0.1205: real time    0.1208
    MIXING:  cpu time    0.0054: real time    0.0054
    --------------------------------------------
      LOOP:  cpu time    2.1656: real time    2.1707

 eigenvalue-minimisations  :  1456
 total energy-change (2. order) : 0.1272317E-01  (-0.1032663E-01)
 number of electron     387.9999760 magnetization       9.8124944
 augmentation part      128.9425358 magnetization       6.8711653

 Broyden mixing:
  rms(total) = 0.13559E+00    rms(broyden)= 0.13554E+00
  rms(prec ) = 0.17121E+00
  weight for this iteration     100.00

 eigenvalues of (default mixing * dielectric matrix)
  average eigenvalue GAMMA=   0.6639
  2.3537  1.2445  1.2445  1.2012  1.2012  0.6714  0.6714  0.5533  0.5533  0.4455
  0.2396  0.2005  0.1736  0.1644  0.1556  0.1215  0.0915

 Free energy of the ion-electron system (eV)
  ---------------------------------------------------
  alpha Z        PSCENC =      1217.29097608
  Ewald energy   TEWEN  =    -23729.62121392
  -Hartree energ DENC   =    -10163.55350129
  -exchange      EXHF   =         0.00000000
  -V(xc)+E(xc)   XCENC  =      1572.91298150
  PAW double counting   =     36000.28921490   -37356.84883117
  entropy T*S    EENTRO =        -0.00040394
  eigenvalues    EBANDS =     -1330.67342874
  atomic energy  EATOM  =     33425.88044021
  Solvation  Ediel_sol  =         0.00000000
  ---------------------------------------------------
  free energy    TOTEN  =      -364.32376637 eV

  energy without entropy =     -364.32336243  energy(sigma->0) =     -364.32356440


--------------------------------------------------------------------------------------------------------




--------------------------------------- Iteration      1(  23)  ---------------------------------------


    POTLOK:  cpu time    0.1274: real time    0.1277
    SETDIJ:  cpu time    0.0193: real time    0.0194
     EDDAV:  cpu time    1.9340: real time    1.9386
    CHARGE:  cpu time    0.1176: real time    0.1179
    MIXING:  cpu time    0.0055: real time    0.0055
    --------------------------------------------
      LOOP:  cpu time    2.2038: real time    2.2091

 eigenvalue-minimisations  :  1488
 total energy-change (2. order) :-0.1385040E-03  (-0.3965354E-02)
 number of electron     387.9999760 magnetization       9.9067561
 augmentation part      128.9701746 magnetization       6.9614432

 Broyden mixing:
  rms(total) = 0.82240E-01    rms(broyden)= 0.82217E-01
  rms(prec ) = 0.93167E-01
  weight for this iteration     100.00

 eigenvalues of (default mixing * dielectric matrix)
  average eigenvalue GAMMA=   0.6772
  2.3467  1.2952  1.2952  1.2833  1.2833  0.7355  0.7355  0.5635  0.5635  0.4802
  0.4677  0.2326  0.2014  0.1741  0.1641  0.1557  0.1215  0.0915

 Free energy of the ion-electron system (eV)
  ---------------------------------------------------
  alpha Z        PSCENC =      1217.29097608
  Ewald energy   TEWEN  =    -23729.62121392
  -Hartree energ DENC   =    -10162.85090030
  -exchange      EXHF   =         0.00000000
  -V(xc)+E(xc)   XCENC  =      1572.79939443
  PAW double counting   =     36020.92352174   -37377.65948935
  entropy T*S    EENTRO =        -0.00044864
  eigenvalues    EBANDS =     -1331.08618512
  atomic energy  EATOM  =     33425.88044021
  Solvation  Ediel_sol  =         0.00000000
  ---------------------------------------------------
  free energy    TOTEN  =      -364.32390487 eV

  energy without entropy =     -364.32345624  energy(sigma->0) =     -364.32368055


--------------------------------------------------------------------------------------------------------




--------------------------------------- Iteration      1(  24)  ---------------------------------------


    POTLOK:  cpu time    0.1272: real time    0.1275
    SETDIJ:  cpu time    0.0197: real time    0.0198
     EDDAV:  cpu time    1.7852: real time    1.7894
    CHARGE:  cpu time    0.1186: real time    0.1189
    MIXING:  cpu time    0.0056: real time    0.0056
    --------------------------------------------
      LOOP:  cpu time    2.0564: real time    2.0612

 eigenvalue-minimisations  :  1360
 total energy-change (2. order) :-0.2143388E-02  (-0.1268646E-02)
 number of electron     387.9999760 magnetization       9.9739741
 augmentation part      128.9642985 magnetization       7.0409311

 Broyden mixing:
  rms(total) = 0.93619E-01    rms(broyden)= 0.93607E-01
  rms(prec ) = 0.11235E+00
  weight for this iteration     100.00

 eigenvalues of (default mixing * dielectric matrix)
  average eigenvalue GAMMA=   0.6693
  2.3783  1.3211  1.3211  1.2789  1.2789  0.7891  0.7891  0.5930  0.5930  0.5230
  0.4571  0.0915  0.1215  0.2433  0.2433  0.1557  0.1643  0.1738  0.2007

 Free energy of the ion-electron system (eV)
  ---------------------------------------------------
  alpha Z        PSCENC =      1217.29097608
  Ewald energy   TEWEN  =    -23729.62121392
  -Hartree energ DENC   =    -10163.01819805
  -exchange      EXHF   =         0.00000000
  -V(xc)+E(xc)   XCENC  =      1572.81594295
  PAW double counting   =     36026.40620148   -37383.12593276
  entropy T*S    EENTRO =        -0.00045100
  eigenvalues    EBANDS =     -1330.95381326
  atomic energy  EATOM  =     33425.88044021
  Solvation  Ediel_sol  =         0.00000000
  ---------------------------------------------------
  free energy    TOTEN  =      -364.32604826 eV

  energy without entropy =     -364.32559726  energy(sigma->0) =     -364.32582276


--------------------------------------------------------------------------------------------------------




--------------------------------------- Iteration      1(  25)  ---------------------------------------


    POTLOK:  cpu time    0.1255: real time    0.1258
    SETDIJ:  cpu time    0.0187: real time    0.0187
     EDDAV:  cpu time    1.8215: real time    1.8258
    CHARGE:  cpu time    0.1178: real time    0.1181
    MIXING:  cpu time    0.0058: real time    0.0059
    --------------------------------------------
      LOOP:  cpu time    2.0893: real time    2.0943

 eigenvalue-minimisations  :  1360
 total energy-change (2. order) : 0.9614421E-03  (-0.7022912E-03)
 number of electron     387.9999760 magnetization       9.9607753
 augmentation part      128.9644477 magnetization       7.0395806

 Broyden mixing:
  rms(total) = 0.57322E-01    rms(broyden)= 0.57314E-01
  rms(prec ) = 0.69023E-01
  weight for this iteration     100.00

 eigenvalues of (default mixing * dielectric matrix)
  average eigenvalue GAMMA=   0.6846
  2.5323  1.3310  1.3310  1.2154  1.2154  0.9531  0.9531  0.6243  0.6243  0.5569
  0.5569  0.4477  0.0915  0.1215  0.2405  0.1557  0.1641  0.1740  0.2012  0.2012

 Free energy of the ion-electron system (eV)
  ---------------------------------------------------
  alpha Z        PSCENC =      1217.29097608
  Ewald energy   TEWEN  =    -23729.62121392
  -Hartree energ DENC   =    -10163.21251199
  -exchange      EXHF   =         0.00000000
  -V(xc)+E(xc)   XCENC  =      1572.84130093
  PAW double counting   =     36031.97054954   -37388.67214335
  entropy T*S    EENTRO =        -0.00048548
  eigenvalues    EBANDS =     -1330.80199885
  atomic energy  EATOM  =     33425.88044021
  Solvation  Ediel_sol  =         0.00000000
  ---------------------------------------------------
  free energy    TOTEN  =      -364.32508682 eV

  energy without entropy =     -364.32460134  energy(sigma->0) =     -364.32484408


--------------------------------------------------------------------------------------------------------




--------------------------------------- Iteration      1(  26)  ---------------------------------------


    POTLOK:  cpu time    0.1257: real time    0.1260
    SETDIJ:  cpu time    0.0188: real time    0.0188
     EDDAV:  cpu time    1.8330: real time    1.8373
    CHARGE:  cpu time    0.1186: real time    0.1189
    MIXING:  cpu time    0.0061: real time    0.0061
    --------------------------------------------
      LOOP:  cpu time    2.1022: real time    2.1071

 eigenvalue-minimisations  :  1408
 total energy-change (2. order) : 0.5474834E-04  (-0.3134058E-03)
 number of electron     387.9999760 magnetization       9.9552001
 augmentation part      128.9700863 magnetization       7.0302020

 Broyden mixing:
  rms(total) = 0.35397E-01    rms(broyden)= 0.35392E-01
  rms(prec ) = 0.43995E-01
  weight for this iteration     100.00

 eigenvalues of (default mixing * dielectric matrix)
  average eigenvalue GAMMA=   0.6750
  2.5349  1.2863  1.2863  1.2984  1.2984  0.9498  0.9498  0.6326  0.6326  0.5530
  0.5530  0.4526  0.3979  0.0915  0.1215  0.2409  0.1557  0.1641  0.1740  0.2016
  0.1996

 Free energy of the ion-electron system (eV)
  ---------------------------------------------------
  alpha Z        PSCENC =      1217.29097608
  Ewald energy   TEWEN  =    -23729.62121392
  -Hartree energ DENC   =    -10163.26663722
  -exchange      EXHF   =         0.00000000
  -V(xc)+E(xc)   XCENC  =      1572.83709750
  PAW double counting   =     36038.91894545   -37395.62218183
  entropy T*S    EENTRO =        -0.00050058
  eigenvalues    EBANDS =     -1330.74195776
  atomic energy  EATOM  =     33425.88044021
  Solvation  Ediel_sol  =         0.00000000
  ---------------------------------------------------
  free energy    TOTEN  =      -364.32503207 eV

  energy without entropy =     -364.32453149  energy(sigma->0) =     -364.32478178


--------------------------------------------------------------------------------------------------------




--------------------------------------- Iteration      1(  27)  ---------------------------------------


    POTLOK:  cpu time    0.1274: real time    0.1277
    SETDIJ:  cpu time    0.0187: real time    0.0188
[...]
   -.169E-12 -.369E-13 -.206E-13   0.128E-12 -.150E-12 -.782E-13   0.000E+00 0.000E+00 -.414E-23   0.172E-11 -.100E-11 0.890E-12
   -.198E+01 -.297E+02 -.542E+00   0.208E+01 0.300E+02 0.567E+00   -.631E-01 -.286E+00 -.212E-01   -.398E-01 -.114E-02 -.429E-02
   0.198E+01 -.297E+02 0.542E+00   -.208E+01 0.300E+02 -.567E+00   0.631E-01 -.286E+00 0.212E-01   0.398E-01 -.114E-02 0.429E-02
   0.198E+01 0.297E+02 0.542E+00   -.208E+01 -.300E+02 -.567E+00   0.631E-01 0.286E+00 0.212E-01   0.398E-01 0.114E-02 0.429E-02
   -.198E+01 0.297E+02 -.542E+00   0.208E+01 -.300E+02 0.567E+00   -.631E-01 0.286E+00 -.212E-01   -.398E-01 0.114E-02 -.429E-02
   -.151E-10 0.103E-11 -.236E-11   0.142E-12 -.534E-13 0.711E-13   0.000E+00 0.000E+00 -.517E-24   0.194E-11 0.104E-11 0.835E-12
   -.354E-12 -.773E-13 0.404E-13   0.284E-13 0.142E-12 -.746E-13   0.000E+00 0.000E+00 0.610E-23   -.589E-12 0.579E-12 0.916E-12
   -.994E-12 0.986E-12 -.201E-11   0.213E-13 0.113E-12 -.178E-13   0.000E+00 0.000E+00 0.724E-24   -.770E-12 -.595E-12 0.129E-11
   0.510E-13 -.572E-13 -.338E-13   0.400E-13 -.813E-13 -.648E-13   0.000E+00 0.000E+00 -.165E-23   0.540E-12 -.338E-12 -.200E-11
   -.178E+00 -.296E+02 0.187E+01   0.147E+00 0.299E+02 -.185E+01   0.135E-01 -.231E+00 -.208E-01   0.105E-01 -.128E-01 0.566E-02
   0.178E+00 -.296E+02 -.187E+01   -.147E+00 0.299E+02 0.185E+01   -.135E-01 -.231E+00 0.208E-01   -.105E-01 -.128E-01 -.566E-02
   0.178E+00 0.296E+02 -.187E+01   -.147E+00 -.299E+02 0.185E+01   -.135E-01 0.231E+00 0.208E-01   -.105E-01 0.128E-01 -.566E-02
   -.178E+00 0.296E+02 0.187E+01   0.147E+00 -.299E+02 -.185E+01   0.135E-01 0.231E+00 -.208E-01   0.105E-01 0.128E-01 0.566E-02
   -.301E-11 0.945E-12 0.146E-11   -.302E-13 -.591E-13 -.826E-13   -.662E-23 0.000E+00 0.106E-22   0.957E-12 0.335E-12 -.182E-11
   0.300E-12 -.723E-13 -.148E-12   -.240E-13 0.243E-13 0.426E-13   0.662E-23 0.000E+00 0.657E-23   -.733E-12 0.335E-12 -.333E-12
   -.173E-11 0.914E-12 -.423E-11   0.329E-13 -.329E-13 0.711E-14   0.132E-22 0.000E+00 -.403E-23   -.913E-12 -.372E-12 -.963E-12
   0.721E+01 -.177E-12 0.277E+03   -.954E+01 0.432E-13 -.289E+03   0.234E+01 0.103E-24 0.119E+02   -.117E-01 -.522E-12 0.131E-01
   -.721E+01 -.223E-12 -.277E+03   0.954E+01 -.625E-15 0.289E+03   -.234E+01 -.103E-24 -.119E+02   0.117E-01 0.327E-12 -.131E-01
   -.113E+02 -.490E-13 -.276E+03   0.141E+02 0.866E-14 0.288E+03   -.272E+01 0.000E+00 -.119E+02   -.203E-01 0.668E-12 0.125E-01
   0.113E+02 -.154E-12 0.276E+03   -.141E+02 0.180E-14 -.288E+03   0.272E+01 0.000E+00 0.119E+02   0.203E-01 0.335E-12 -.125E-01
   0.409E+02 -.311E+02 0.307E+03   -.455E+02 0.334E+02 -.323E+03   0.459E+01 -.225E+01 0.161E+02   0.119E-02 -.113E-01 0.702E-02
   -.409E+02 -.311E+02 -.307E+03   0.455E+02 0.334E+02 0.323E+03   -.459E+01 -.225E+01 -.161E+02   -.119E-02 -.113E-01 -.702E-02
   -.409E+02 0.311E+02 -.307E+03   0.455E+02 -.334E+02 0.323E+03   -.459E+01 0.225E+01 -.161E+02   -.119E-02 0.113E-01 -.702E-02
   0.409E+02 0.311E+02 0.307E+03   -.455E+02 -.334E+02 -.323E+03   0.459E+01 0.225E+01 0.161E+02   0.119E-02 0.113E-01 0.702E-02
   -.406E+02 -.319E+02 -.307E+03   0.453E+02 0.342E+02 0.323E+03   -.469E+01 -.231E+01 -.160E+02   -.139E-01 0.286E-02 -.121E-01
   0.406E+02 -.319E+02 0.307E+03   -.453E+02 0.342E+02 -.323E+03   0.469E+01 -.231E+01 0.160E+02   0.139E-01 0.286E-02 0.121E-01
   0.406E+02 0.319E+02 0.307E+03   -.453E+02 -.342E+02 -.323E+03   0.469E+01 0.231E+01 0.160E+02   0.139E-01 -.286E-02 0.121E-01
   -.406E+02 0.319E+02 -.307E+03   0.453E+02 -.342E+02 0.323E+03   -.469E+01 0.231E+01 -.160E+02   -.139E-01 -.286E-02 -.121E-01
   -.288E+02 -.158E-13 0.293E+03   0.310E+02 -.835E-14 -.307E+03   -.220E+01 0.207E-24 0.147E+02   0.141E-01 0.472E-12 0.610E-03
   0.288E+02 0.446E-13 -.293E+03   -.310E+02 -.371E-14 0.307E+03   0.220E+01 -.207E-24 -.147E+02   -.141E-01 -.321E-12 -.610E-03
   0.273E+02 0.161E-12 -.292E+03   -.293E+02 -.826E-13 0.306E+03   0.200E+01 0.000E+00 -.145E+02   -.225E-01 -.683E-12 0.122E-01
   -.273E+02 0.278E-12 0.292E+03   0.293E+02 -.173E-13 -.306E+03   -.200E+01 -.258E-25 0.145E+02   0.225E-01 -.313E-12 -.122E-01
   0.797E+01 -.181E-12 0.276E+03   -.104E+02 -.718E-13 -.288E+03   0.248E+01 0.000E+00 0.118E+02   -.501E-03 0.605E-12 -.148E-02
   -.797E+01 -.163E-12 -.276E+03   0.104E+02 -.556E-13 0.288E+03   -.248E+01 -.207E-24 -.118E+02   0.501E-03 -.752E-12 0.148E-02
   -.625E+01 -.165E-12 -.277E+03   0.867E+01 0.158E-13 0.289E+03   -.244E+01 -.129E-25 -.118E+02   0.179E-01 0.163E-12 0.405E-02
   0.625E+01 -.143E-13 0.277E+03   -.867E+01 -.290E-13 -.289E+03   0.244E+01 0.258E-25 0.118E+02   -.179E-01 -.480E-12 -.405E-02
   0.413E+02 -.322E+02 0.306E+03   -.460E+02 0.345E+02 -.322E+03   0.470E+01 -.229E+01 0.159E+02   -.312E-02 -.217E-01 -.117E-02
   -.413E+02 -.322E+02 -.306E+03   0.460E+02 0.345E+02 0.322E+03   -.470E+01 -.229E+01 -.159E+02   0.312E-02 -.217E-01 0.117E-02
   -.413E+02 0.322E+02 -.306E+03   0.460E+02 -.345E+02 0.322E+03   -.470E+01 0.229E+01 -.159E+02   0.312E-02 0.217E-01 0.117E-02
   0.413E+02 0.322E+02 0.306E+03   -.460E+02 -.345E+02 -.322E+03   0.470E+01 0.229E+01 0.159E+02   -.312E-02 0.217E-01 -.117E-02
   -.407E+02 -.317E+02 -.305E+03   0.454E+02 0.341E+02 0.321E+03   -.473E+01 -.245E+01 -.160E+02   0.142E-01 -.216E-02 0.216E-01
   0.407E+02 -.317E+02 0.305E+03   -.454E+02 0.341E+02 -.321E+03   0.473E+01 -.245E+01 0.160E+02   -.142E-01 -.216E-02 -.216E-01
   0.407E+02 0.317E+02 0.305E+03   -.454E+02 -.341E+02 -.321E+03   0.473E+01 0.245E+01 0.160E+02   -.142E-01 0.216E-02 -.216E-01
   -.407E+02 0.317E+02 -.305E+03   0.454E+02 -.341E+02 0.321E+03   -.473E+01 0.245E+01 -.160E+02   0.142E-01 0.216E-02 0.216E-01
   -.308E+02 0.449E-13 0.293E+03   0.333E+02 0.249E-13 -.308E+03   -.252E+01 -.207E-24 0.149E+02   -.433E-02 -.631E-12 -.578E-02
   0.308E+02 0.810E-14 -.293E+03   -.333E+02 0.324E-13 0.308E+03   0.252E+01 0.207E-24 -.149E+02   0.433E-02 0.779E-12 0.578E-02
   0.299E+02 0.289E-12 -.294E+03   -.321E+02 0.629E-13 0.308E+03   0.220E+01 -.414E-24 -.149E+02   0.247E-01 -.135E-12 -.667E-03
   -.299E+02 0.150E-12 0.294E+03   0.321E+02 0.603E-13 -.308E+03   -.220E+01 0.207E-24 0.149E+02   -.247E-01 0.527E-12 0.667E-03
 -----------------------------------------------------------------------------------------------
   -.330E-10 0.112E-10 0.512E-11   -.320E-12 0.180E-12 -.568E-13   0.133E-14 -.207E-24 0.355E-14   -.298E-11 0.480E-13 0.400E-11
 
 
 POSITION                                       TOTAL-FORCE (eV/Angst)
 -----------------------------------------------------------------------------------
      1.58707      0.00000      2.36461         0.000972     -0.000000     -0.005708
      4.77382      0.00000      7.07985        -0.000972     -0.000000      0.005708
      4.08559      1.45188      2.37758        -0.001308     -0.002056     -0.001396
      2.27530      1.45188      7.06688         0.001308     -0.002056      0.001396
      2.27530      4.15407      7.06688         0.001308      0.002056      0.001396
      4.08559      4.15407      2.37758        -0.001308      0.002056     -0.001396
      6.58137      0.00000      2.38933        -0.004993     -0.000000      0.004921
     -0.22048      0.00000      7.05513         0.004993     -0.000000     -0.004921
     -0.90326      1.44879      2.34062        -0.001652      0.001532      0.002149
      7.26415      1.44879      7.10384         0.001652      0.001532     -0.002149
      7.26415      4.15715      7.10384         0.001652     -0.001532     -0.002149
     -0.90326      4.15715      2.34062        -0.001652     -0.001532      0.002149
     -0.00000      0.00000     -0.00000        -0.000000     -0.000000     -0.000000
      2.49259      1.40778      0.02407         0.002266     -0.006150     -0.000929
      3.86830      1.40778      9.42039        -0.002266     -0.006150      0.000929
      3.86830      4.19817      9.42039        -0.002266      0.006150      0.000929
      2.49259      4.19817      0.02407         0.002266      0.006150     -0.000929
     -0.00000      2.80297     -0.00000        -0.000000     -0.000000     -0.000000
      4.98937      0.00000      0.03744        -0.000000     -0.000000     -0.000000
      4.98937      2.80297      0.03744        -0.000000     -0.000000      0.000000
      3.18045      0.00000      4.72223        -0.000000     -0.000000      0.000000
      5.67688      1.40797      4.73632        -0.007417     -0.001248      0.003934
      0.68401      1.40797      4.70814         0.007417     -0.001248     -0.003934
      0.68401      4.19798      4.70814         0.007417      0.001248     -0.003934
      5.67688      4.19798      4.73632        -0.007417      0.001248      0.003934
      3.18045      2.80297      4.72223        -0.000000     -0.000000      0.000000
     -1.80892      0.00000      4.68479        -0.000000     -0.000000     -0.000000
     -1.80892      2.80297      4.68479        -0.000000     -0.000000      0.000000
      4.95881      0.00000      3.69765        -0.006925     -0.000000      0.008735
      1.40208      0.00000      5.74681         0.006925     -0.000000     -0.008735
      3.19554      0.00000      1.06575         0.002376     -0.000000     -0.004498
      3.16535      0.00000      8.37871        -0.002376     -0.000000      0.004498
      7.45501      1.38427      3.76659        -0.004766     -0.000708      0.003575
     -1.09411      1.38427      5.67787         0.004766     -0.000708     -0.003575
     -1.09411      4.22168      5.67787         0.004766      0.000708     -0.003575
      7.45501      4.22168      3.76659        -0.004766      0.000708      0.003575
      0.71216      1.38541      0.99502         0.001521      0.000764     -0.000197
      5.64873      1.38541      8.44944        -0.001521      0.000764      0.000197
      5.64873      4.22054      8.44944        -0.001521     -0.000764      0.000197
      0.71216      4.22054      0.99502         0.001521     -0.000764     -0.000197
      4.85816      2.80297      3.77382         0.006018     -0.000000      0.004661
      1.50273      2.80297      5.67064        -0.006018     -0.000000     -0.004661
      3.30853      2.80297      0.99013         0.000624     -0.000000     -0.001731
      3.05237      2.80297      8.45433        -0.000624     -0.000000      0.001731
     -0.02352      0.00000      3.66475         0.007339     -0.000000     -0.008630
      6.38441      0.00000      5.77971        -0.007339     -0.000000      0.008630
      8.19819      0.00000      1.09340        -0.002228     -0.000000      0.005705
     -1.83730      0.00000      8.35106         0.002228     -0.000000     -0.005705
      2.46063      1.38428      3.73428         0.009627      0.002361     -0.006545
      3.90026      1.38428      5.71018        -0.009627      0.002361      0.006545
      3.90026      4.22167      5.71018        -0.009627     -0.002361      0.006545
      2.46063      4.22167      3.73428         0.009627     -0.002361     -0.006545
      5.71002      1.38397      1.02643        -0.002854      0.001620      0.003581
      0.65087      1.38397      8.41803         0.002854      0.001620     -0.003581
      0.65087      4.22198      8.41803         0.002854     -0.001620     -0.003581
      5.71002      4.22198      1.02643        -0.002854     -0.001620      0.003581
     -0.13688      2.80297      3.74421         0.000223     -0.000000     -0.011151
      6.49777      2.80297      5.70025        -0.000223     -0.000000      0.011151
      8.29692      2.80297      1.01578         0.004405     -0.000000      0.004480
     -1.93602      2.80297      8.42868        -0.004405     -0.000000     -0.004480
 -----------------------------------------------------------------------------------
    total drift:                               -0.000000      0.000000      0.000000


--------------------------------------------------------------------------------------------------------



  FREE ENERGIE OF THE ION-ELECTRON SYSTEM (eV)
  ---------------------------------------------------
  free  energy   TOTEN  =      -364.3288725974 eV

  energy  without entropy=     -364.3285346159  energy(sigma->0) =     -364.32870361
 
 d Force = 0.5750833E-03[ 0.356E-03, 0.794E-03]  d Energy = 0.5077831E-03 0.673E-04
 d Force =-0.1033089E+01[-0.105E+01,-0.102E+01]  d Ewald  =-0.1952417E+01 0.919E+00


--------------------------------------------------------------------------------------------------------


    POTLOK:  cpu time    0.1457: real time    0.1460


--------------------------------------------------------------------------------------------------------


 Quasi-Newton relaxation of ions (Broydens 2nd method)
  g(Force)  = 0.125E-03   g(Stress)= 0.151E-03

 retain information from N=  4 steps
 eigenvalues of (default step * inverse Hessian matrix)
  average eigenvalue of G=   4.1908
 eigenvalue spectrum of G is  6.2522  6.2522  1.0170  3.2419


--------------------------------------------------------------------------------------------------------


  
 reached required accuracy - stopping structural energy minimisation
     LOOP+:  cpu time   17.9298: real time   17.9965
    4ORBIT:  cpu time    0.0000: real time    0.0000

volume of typ            1:    17.8 %

volume of typ            2:    19.4 %

volume of typ            3:     9.9 %
 
total charge     
 
# of ion       s       p       d       tot
------------------------------------------
    1        2.079   0.249   0.094   2.422
    2        2.079   0.249   0.094   2.422
    3        2.078   0.254   0.092   2.423
    4        2.078   0.254   0.092   2.423
    5        2.078   0.254   0.092   2.423
    6        2.078   0.254   0.092   2.423
    7        2.080   0.244   0.093   2.417
    8        2.080   0.244   0.093   2.417
    9        2.078   0.253   0.092   2.423
   10        2.078   0.253   0.092   2.423
   11        2.078   0.253   0.092   2.423
   12        2.078   0.253   0.092   2.423
   13        0.280   0.380   7.871   8.532
   14        0.261   0.344   7.862   8.468
   15        0.261   0.344   7.862   8.468
   16        0.261   0.344   7.862   8.468
   17        0.261   0.344   7.862   8.468
   18        0.282   0.388   7.847   8.516
   19        0.280   0.378   7.873   8.531
   20        0.280   0.385   7.850   8.515
   21        0.281   0.382   7.870   8.532
   22        0.261   0.343   7.862   8.466
   23        0.261   0.343   7.862   8.466
   24        0.261   0.343   7.862   8.466
   25        0.261   0.343   7.862   8.466
   26        0.282   0.388   7.847   8.516
   27        0.281   0.380   7.871   8.532
   28        0.283   0.390   7.847   8.519
   29        1.257   2.792   0.005   4.055
   30        1.257   2.792   0.005   4.055
   31        1.257   2.793   0.006   4.056
   32        1.257   2.793   0.006   4.056
   33        1.263   2.778   0.006   4.047
   34        1.263   2.778   0.006   4.047
   35        1.263   2.778   0.006   4.047
   36        1.263   2.778   0.006   4.047
   37        1.263   2.778   0.006   4.048
   38        1.263   2.778   0.006   4.048
   39        1.263   2.778   0.006   4.048
   40        1.263   2.778   0.006   4.048
   41        1.262   2.785   0.006   4.053
   42        1.262   2.785   0.006   4.053
   43        1.262   2.785   0.006   4.053
   44        1.262   2.785   0.006   4.053
   45        1.257   2.794   0.006   4.056
   46        1.257   2.794   0.006   4.056
   47        1.257   2.793   0.006   4.056
   48        1.257   2.793   0.006   4.056
   49        1.264   2.777   0.006   4.047
   50        1.264   2.777   0.006   4.047
   51        1.264   2.777   0.006   4.047
   52        1.264   2.777   0.006   4.047
   53        1.263   2.778   0.006   4.048
   54        1.263   2.778   0.006   4.048
   55        1.263   2.778   0.006   4.048
   56        1.263   2.778   0.006   4.048
   57        1.262   2.785   0.007   4.053
   58        1.262   2.785   0.007   4.053
   59        1.262   2.785   0.007   4.053
   60        1.262   2.785   0.007   4.053
--------------------------------------------------
tot          69.64   97.90  127.08  294.63
 
magnetization (x)
 
# of ion       s       p       d       tot
------------------------------------------
    1        0.005   0.011   0.000   0.017
    2        0.005   0.011   0.000   0.017
    3        0.005   0.017  -0.000   0.022
    4        0.005   0.017  -0.000   0.022
    5        0.005   0.017  -0.000   0.022
    6        0.005   0.017  -0.000   0.022
    7        0.000   0.003  -0.000   0.003
    8        0.000   0.003  -0.000   0.003
    9        0.005   0.017  -0.001   0.022
   10        0.005   0.017  -0.001   0.022
   11        0.005   0.017  -0.001   0.022
   12        0.005   0.017  -0.001   0.022
   13        0.003  -0.000   0.567   0.570
   14        0.001  -0.000   0.681   0.682
   15        0.001  -0.000   0.681   0.682
   16        0.001  -0.000   0.681   0.682
   17        0.001  -0.000   0.681   0.682
   18       -0.001  -0.000   0.230   0.229
   19        0.005  -0.000   0.599   0.604
   20       -0.001  -0.000   0.221   0.219
   21       -0.005  -0.000  -0.552  -0.557
   22        0.002  -0.000   0.714   0.715
   23        0.002  -0.000   0.714   0.715
   24        0.002  -0.000   0.714   0.715
   25        0.002  -0.000   0.714   0.715
   26       -0.001  -0.000   0.199   0.198
   27        0.004  -0.000   0.585   0.588
   28       -0.001  -0.000  -0.025  -0.026
   29        0.001  -0.040  -0.000  -0.039
   30        0.001  -0.040  -0.000  -0.039
   31        0.012   0.087   0.000   0.099
   32        0.012   0.087   0.000   0.099
   33        0.006   0.052   0.000   0.059
   34        0.006   0.052   0.000   0.059
   35        0.006   0.052   0.000   0.059
   36        0.006   0.052   0.000   0.059
   37        0.007   0.052   0.000   0.060
   38        0.007   0.052   0.000   0.060
   39        0.007   0.052   0.000   0.060
   40        0.007   0.052   0.000   0.060
   41        0.009   0.040   0.000   0.049
   42        0.009   0.040   0.000   0.049
   43        0.009   0.038   0.000   0.047
   44        0.009   0.038   0.000   0.047
   45        0.012   0.089   0.000   0.102
   46        0.012   0.089   0.000   0.102
   47        0.012   0.082   0.000   0.094
   48        0.012   0.082   0.000   0.094
   49        0.006   0.040   0.000   0.046
   50        0.006   0.040   0.000   0.046
   51        0.006   0.040   0.000   0.046
   52        0.006   0.040   0.000   0.046
   53        0.007   0.053   0.000   0.061
   54        0.007   0.053   0.000   0.061
   55        0.007   0.053   0.000   0.061
   56        0.007   0.053   0.000   0.061
   57        0.007   0.024   0.000   0.031
   58        0.007   0.024   0.000   0.031
   59        0.009   0.034   0.000   0.043
   60        0.009   0.034   0.000   0.043
--------------------------------------------------
tot           0.31    1.66    7.41    9.38
 

 total amount of memory used by VASP MPI-rank0   100479. kBytes
=======================================================================

   base      :      30000. kBytes
   nonlr-proj:      24560. kBytes
   fftplans  :       6149. kBytes
   grid      :      35266. kBytes
   one-center:        933. kBytes
   wavefun   :       3571. kBytes
 
  
  
 General timing and accounting informations for this job:
 ========================================================
  
                  Total CPU time used (sec):      156.780
                            User time (sec):      154.557
                          System time (sec):        2.224
                         Elapsed time (sec):      161.513
  
                   Maximum memory used (kb):      148256.
                   Average memory used (kb):           0.
  
                          Minor page faults:        36130
                          Major page faults:           39
                 Voluntary context switches:         1253
