 vasp.5.4.4.18Apr17-6-g9f103f2a35 (build May 12 2020 05:39:39) gamma-only       
  
 MD_VERSION_INFO: Compiled 2020-05-12T12:39:39-UTC in devlin.sd.materialsdesign.
 com:/home/medea2/data/build/wwolf/vasp-gpu5.4.4/13047/x86_64/src/src/build/gam 
 from svn 13047
 
 This VASP executable licensed from Materials Design, Inc.
 
 executed on                        Lin64 date 2023.03.07  05:13:45
 running on   16 total cores
 distrk:  each k-point on   16 cores,    1 groups
 distr:  one band on NCORES_PER_BAND=   1 cores,   16 groups


--------------------------------------------------------------------------------------------------------


 INCAR:
 POTCAR:    PAW_PBE Li_sv 10Sep2004               
 POTCAR:    PAW_PBE Ni 02Aug2007                  
 POTCAR:    PAW_PBE O 08Apr2002                   

 ----------------------------------------------------------------------------- 
|                                                                             |
|           W    W    AA    RRRRR   N    N  II  N    N   GGGG   !!!           |
|           W    W   A  A   R    R  NN   N  II  NN   N  G    G  !!!           |
|           W    W  A    A  R    R  N N  N  II  N N  N  G       !!!           |
|           W WW W  AAAAAA  RRRRR   N  N N  II  N  N N  G  GGG   !            |
|           WW  WW  A    A  R   R   N   NN  II  N   NN  G    G                |
|           W    W  A    A  R    R  N    N  II  N    N   GGGG   !!!           |
|                                                                             |
|      For optimal performance we recommend to set                            |
|        NCORE= 4 - approx SQRT( number of cores)                             |
|      NCORE specifies how many cores store one orbital (NPAR=cpu/NCORE).     |
|      This setting can  greatly improve the performance of VASP for DFT.     |
|      The default,   NCORE=1            might be grossly inefficient         |
|      on modern multi-core architectures or massively parallel machines.     |
|      Do your own testing !!!!                                               |
|      Unfortunately you need to use the default for GW and RPA calculations. |
|      (for HF NCORE is supported but not extensively tested yet)             |
|                                                                             |
 ----------------------------------------------------------------------------- 

 POTCAR:    PAW_PBE Li_sv 10Sep2004               
  local pseudopotential read in
  atomic valenz-charges read in
  non local Contribution for L=           0  read in
    real space projection operators read in
  non local Contribution for L=           0  read in
    real space projection operators read in
  non local Contribution for L=           1  read in
    real space projection operators read in
    PAW grid and wavefunctions read in
 
   number of l-projection  operators is LMAX  =           3
   number of lm-projection operators is LMMAX =           5
 
 POTCAR:    PAW_PBE Ni 02Aug2007                  
  local pseudopotential read in
  partial core-charges read in
  partial kinetic energy density read in
  atomic valenz-charges read in
  non local Contribution for L=           2  read in
    real space projection operators read in
  non local Contribution for L=           2  read in
    real space projection operators read in
  non local Contribution for L=           0  read in
    real space projection operators read in
  non local Contribution for L=           0  read in
    real space projection operators read in
  non local Contribution for L=           1  read in
    real space projection operators read in
  non local Contribution for L=           1  read in
    real space projection operators read in
    PAW grid and wavefunctions read in
 
   number of l-projection  operators is LMAX  =           6
   number of lm-projection operators is LMMAX =          18
 
 POTCAR:    PAW_PBE O 08Apr2002                   
  local pseudopotential read in
  partial core-charges read in
  partial kinetic energy density read in
  kinetic energy density of atom read in
  atomic valenz-charges read in
  non local Contribution for L=           0  read in
    real space projection operators read in
  non local Contribution for L=           0  read in
    real space projection operators read in
  non local Contribution for L=           1  read in
    real space projection operators read in
  non local Contribution for L=           1  read in
    real space projection operators read in
    PAW grid and wavefunctions read in
 
   number of l-projection  operators is LMAX  =           4
   number of lm-projection operators is LMMAX =           8
 
 Optimization of the real space projectors (new method)

 maximal supplied QI-value         = 22.11
 optimisation between [QCUT,QGAM] = [ 11.28, 22.77] = [ 35.61,145.23] Ry 
 Optimized for a Real-space Cutoff    1.10 Angstroem

   l    n(q)    QCUT    max X(q) W(low)/X(q) W(high)/X(q)  e(spline) 
   0      7    11.276    10.506    0.54E-04    0.58E-04    0.16E-07
   0      7    11.276     8.367    0.11E-03    0.14E-03    0.35E-07
   1      7    11.276     8.983    0.23E-03    0.43E-03    0.86E-07
 Optimization of the real space projectors (new method)

 maximal supplied QI-value         = 16.25
 optimisation between [QCUT,QGAM] = [ 11.38, 22.75] = [ 36.24,144.96] Ry 
 Optimized for a Real-space Cutoff    1.47 Angstroem

   l    n(q)    QCUT    max X(q) W(low)/X(q) W(high)/X(q)  e(spline) 
   2      9    11.376    60.317    0.17E-03    0.16E-04    0.16E-06
   2      9    11.376    55.921    0.17E-03    0.16E-04    0.17E-06
   0     10    11.376    51.690    0.45E-04    0.60E-04    0.21E-06
   0     10    11.376    30.015    0.37E-04    0.55E-04    0.19E-06
   1     10    11.376    18.849    0.83E-04    0.11E-03    0.92E-07
   1     10    11.376    14.624    0.69E-04    0.92E-04    0.82E-07
 Optimization of the real space projectors (new method)

 maximal supplied QI-value         = 24.76
 optimisation between [QCUT,QGAM] = [ 11.39, 22.77] = [ 36.31,145.25] Ry 
 Optimized for a Real-space Cutoff    1.10 Angstroem

   l    n(q)    QCUT    max X(q) W(low)/X(q) W(high)/X(q)  e(spline) 
   0      7    11.387    20.381    0.22E-03    0.48E-03    0.18E-06
   0      7    11.387    15.268    0.22E-03    0.52E-03    0.19E-06
   1      7    11.387     5.964    0.22E-03    0.73E-03    0.24E-06
   1      7    11.387     5.382    0.19E-03    0.60E-03    0.21E-06

 ----------------------------------------------------------------------------- 
|                                                                             |
|  ADVICE TO THIS USER RUNNING 'VASP/VAMP'   (HEAR YOUR MASTER'S VOICE ...):  |
|                                                                             |
|      You enforced a specific xc-type in the INCAR file,                     |
|      a different type was found on the POTCAR file                          |
|          I HOPE YOU KNOW, WHAT YOU ARE  DOING                               |
|                                                                             |
 ----------------------------------------------------------------------------- 

  PAW_PBE Li_sv 10Sep2004               :
 energy of atom  1       EATOM= -202.7858
 kinetic energy error for atom=    0.0143 (will be added to EATOM!!)
  PAW_PBE Ni 02Aug2007                  :
 energy of atom  2       EATOM=-1077.6739
 kinetic energy error for atom=    0.0030 (will be added to EATOM!!)
  PAW_PBE O 08Apr2002                   :
 energy of atom  3       EATOM= -432.3788
 kinetic energy error for atom=    0.0224 (will be added to EATOM!!)
 
 
 POSCAR: ce94_1                                  
  positions in direct lattice
  No initial velocities read in
 exchange correlation table for  LEXCH =       14
   RHO(1)=    0.500       N(1)  =     2000
   RHO(2)=  100.500       N(2)  =     4000
 


--------------------------------------------------------------------------------------------------------


 ion  position               nearest neighbor table
   1  0.994  0.252  0.242-  41 2.07  46 2.07  38 2.11  53 2.13  50 2.14  32 2.17  14 2.78  22 2.84

   2  0.002  0.748  0.750-  33 2.11  47 2.11  52 2.13  39 2.13  51 2.13  40 2.15  16 2.84
   3  0.247  0.250  0.500-  32 2.09  30 2.09  42 2.11  44 2.11  54 2.12  50 2.15  23 2.84  20 2.84
                            15 2.84  22 2.84
   4  0.258  0.750  0.499-  43 2.09  45 2.09  51 2.09  55 2.12  33 2.14  31 2.15  24 2.80  16 2.80

   5  0.743  0.750  0.500-  43 2.07  45 2.07  33 2.12  31 2.12  56 2.18  52 2.19  25 2.83  17 2.83

   6  0.752  0.249  0.501-  57 2.07  53 2.08  32 2.10  30 2.11  42 2.12  44 2.12  20 2.83  26 2.84

   7  0.506  0.253  0.242-  41 2.07  58 2.08  38 2.10  53 2.11  50 2.14  44 2.23  19 2.81
   8  0.996  0.248  0.758-  48 2.07  37 2.07  34 2.11  57 2.12  54 2.14  30 2.14  28 2.77  20 2.84

   9  0.999  0.751  0.249-  31 2.07  49 2.10  56 2.13  35 2.14  55 2.15  36 2.15
  10  0.249  0.249  0.000-  34 2.04  38 2.05  48 2.14  46 2.14  60 2.15  58 2.16  14 2.84
  11  0.258  0.750  0.000-  61 2.09  59 2.09  39 2.12  35 2.13  49 2.14  47 2.15
  12  0.741  0.750  0.998-  40 2.08  36 2.08  61 2.10  59 2.11  47 2.16  49 2.17  26 2.85
  13  0.505  0.247  0.760-  37 2.06  60 2.08  34 2.09  57 2.11  54 2.14  42 2.26  29 2.80  17 2.84

  14  1.000  0.004  0.002-  40 1.84  39 1.85  41 1.86  38 1.87  48 2.04  49 2.09  19 2.77   1 2.78
                            19 2.79  10 2.84  17 2.88  15 2.89  18 2.89  16 2.90
  15  0.251  1.000  0.251-  49 1.86  61 1.87  44 1.87  32 1.88  55 2.07  38 2.12  18 2.77  18 2.79
                             3 2.84  21 2.88  14 2.89  20 2.90  19 2.90
  16  0.251  0.993  0.748-  60 1.85  48 1.85  45 1.86  33 1.87  39 2.05  54 2.09  17 2.77  17 2.79
                             4 2.80   2 2.84  19 2.88  20 2.88  21 2.88  14 2.90
  17  0.750  0.996  0.750-  33 1.86  60 1.86  45 1.86  48 1.87  40 2.08  57 2.13  16 2.77  16 2.79
                             5 2.83  13 2.84  19 2.87  14 2.88  20 2.89  21 2.90
  18  0.750  0.999  0.251-  49 1.88  44 1.88  61 1.88  32 1.89  41 1.98  56 2.01  15 2.77  15 2.79
                            21 2.88  14 2.89  20 2.89  19 2.90
  19  0.501  0.002  1.000-  40 1.86  38 1.87  39 1.88  41 1.88  61 1.97  60 2.01  14 2.77  14 2.79
                             7 2.81  17 2.87  16 2.88  18 2.90  15 2.90
  20  1.000  0.005  0.503-  55 1.84  56 1.85  57 1.87  54 1.87  32 2.09  33 2.10  21 2.78  21 2.78
                             6 2.83   3 2.84   8 2.84  16 2.88  17 2.89  18 2.89  15 2.90
  21  0.499  0.002  0.501-  55 1.86  57 1.87  54 1.87  56 1.87  45 1.98  44 2.03  20 2.78  20 2.78
                            15 2.88  18 2.88  16 2.88  17 2.90
  22  1.000  0.495  0.497-  51 1.83  52 1.85  53 1.85  50 1.87  30 2.11  31 2.14  27 2.78  27 2.78
                             1 2.84   3 2.84  24 2.88  26 2.89  25 2.89  23 2.89
  23  0.251  0.500  0.749-  59 1.85  47 1.86  42 1.87  30 1.87  51 2.11  34 2.16  26 2.77  26 2.79
                             3 2.84  27 2.87  28 2.89  22 2.89  29 2.90
  24  0.251  0.506  0.252-  58 1.85  46 1.86  31 1.86  43 1.87  35 2.03  50 2.07  25 2.77  25 2.79
                             4 2.80  29 2.88  22 2.88  27 2.89  28 2.90
  25  0.750  0.504  0.250-  58 1.85  31 1.85  43 1.86  46 1.87  36 2.11  53 2.16  24 2.77  24 2.79
                             5 2.83  29 2.87  28 2.88  22 2.89  27 2.90
  26  0.750  0.500  0.749-  47 1.88  59 1.88  42 1.88  30 1.88  37 1.98  52 2.00  23 2.77  23 2.79
                             6 2.84  12 2.85  27 2.88  28 2.89  22 2.89  29 2.90
  27  0.499  0.498  0.500-  51 1.85  53 1.86  50 1.88  52 1.88  43 1.98  42 2.01  22 2.78  22 2.78
                            23 2.87  26 2.88  24 2.89  25 2.90
  28  1.000  0.495  0.997-  36 1.83  35 1.86  34 1.86  37 1.87  46 2.04  47 2.08   8 2.77  29 2.77
                            29 2.79  25 2.88  26 2.89  23 2.89  24 2.90
  29  0.501  0.498  1.000-  36 1.85  34 1.86  37 1.87  35 1.87  59 1.98  58 2.02  28 2.77  28 2.79
                            13 2.80  25 2.87  24 2.88  26 2.90  23 2.90
  30  0.002  0.387  0.641-  23 1.87  26 1.88   3 2.09   6 2.11  22 2.11   8 2.14
  31  0.997  0.613  0.359-  25 1.85  24 1.86   9 2.07   5 2.12  22 2.14   4 2.15
  32  0.001  0.112  0.361-  15 1.88  18 1.89  20 2.09   3 2.09   6 2.10   1 2.17
  33  0.997  0.888  0.638-  17 1.86  16 1.87  20 2.10   2 2.11   5 2.12   4 2.14
  34  0.253  0.385  0.893-  28 1.86  29 1.86  10 2.04  13 2.09   8 2.11  23 2.16
  35  0.246  0.604  0.109-  28 1.86  29 1.87  24 2.03  11 2.13   9 2.14
  36  0.755  0.606  0.102-  28 1.83  29 1.85  12 2.08  25 2.11   9 2.15
  37  0.748  0.395  0.881-  28 1.87  29 1.87  26 1.98  13 2.06   8 2.07
  38  0.252  0.113  0.110-  14 1.87  19 1.87  10 2.05   7 2.10   1 2.11  15 2.12
  39  0.245  0.895  0.892-  14 1.85  19 1.88  16 2.05  11 2.12   2 2.13
  40  0.755  0.894  0.895-  14 1.84  19 1.86  17 2.08  12 2.08   2 2.15
  41  0.750  0.104  0.119-  14 1.86  19 1.88  18 1.98   1 2.07   7 2.07
  42  0.498  0.393  0.635-  23 1.87  26 1.88  27 2.01   3 2.11   6 2.12  13 2.26
  43  0.504  0.604  0.369-  25 1.86  24 1.87  27 1.98   5 2.07   4 2.09
  44  0.499  0.108  0.364-  15 1.87  18 1.88  21 2.03   3 2.11   6 2.12   7 2.23
  45  0.503  0.896  0.631-  16 1.86  17 1.86  21 1.98   5 2.07   4 2.09
  46  0.004  0.398  0.142-  24 1.86  25 1.87  28 2.04   1 2.07  10 2.14
  47  0.003  0.607  0.861-  23 1.86  26 1.88  28 2.08   2 2.11  11 2.15  12 2.16
  48  0.005  0.102  0.858-  16 1.85  17 1.87  14 2.04   8 2.07  10 2.14
  49  0.002  0.892  0.140-  15 1.86  18 1.88  14 2.09   9 2.10  11 2.14  12 2.17
  50  0.250  0.391  0.384-  22 1.87  27 1.88  24 2.07   7 2.14   1 2.14   3 2.15
  51  0.244  0.605  0.603-  22 1.83  27 1.85   4 2.09  23 2.11   2 2.13
  52  0.756  0.601  0.612-  22 1.85  27 1.88  26 2.00   2 2.13   5 2.19
  53  0.748  0.388  0.391-  22 1.85  27 1.86   6 2.08   7 2.11   1 2.13  25 2.16
  54  0.251  0.110  0.614-  20 1.87  21 1.87  16 2.09   3 2.12  13 2.14   8 2.14
  55  0.245  0.897  0.394-  20 1.84  21 1.86  15 2.07   4 2.12   9 2.15
  56  0.755  0.899  0.389-  20 1.85  21 1.87  18 2.01   9 2.13   5 2.18
  57  0.748  0.112  0.612-  20 1.87  21 1.87   6 2.07  13 2.11   8 2.12  17 2.13
  58  0.498  0.399  0.141-  24 1.85  25 1.85  29 2.02   7 2.08  10 2.16
  59  0.497  0.601  0.866-  23 1.85  26 1.88  29 1.98  11 2.09  12 2.11
  60  0.497  0.100  0.860-  16 1.85  17 1.86  19 2.01  13 2.08  10 2.15
  61  0.498  0.899  0.132-  15 1.87  18 1.88  19 1.97  11 2.09  12 2.10
 
  LATTYP: Found a triclinic cell.
 ALAT       =    11.5201206625
 B/A-ratio  =     0.4826601213
 C/A-ratio  =     0.8784860510
 COS(alpha) =     0.0001375375
 COS(beta)  =     0.3192275187
 COS(gamma) =     0.4830544193
  
  Lattice vectors:
  
 A1 = (  -3.7079888331,   5.5625677012,   9.3819954946)
 A2 = (  -0.0003858907,   5.5603026939,   0.0011973440)
 A3 = ( -10.1202107059,   0.0006967202,  -0.0332368601)


Analysis of symmetry for initial positions (statically):
=====================================================================
 Subroutine PRICEL returns:
 Original cell was already a primitive cell.
 

 Routine SETGRP: Setting up the symmetry group for a 
 triclinic supercell.


 Subroutine GETGRP returns: Found  1 space group operations
 (whereof  1 operations were pure point group operations)
 out of a pool of  2 trial point group operations.


The static configuration has the point symmetry C_1 .


Analysis of symmetry for dynamics (positions and initial velocities):
=====================================================================
 Subroutine PRICEL returns:
 Original cell was already a primitive cell.
 

 Routine SETGRP: Setting up the symmetry group for a 
 triclinic supercell.


 Subroutine GETGRP returns: Found  1 space group operations
 (whereof  1 operations were pure point group operations)
 out of a pool of  2 trial point group operations.


The dynamic configuration has the point symmetry C_1 .


Analysis of structural, dynamic, and magnetic symmetry:
=====================================================================
 Subroutine PRICEL returns:
 Original cell was already a primitive cell.
 

 Routine SETGRP: Setting up the symmetry group for a 
 triclinic supercell.


 Subroutine GETGRP returns: Found  1 space group operations
 (whereof  1 operations were pure point group operations)
 out of a pool of  2 trial point group operations.


The magnetic configuration has the point symmetry C_1 .


 Subroutine INISYM returns: Found  1 space group operations
 (whereof  1 operations are pure point group operations),
 and found     1 'primitive' translations

 
 
 KPOINTS: Automatic mesh                          

Automatic generation of k-mesh.
Space group operators:
 irot       det(A)        alpha          n_x          n_y          n_z        tau_x        tau_y        tau_z
    1     1.000000     0.000002     1.000000     0.000000     0.000000     0.000000     0.000000     0.000000
 
 Subroutine IBZKPT returns following result:
 ===========================================
 
 Found      1 irreducible k-points:
 
 Following reciprocal coordinates:
            Coordinates               Weight
  0.000000  0.000000  0.000000      1.000000
 
 Following cartesian coordinates:
            Coordinates               Weight
  0.000000  0.000000  0.000000      1.000000
 


--------------------------------------------------------------------------------------------------------




 Dimension of arrays:
   k-points           NKPTS =      1   k-points in BZ     NKDIM =      1   number of bands    NBANDS=    256
   number of dos      NEDOS =    301   number of ions     NIONS =     61
   non local maximal  LDIM  =      6   non local SUM 2l+1 LMDIM =     18
   total plane-waves  NPLWV = 268800
   max r-space proj   IRMAX =   6877   max aug-charges    IRDMAX=  16682
   dimension x,y,z NGX =    42 NGY =   80 NGZ =   80
   dimension x,y,z NGXF=    84 NGYF=  160 NGZF=  160
   support grid    NGXF=    84 NGYF=  160 NGZF=  160
   ions per type =              13  16  32
   NGX,Y,Z   is equivalent  to a cutoff of  12.56, 13.19, 13.14 a.u.
   NGXF,Y,Z  is equivalent  to a cutoff of  25.11, 26.37, 26.28 a.u.

 SYSTEM =  unknown system                          
 POSCAR =  ce94_1                                  

 Startparameter for this run:
   NWRITE =      1    write-flag & timer
   PREC   = accura    normal or accurate (medium, high low for compatibility)
   ISTART =      0    job   : 0-new  1-cont  2-samecut
   ICHARG =      2    charge: 1-file 2-atom 10-const
   ISPIN  =      2    spin polarized calculation?
   LNONCOLLINEAR =      F non collinear calculations
   LSORBIT =      F    spin-orbit coupling
   INIWAV =      1    electr: 0-lowe 1-rand  2-diag
   LASPH  =      F    aspherical Exc in radial PAW
   METAGGA=      F    non-selfconsistent MetaGGA calc.

 Electronic Relaxation 1
   ENCUT  =  500.0 eV  36.75 Ry    6.06 a.u.  10.14 18.39 18.45*2*pi/ulx,y,z
   ENINI  =  500.0     initial cutoff
   ENAUG  =  628.9 eV  augmentation charge cutoff
   NELM   =     80;   NELMIN=  2; NELMDL= -5     # of ELM steps 
   EDIFF  = 0.1E-04   stopping-criterion for ELM
   LREAL  =      T    real-space projection
   NLSPLINE    = F    spline interpolate recip. space projectors
   LCOMPAT=      F    compatible to vasp.4.4
   GGA_COMPAT  = T    GGA compatible to vasp.4.4-vasp.4.6
   LMAXPAW     = -100 max onsite density
   LMAXMIX     =    2 max onsite mixed and CHGCAR
   VOSKOWN=      1    Vosko Wilk Nusair interpolation
   ROPT   =   -0.00025  -0.00025  -0.00025
 Ionic relaxation
   EDIFFG = -.2E-01   stopping-criterion for IOM
   NSW    =     20    number of steps for IOM
   NBLOCK =      1;   KBLOCK =     20    inner block; outer block 
   IBRION =      1    ionic relax: 0-MD 1-quasi-New 2-CG
   NFREE  =      0    steps in history (QN), initial steepest desc. (CG)
   ISIF   =      3    stress and relaxation
   IWAVPR =     11    prediction:  0-non 1-charg 2-wave 3-comb
   ISYM   =      2    0-nonsym 1-usesym 2-fastsym
   LCORR  =      T    Harris-Foulkes like correction to forces

   POTIM  = 0.5000    time-step for ionic-motion
   TEIN   =    0.0    initial temperature
   TEBEG  =    0.0;   TEEND  =   0.0 temperature during run
   SMASS  =  -3.00    Nose mass-parameter (am)
   estimated Nose-frequenzy (Omega)   =  0.10E-29 period in steps =****** mass=  -0.707E-27a.u.
   SCALEE = 1.0000    scale energy and forces
   NPACO  =    256;   APACO  = 16.0  distance and # of slots for P.C.
   PSTRESS=    0.0 pullay stress

  Mass of Ions in am
   POMASS =   7.01 58.69 16.00
  Ionic Valenz
   ZVAL   =   3.00 10.00  6.00
  Atomic Wigner-Seitz radii
   RWIGS  =   1.23  1.15  0.73
  virtual crystal weights 
   VCA    =   1.00  1.00  1.00
   NELECT =     391.0000    total number of electrons
   NUPDOWN=      -1.0000    fix difference up-down

 DOS related values:
   EMIN   =  10.00;   EMAX   =-10.00  energy-range for DOS
   EFERMI =   0.00
   ISMEAR =     0;   SIGMA  =   0.05  broadening in eV -4-tet -1-fermi 0-gaus

 Electronic relaxation 2 (details)
   IALGO  =     38    algorithm
   LDIAG  =      T    sub-space diagonalisation (order eigenvalues)
   LSUBROT=      F    optimize rotation matrix (better conditioning)
   TURBO    =      0    0=normal 1=particle mesh
   IRESTART =      0    0=no restart 2=restart with 2 vectors
   NREBOOT  =      0    no. of reboots
   NMIN     =      0    reboot dimension
   EREF     =   0.00    reference energy to select bands
   IMIX   =      4    mixing-type and parameters
     AMIX     =   0.40;   BMIX     =  1.00
     AMIX_MAG =   1.60;   BMIX_MAG =  1.00
     AMIN     =   0.10
     WC   =   100.;   INIMIX=   1;  MIXPRE=   1;  MAXMIX= -45

 Intra band minimization:
   WEIMIN = 0.0010     energy-eigenvalue tresh-hold
   EBREAK =  0.98E-08  absolut break condition
   DEPER  =   0.30     relativ break condition  

   TIME   =   0.40     timestep for ELM

  volume/ion in A,a.u.               =       8.66        58.47
  Fermi-wavevector in a.u.,A,eV,Ry     =   1.480596  2.797922 29.826228  2.192166
  Thomas-Fermi vector in A             =   2.594611
 
 Write flags
   LWAVE        =      F    write WAVECAR
   LDOWNSAMPLE  =      F    k-point downsampling of WAVECAR
   LCHARG       =      T    write CHGCAR
   LVTOT        =      F    write LOCPOT, total local potential
   LVHAR        =      F    write LOCPOT, Hartree potential only
   LELF         =      F    write electronic localiz. function (ELF)
   LORBIT       =      0    0 simple, 1 ext, 2 COOP (PROOUT), +10 PAW based schemes


 Dipole corrections
   LMONO  =      F    monopole corrections only (constant potential shift)
   LDIPOL =      F    correct potential (dipole corrections)
   IDIPOL =      0    1-x, 2-y, 3-z, 4-all directions 
   EPSILON=  1.0000000 bulk dielectric constant

 Exchange correlation treatment:
   GGA     =    PS    GGA type
   LEXCH   =    14    internal setting for exchange type
   VOSKOWN=      1    Vosko Wilk Nusair interpolation
   LHFCALC =     F    Hartree Fock is set to
   LHFONE  =     F    Hartree Fock one center treatment
   AEXX    =    0.0000 exact exchange contribution

 Linear response parameters
   LEPSILON=     F    determine dielectric tensor
   LRPA    =     F    only Hartree local field effects (RPA)
   LNABLA  =     F    use nabla operator in PAW spheres
   LVEL    =     F    velocity operator in full k-point grid
   LINTERFAST=   F  fast interpolation
   KINTER  =     0    interpolate to denser k-point grid
   CSHIFT  =0.1000    complex shift for real part using Kramers Kronig
   OMEGAMAX=  -1.0    maximum frequency
   DEG_THRESHOLD= 0.2000000E-02 threshold for treating states as degnerate
   RTIME   =   -0.100 relaxation time in fs
  (WPLASMAI=    0.000 imaginary part of plasma frequency in eV, 0.658/RTIME)
   DFIELD  = 0.0000000 0.0000000 0.0000000 field for delta impulse in time
 
 Orbital magnetization related:
   ORBITALMAG=     F  switch on orbital magnetization
   LCHIMAG   =     F  perturbation theory with respect to B field
   DQ        =  0.001000  dq finite difference perturbation B field
   LLRAUG    =     F  two centre corrections for induced B field



--------------------------------------------------------------------------------------------------------


 quasi-Newton-method for relaxation of ions
 charge density and potential will be updated during run
 spin polarized calculation
 Variant of blocked Davidson
 Davidson routine will perform the subspace rotation
 perform sub-space diagonalisation
    after iterative eigenvector-optimisation
 modified Broyden-mixing scheme, WC =      100.0
 initial mixing is a Kerker type mixing with AMIX =  0.4000 and BMIX =      1.0000
 Hartree-type preconditioning will be used
 using additional bands           60
 real space projection scheme for non local part
 use partial core corrections
 calculate Harris-corrections to forces 
   (improved forces if not selfconsistent)
 use gradient corrections 
 use of overlap-Matrix (Vanderbilt PP)
 Gauss-broadening in eV      SIGMA  =   0.05


--------------------------------------------------------------------------------------------------------


  energy-cutoff  :      500.00
  volume of cell :      528.56
      direct lattice vectors                 reciprocal lattice vectors
    -0.000385891  5.560302694  0.001197344     0.000012508  0.179846333 -0.000038481
    -3.707602942  0.002265007  9.380798151    -0.000349647 -0.000022950  0.106462551
    10.120210706 -0.000696720  0.033236860     0.098684077 -0.000001550  0.039003225

  length of vectors
     5.560302836 10.086907289 10.120265308     0.179846338  0.106463128  0.106112198


 
 k-points in units of 2pi/SCALE and weight: Automatic mesh                          
   0.00000000  0.00000000  0.00000000       1.000
 
 k-points in reciprocal lattice and weights: Automatic mesh                          
   0.00000000  0.00000000  0.00000000       1.000
 
 position of ions in fractional coordinates (direct lattice) 
   0.99414718  0.25199669  0.24194896
   0.00201161  0.74825973  0.75010633
   0.24748469  0.24986508  0.50000180
   0.25833357  0.75011002  0.49948828
   0.74316662  0.74982893  0.49971714
   0.75222926  0.24920445  0.50121187
   0.50580503  0.25260585  0.24223937
   0.99572121  0.24832348  0.75825946
   0.99905907  0.75110944  0.24936428
   0.24920692  0.24902706  0.00035470
   0.25838477  0.74978752  0.00022735
   0.74068328  0.75026507  0.99849480
   0.50486165  0.24712097  0.75983733
   0.99969741  0.00408784  0.00249418
   0.25064880  0.99999452  0.25060802
   0.25108100  0.99336300  0.74781204
   0.74991032  0.99627170  0.75014905
   0.74969129  0.99933066  0.25064555
   0.50095984  0.00151266  0.99999988
   0.99977623  0.00454536  0.50299645
   0.49949311  0.00203542  0.50092605
   0.99960789  0.49548424  0.49724795
   0.25084811  0.49961076  0.74913974
   0.25091580  0.50608753  0.25202220
   0.74970270  0.50352189  0.24975402
   0.74988135  0.50018425  0.74910964
   0.49936479  0.49809921  0.49961027
   0.99957834  0.49529853  0.99743043
   0.50094045  0.49796929  0.99973613
   0.00235936  0.38743900  0.64100602
   0.99683897  0.61287139  0.35894175
   0.00103470  0.11166605  0.36099289
   0.99726908  0.88824757  0.63837937
   0.25254836  0.38543615  0.89320945
   0.24602974  0.60419675  0.10887383
   0.75452371  0.60612969  0.10185690
   0.74842370  0.39510918  0.88054363
   0.25226560  0.11301779  0.10992645
   0.24508612  0.89467232  0.89213575
   0.75492031  0.89426510  0.89518262
   0.74954669  0.10437418  0.11862839
   0.49833664  0.39307772  0.63487491
   0.50367544  0.60377782  0.36922656
   0.49884140  0.10750191  0.36386686
   0.50287400  0.89578987  0.63121597
   0.00371089  0.39758718  0.14152447
   0.00274753  0.60692760  0.86079859
   0.00489733  0.10218470  0.85777046
   0.00221679  0.89176911  0.13967752
   0.25014389  0.39072769  0.38411181
   0.24444673  0.60456650  0.60314605
   0.75558982  0.60108962  0.61185690
   0.74803827  0.38754863  0.39143066
   0.25082174  0.11029660  0.61438953
   0.24541138  0.89659708  0.39381275
   0.75464621  0.89907892  0.38927293
   0.74773043  0.11206914  0.61172328
   0.49756650  0.39931591  0.14131825
   0.49694469  0.60092491  0.86596600
   0.49683059  0.09998455  0.85995560
   0.49809440  0.89899290  0.13205756
 
 position of ions in cartesian coordinates  (Angst):
   1.51388715  5.52816145  2.37316204
   4.81698336  0.01235736  7.04420708
   4.13362756  1.37630737  2.36084869
   2.27371683  1.43776385  7.05354142
   2.27688802  4.13358156  7.05149269
   4.14812830  4.18283763  2.35529603
   1.51475609  2.81283245  2.37830139
   6.75267640  5.53654549  2.35586683
  -0.26158204  5.55659837  7.05549035
  -0.91979999  1.38622971  2.33638276
  -2.77771329  1.43839565  7.03392231
   7.32300696  4.11942692  7.07215887
   6.77329262  2.80721393  2.34405104
   0.00969977  5.55862772  0.03962708
  -1.17147338  1.39577359  9.38937628
   3.88492294  1.39781532  9.34369335
   3.89759718  4.17146229  9.37165422
  -1.16882482  4.17059936  9.38374752
  10.11440783  2.78479505  0.04802664
   5.07319186  5.55871831  0.06055420
   5.06173790  2.77698849  0.03634114
   3.19480946  5.55889828  4.66576148
   5.72899689  1.39540110  4.71194710
   0.67404933  1.39613850  4.75618182
   0.66041476  4.16954041  4.73263591
   5.72637343  4.17017829  4.71792341
   3.20921441  2.77739950  4.68977154
   8.25745010  5.55838506  4.68064383
   8.27107457  2.78581190  4.70517728
   5.05064510  0.01354971  3.65579491
   1.35989770  5.54386449  5.76234646
   3.23931034  0.00575466  1.05951618
   3.16687959  5.54668507  8.35488296
   7.61032618  1.40449603  3.64568859
  -1.13839049  1.36929248  5.67176096
  -1.21676610  4.19668214  5.69026910
   7.44609030  4.16174375  3.73660209
   0.69335640  1.40285249  1.06415273
   5.71141747  1.36415788  8.42268569
   5.74356550  4.19898726  8.41957736
   0.81327704  4.16786024  0.98395342
   4.96749945  2.77135056  3.70908068
   1.49788780  2.80169822  5.67679286
   3.28364240  2.77369916  1.02114480
   3.06661141  2.79772085  8.42480571
  -0.04183937  0.02143561  3.73439336
   6.46121549  0.01605206  5.72207884
   8.30195561  0.02686446  0.98708951
  -1.89276070  0.01424857  8.37015111
   2.43853279  1.39149313  3.67840377
   3.86237825  1.36014693  5.69165567
   3.96322753  4.20224329  5.65994130
   2.52419565  4.15992429  3.64942106
   5.80871871  1.39446656  1.05539084
   0.66114733  1.36631798  8.42417917
   0.60580521  4.19782656  8.44791965
   5.77497207  4.15743516  1.07252503
  -0.05052638  2.76742634  3.75119468
   6.53557565  2.76392066  5.66653229
   8.33203714  2.76215579  0.96711198
  -1.99685060  2.77149985  8.43825650
 


--------------------------------------------------------------------------------------------------------


 use serial FFT for orbitals x direction half grid
 k-point  1 :   0.0000 0.0000 0.0000  plane waves:    6695

 maximum and minimum number of plane-waves per node :      6695     6695

 maximum number of plane-waves:      6695
 maximum index in each direction: 
   IXMAX=   10   IYMAX=   18   IZMAX=   18
   IXMIN=    0   IYMIN=  -18   IZMIN=  -18

 The following grids will avoid any aliasing or wrap around errors in the Hartre
 e energy
  - symmetry arguments have not been applied
  - exchange correlation energies might require even more grid points
  - we recommend to set PREC=Normal or Accurate and rely on VASP defaults
 NGX is ok and might be reduce to    42
 NGY is ok and might be reduce to    80
 NGZ is ok and might be reduce to    80

 serial   3D FFT for wavefunctions
 parallel 3D FFT for charge:
    minimum data exchange during FFTs selected (reduces bandwidth)


 total amount of memory used by VASP MPI-rank0   100452. kBytes
=======================================================================

   base      :      30000. kBytes
   nonlr-proj:      24497. kBytes
   fftplans  :       6149. kBytes
   grid      :      35266. kBytes
   one-center:        948. kBytes
   wavefun   :       3592. kBytes
 
     INWAV:  cpu time    0.0000: real time    0.0000
 Broyden mixing: mesh for mixing (old mesh)
   NGX = 21   NGY = 37   NGZ = 37
  (NGX  = 84   NGY  =160   NGZ  =160)
  gives a total of  28749 points

 initial charge density was supplied:
 charge density of overlapping atoms calculated
 number of electron     391.0000000 magnetization      40.0000000
 keeping initial charge density in first step


--------------------------------------------------------------------------------------------------------


 Maximum index for non-local projection operator         6640
 Maximum index for augmentation-charges         1570 (set IRDMAX)


--------------------------------------------------------------------------------------------------------


 First call to EWALD:  gamma=   0.219
 Maximum number of real-space cells 4x 2x 2
 Maximum number of reciprocal cells 2x 3x 3

    FEWALD:  cpu time    0.0040: real time    0.0041


--------------------------------------- Iteration      1(   1)  ---------------------------------------


    POTLOK:  cpu time    0.1776: real time    0.1833
    SETDIJ:  cpu time    0.0222: real time    0.0222
     EDDAV:  cpu time    1.9118: real time    1.9334
    --------------------------------------------
      LOOP:  cpu time    2.1120: real time    2.1393

 eigenvalue-minimisations  :  1056
 total energy-change (2. order) : 0.6848082E+04  (-0.1743150E+05)
 number of electron     391.0000000 magnetization      40.0000000
 augmentation part      391.0000000 magnetization      40.0000000

 Free energy of the ion-electron system (eV)
  ---------------------------------------------------
  alpha Z        PSCENC =      1225.64455605
  Ewald energy   TEWEN  =    -24046.47364062
  -Hartree energ DENC   =    -10315.13589976
  -exchange      EXHF   =         0.00000000
  -V(xc)+E(xc)   XCENC  =      1596.51148864
  PAW double counting   =     27500.57083131   -28814.20024788
  entropy T*S    EENTRO =        -0.00000003
  eigenvalues    EBANDS =      6074.26758828
  atomic energy  EATOM  =     33626.89778075
  Solvation  Ediel_sol  =         0.00000000
  ---------------------------------------------------
  free energy    TOTEN  =      6848.08245674 eV

  energy without entropy =     6848.08245677  energy(sigma->0) =     6848.08245675


--------------------------------------------------------------------------------------------------------




--------------------------------------- Iteration      1(   2)  ---------------------------------------


     EDDAV:  cpu time    1.9466: real time    1.9512
    --------------------------------------------
      LOOP:  cpu time    1.9465: real time    1.9511

 eigenvalue-minimisations  :  1088
 total energy-change (2. order) :-0.5550305E+04  (-0.5016184E+04)
 number of electron     391.0000000 magnetization      40.0000000
 augmentation part      391.0000000 magnetization      40.0000000

 Free energy of the ion-electron system (eV)
  ---------------------------------------------------
  alpha Z        PSCENC =      1225.64455605
  Ewald energy   TEWEN  =    -24046.47364062
  -Hartree energ DENC   =    -10315.13589976
  -exchange      EXHF   =         0.00000000
  -V(xc)+E(xc)   XCENC  =      1596.51148864
  PAW double counting   =     27500.57083131   -28814.20024788
  entropy T*S    EENTRO =        -0.00408109
  eigenvalues    EBANDS =       523.96654103
  atomic energy  EATOM  =     33626.89778075
  Solvation  Ediel_sol  =         0.00000000
  ---------------------------------------------------
  free energy    TOTEN  =      1297.77732843 eV

  energy without entropy =     1297.78140952  energy(sigma->0) =     1297.77936897


--------------------------------------------------------------------------------------------------------




--------------------------------------- Iteration      1(   3)  ---------------------------------------


     EDDAV:  cpu time    2.0528: real time    2.0577
    --------------------------------------------
      LOOP:  cpu time    2.0529: real time    2.0578

 eigenvalue-minimisations  :  1168
 total energy-change (2. order) :-0.1523139E+04  (-0.1270056E+04)
 number of electron     391.0000000 magnetization      40.0000000
 augmentation part      391.0000000 magnetization      40.0000000

 Free energy of the ion-electron system (eV)
  ---------------------------------------------------
  alpha Z        PSCENC =      1225.64455605
  Ewald energy   TEWEN  =    -24046.47364062
  -Hartree energ DENC   =    -10315.13589976
  -exchange      EXHF   =         0.00000000
  -V(xc)+E(xc)   XCENC  =      1596.51148864
  PAW double counting   =     27500.57083131   -28814.20024788
  entropy T*S    EENTRO =        -0.06961062
  eigenvalues    EBANDS =      -999.10702083
  atomic energy  EATOM  =     33626.89778075
  Solvation  Ediel_sol  =         0.00000000
  ---------------------------------------------------
  free energy    TOTEN  =      -225.36176295 eV

  energy without entropy =     -225.29215233  energy(sigma->0) =     -225.32695764


--------------------------------------------------------------------------------------------------------




--------------------------------------- Iteration      1(   4)  ---------------------------------------


     EDDAV:  cpu time    2.0583: real time    2.0632
    --------------------------------------------
      LOOP:  cpu time    2.0583: real time    2.0632

 eigenvalue-minimisations  :  1248
 total energy-change (2. order) :-0.2380013E+03  (-0.2317306E+03)
 number of electron     391.0000000 magnetization      40.0000000
 augmentation part      391.0000000 magnetization      40.0000000

 Free energy of the ion-electron system (eV)
  ---------------------------------------------------
  alpha Z        PSCENC =      1225.64455605
  Ewald energy   TEWEN  =    -24046.47364062
  -Hartree energ DENC   =    -10315.13589976
  -exchange      EXHF   =         0.00000000
  -V(xc)+E(xc)   XCENC  =      1596.51148864
  PAW double counting   =     27500.57083131   -28814.20024788
  entropy T*S    EENTRO =        -0.15147865
  eigenvalues    EBANDS =     -1237.02647160
  atomic energy  EATOM  =     33626.89778075
  Solvation  Ediel_sol  =         0.00000000
  ---------------------------------------------------
  free energy    TOTEN  =      -463.36308176 eV

  energy without entropy =     -463.21160311  energy(sigma->0) =     -463.28734243


--------------------------------------------------------------------------------------------------------




--------------------------------------- Iteration      1(   5)  ---------------------------------------


     EDDAV:  cpu time    2.7255: real time    2.7319
    CHARGE:  cpu time    0.1195: real time    0.1198
    MIXING:  cpu time    0.0036: real time    0.0073
    --------------------------------------------
      LOOP:  cpu time    2.8484: real time    2.8588

 eigenvalue-minimisations  :  1744
 total energy-change (2. order) :-0.1360126E+02  (-0.1348142E+02)
 number of electron     390.9999950 magnetization      41.7590640
 augmentation part      118.7026694 magnetization      31.2404793

 Broyden mixing:
  rms(total) = 0.10896E+02    rms(broyden)= 0.10895E+02
  rms(prec ) = 0.13402E+02
  weight for this iteration     100.00

 Free energy of the ion-electron system (eV)
  ---------------------------------------------------
  alpha Z        PSCENC =      1225.64455605
  Ewald energy   TEWEN  =    -24046.47364062
  -Hartree energ DENC   =    -10315.13589976
  -exchange      EXHF   =         0.00000000
  -V(xc)+E(xc)   XCENC  =      1596.51148864
  PAW double counting   =     27500.57083131   -28814.20024788
  entropy T*S    EENTRO =        -0.15003143
  eigenvalues    EBANDS =     -1250.62918195
  atomic energy  EATOM  =     33626.89778075
  Solvation  Ediel_sol  =         0.00000000
  ---------------------------------------------------
  free energy    TOTEN  =      -476.96434490 eV

  energy without entropy =     -476.81431346  energy(sigma->0) =     -476.88932918


--------------------------------------------------------------------------------------------------------




--------------------------------------- Iteration      1(   6)  ---------------------------------------


    POTLOK:  cpu time    0.1504: real time    0.1508
    SETDIJ:  cpu time    0.0217: real time    0.0217
     EDDAV:  cpu time    2.5002: real time    2.5061
    CHARGE:  cpu time    0.1191: real time    0.1194
    MIXING:  cpu time    0.0034: real time    0.0034
    --------------------------------------------
      LOOP:  cpu time    2.7947: real time    2.8013

 eigenvalue-minimisations  :  1504
 total energy-change (2. order) :-0.1012595E+02  (-0.1091075E+03)
 number of electron     390.9999896 magnetization      36.1469815
 augmentation part      147.0822419 magnetization      33.0325912

 Broyden mixing:
  rms(total) = 0.17991E+02    rms(broyden)= 0.17990E+02
  rms(prec ) = 0.19842E+02
  weight for this iteration     100.00

 eigenvalues of (default mixing * dielectric matrix)
  average eigenvalue GAMMA=   0.2423
  0.2423

 Free energy of the ion-electron system (eV)
  ---------------------------------------------------
  alpha Z        PSCENC =      1225.64455605
  Ewald energy   TEWEN  =    -24046.47364062
  -Hartree energ DENC   =     -9849.79279450
  -exchange      EXHF   =         0.00000000
  -V(xc)+E(xc)   XCENC  =      1608.52333041
  PAW double counting   =     30203.46248593   -31353.92598324
  entropy T*S    EENTRO =        -0.04482741
  eigenvalues    EBANDS =     -1901.38119889
  atomic energy  EATOM  =     33626.89778075
  Solvation  Ediel_sol  =         0.00000000
  ---------------------------------------------------
  free energy    TOTEN  =      -487.09029152 eV

  energy without entropy =     -487.04546412  energy(sigma->0) =     -487.06787782


--------------------------------------------------------------------------------------------------------




--------------------------------------- Iteration      1(   7)  ---------------------------------------


    POTLOK:  cpu time    0.1501: real time    0.1504
    SETDIJ:  cpu time    0.0216: real time    0.0216
     EDDAV:  cpu time    2.2787: real time    2.2841
    CHARGE:  cpu time    0.1162: real time    0.1165
    MIXING:  cpu time    0.0034: real time    0.0034
    --------------------------------------------
      LOOP:  cpu time    2.5700: real time    2.5761

 eigenvalue-minimisations  :  1360
 total energy-change (2. order) : 0.1107522E+03  (-0.2634698E+02)
 number of electron     390.9999905 magnetization      27.4832805
 augmentation part      135.1278236 magnetization      24.6337622

 Broyden mixing:
  rms(total) = 0.57937E+01    rms(broyden)= 0.57931E+01
  rms(prec ) = 0.66284E+01
  weight for this iteration     100.00

 eigenvalues of (default mixing * dielectric matrix)
  average eigenvalue GAMMA=   0.5589
  0.5589  0.5589

 Free energy of the ion-electron system (eV)
  ---------------------------------------------------
  alpha Z        PSCENC =      1225.64455605
  Ewald energy   TEWEN  =    -24046.47364062
  -Hartree energ DENC   =    -10038.89010347
  -exchange      EXHF   =         0.00000000
  -V(xc)+E(xc)   XCENC  =      1597.07515275
  PAW double counting   =     31456.20476617   -32727.34422981
  entropy T*S    EENTRO =        -0.02029003
  eigenvalues    EBANDS =     -1469.43212587
  atomic energy  EATOM  =     33626.89778075
  Solvation  Ediel_sol  =         0.00000000
  ---------------------------------------------------
  free energy    TOTEN  =      -376.33813408 eV

  energy without entropy =     -376.31784406  energy(sigma->0) =     -376.32798907


--------------------------------------------------------------------------------------------------------




--------------------------------------- Iteration      1(   8)  ---------------------------------------


    POTLOK:  cpu time    0.1497: real time    0.1501
    SETDIJ:  cpu time    0.0218: real time    0.0218
     EDDAV:  cpu time    2.4810: real time    2.4868
    CHARGE:  cpu time    0.1179: real time    0.1181
    MIXING:  cpu time    0.0033: real time    0.0033
    --------------------------------------------
      LOOP:  cpu time    2.7737: real time    2.7802

 eigenvalue-minimisations  :  1504
 total energy-change (2. order) :-0.1475811E+01  (-0.1064796E+02)
 number of electron     390.9999906 magnetization      24.8832668
 augmentation part      128.6651393 magnetization      20.2992998

 Broyden mixing:
  rms(total) = 0.73220E+01    rms(broyden)= 0.73214E+01
  rms(prec ) = 0.99856E+01
  weight for this iteration     100.00

 eigenvalues of (default mixing * dielectric matrix)
  average eigenvalue GAMMA=   0.5030
  0.6350  0.6350  0.2389

 Free energy of the ion-electron system (eV)
  ---------------------------------------------------
  alpha Z        PSCENC =      1225.64455605
  Ewald energy   TEWEN  =    -24046.47364062
  -Hartree energ DENC   =    -10048.18868403
  -exchange      EXHF   =         0.00000000
  -V(xc)+E(xc)   XCENC  =      1588.08842624
  PAW double counting   =     32724.81334585   -34052.97419297
  entropy T*S    EENTRO =        -0.04852779
  eigenvalues    EBANDS =     -1395.57300890
  atomic energy  EATOM  =     33626.89778075
  Solvation  Ediel_sol  =         0.00000000
  ---------------------------------------------------
  free energy    TOTEN  =      -377.81394543 eV

  energy without entropy =     -377.76541764  energy(sigma->0) =     -377.78968153


--------------------------------------------------------------------------------------------------------




--------------------------------------- Iteration      1(   9)  ---------------------------------------


    POTLOK:  cpu time    0.1472: real time    0.1475
    SETDIJ:  cpu time    0.0214: real time    0.0215
     EDDAV:  cpu time    2.1502: real time    2.1553
    CHARGE:  cpu time    0.1074: real time    0.1076
    MIXING:  cpu time    0.0036: real time    0.0036
    --------------------------------------------
      LOOP:  cpu time    2.4298: real time    2.4355

 eigenvalue-minimisations  :  1360
 total energy-change (2. order) :-0.4139188E+01  (-0.1500903E+02)
 number of electron     390.9999905 magnetization      18.9250491
 augmentation part      129.0405894 magnetization      16.3219280

 Broyden mixing:
  rms(total) = 0.58612E+01    rms(broyden)= 0.58603E+01
  rms(prec ) = 0.76673E+01
  weight for this iteration     100.00

 eigenvalues of (default mixing * dielectric matrix)
  average eigenvalue GAMMA=   0.5287
  0.9951  0.5653  0.4284  0.1261

 Free energy of the ion-electron system (eV)
  ---------------------------------------------------
  alpha Z        PSCENC =      1225.64455605
  Ewald energy   TEWEN  =    -24046.47364062
  -Hartree energ DENC   =    -10028.98461544
  -exchange      EXHF   =         0.00000000
  -V(xc)+E(xc)   XCENC  =      1586.31982682
  PAW double counting   =     33226.51679194   -34562.12176995
  entropy T*S    EENTRO =        -0.00981705
  eigenvalues    EBANDS =     -1409.74224544
  atomic energy  EATOM  =     33626.89778075
  Solvation  Ediel_sol  =         0.00000000
  ---------------------------------------------------
  free energy    TOTEN  =      -381.95313294 eV

  energy without entropy =     -381.94331589  energy(sigma->0) =     -381.94822442


--------------------------------------------------------------------------------------------------------




--------------------------------------- Iteration      1(  10)  ---------------------------------------


    POTLOK:  cpu time    0.1402: real time    0.1405
    SETDIJ:  cpu time    0.0210: real time    0.0210
     EDDAV:  cpu time    1.9532: real time    1.9578
    CHARGE:  cpu time    0.1065: real time    0.1068
    MIXING:  cpu time    0.0035: real time    0.0035
    --------------------------------------------
      LOOP:  cpu time    2.2243: real time    2.2296

 eigenvalue-minimisations  :  1376
 total energy-change (2. order) : 0.7609288E+01  (-0.4931869E+01)
 number of electron     390.9999906 magnetization      16.6880818
 augmentation part      130.2805429 magnetization      14.2715655

 Broyden mixing:
  rms(total) = 0.41037E+01    rms(broyden)= 0.41030E+01
  rms(prec ) = 0.54682E+01
  weight for this iteration     100.00

 eigenvalues of (default mixing * dielectric matrix)
  average eigenvalue GAMMA=   0.5085
  1.1993  0.5592  0.4099  0.2425  0.1317

 Free energy of the ion-electron system (eV)
  ---------------------------------------------------
  alpha Z        PSCENC =      1225.64455605
  Ewald energy   TEWEN  =    -24046.47364062
  -Hartree energ DENC   =     -9996.94324560
  -exchange      EXHF   =         0.00000000
  -V(xc)+E(xc)   XCENC  =      1584.21956750
  PAW double counting   =     34235.74519107   -35583.59852988
  entropy T*S    EENTRO =        -0.03686374
  eigenvalues    EBANDS =     -1419.79866046
  atomic energy  EATOM  =     33626.89778075
  Solvation  Ediel_sol  =         0.00000000
  ---------------------------------------------------
  free energy    TOTEN  =      -374.34384493 eV

  energy without entropy =     -374.30698119  energy(sigma->0) =     -374.32541306


--------------------------------------------------------------------------------------------------------




--------------------------------------- Iteration      1(  11)  ---------------------------------------


    POTLOK:  cpu time    0.1410: real time    0.1413
    SETDIJ:  cpu time    0.0211: real time    0.0211
     EDDAV:  cpu time    2.0801: real time    2.0850
    CHARGE:  cpu time    0.1222: real time    0.1225
    MIXING:  cpu time    0.0041: real time    0.0041
    --------------------------------------------
      LOOP:  cpu time    2.3685: real time    2.3741

 eigenvalue-minimisations  :  1344
 total energy-change (2. order) : 0.4873912E+01  (-0.2603554E+01)
 number of electron     390.9999905 magnetization      12.7261179
 augmentation part      130.7874969 magnetization      10.6625564

 Broyden mixing:
  rms(total) = 0.24127E+01    rms(broyden)= 0.24118E+01
  rms(prec ) = 0.31904E+01
  weight for this iteration     100.00

 eigenvalues of (default mixing * dielectric matrix)
  average eigenvalue GAMMA=   0.5450
  1.5152  0.6653  0.4044  0.4044  0.1596  0.1211

 Free energy of the ion-electron system (eV)
  ---------------------------------------------------
  alpha Z        PSCENC =      1225.64455605
  Ewald energy   TEWEN  =    -24046.47364062
  -Hartree energ DENC   =     -9995.43172806
  -exchange      EXHF   =         0.00000000
  -V(xc)+E(xc)   XCENC  =      1584.02714215
  PAW double counting   =     34586.28529278   -35939.01217860
  entropy T*S    EENTRO =        -0.04087440
  eigenvalues    EBANDS =     -1411.36628259
  atomic energy  EATOM  =     33626.89778075
  Solvation  Ediel_sol  =         0.00000000
  ---------------------------------------------------
  free energy    TOTEN  =      -369.46993256 eV

  energy without entropy =     -369.42905815  energy(sigma->0) =     -369.44949536


--------------------------------------------------------------------------------------------------------




--------------------------------------- Iteration      1(  12)  ---------------------------------------


    POTLOK:  cpu time    0.1549: real time    0.1553
    SETDIJ:  cpu time    0.0215: real time    0.0215
     EDDAV:  cpu time    2.3085: real time    2.3140
    CHARGE:  cpu time    0.1212: real time    0.1215
    MIXING:  cpu time    0.0043: real time    0.0043
    --------------------------------------------
      LOOP:  cpu time    2.6104: real time    2.6166

 eigenvalue-minimisations  :  1360
 total energy-change (2. order) :-0.2147809E+01  (-0.1780312E+01)
 number of electron     390.9999904 magnetization      10.1627036
 augmentation part      130.5030163 magnetization       8.9069844

 Broyden mixing:
  rms(total) = 0.32988E+01    rms(broyden)= 0.32980E+01
  rms(prec ) = 0.44621E+01
  weight for this iteration     100.00

 eigenvalues of (default mixing * dielectric matrix)
  average eigenvalue GAMMA=   0.5193
  1.7056  0.6519  0.3742  0.3742  0.2634  0.1502  0.1160

 Free energy of the ion-electron system (eV)
  ---------------------------------------------------
  alpha Z        PSCENC =      1225.64455605
  Ewald energy   TEWEN  =    -24046.47364062
  -Hartree energ DENC   =    -10008.56386157
  -exchange      EXHF   =         0.00000000
  -V(xc)+E(xc)   XCENC  =      1584.40383929
  PAW double counting   =     35111.03960818   -36473.17847095
  entropy T*S    EENTRO =        -0.05409177
  eigenvalues    EBANDS =     -1391.33346125
  atomic energy  EATOM  =     33626.89778075
  Solvation  Ediel_sol  =         0.00000000
  ---------------------------------------------------
  free energy    TOTEN  =      -371.61774189 eV

  energy without entropy =     -371.56365012  energy(sigma->0) =     -371.59069600


--------------------------------------------------------------------------------------------------------




--------------------------------------- Iteration      1(  13)  ---------------------------------------


    POTLOK:  cpu time    0.1549: real time    0.1553
    SETDIJ:  cpu time    0.0217: real time    0.0218
     EDDAV:  cpu time    2.1823: real time    2.1875
    CHARGE:  cpu time    0.1199: real time    0.1202
    MIXING:  cpu time    0.0044: real time    0.0044
    --------------------------------------------
      LOOP:  cpu time    2.4833: real time    2.4892

 eigenvalue-minimisations  :  1264
 total energy-change (2. order) : 0.2494915E+01  (-0.2227674E+01)
 number of electron     390.9999904 magnetization       8.2966817
 augmentation part      130.4267967 magnetization       6.0924039

 Broyden mixing:
  rms(total) = 0.14617E+01    rms(broyden)= 0.14603E+01
  rms(prec ) = 0.19925E+01
  weight for this iteration     100.00

 eigenvalues of (default mixing * dielectric matrix)
  average eigenvalue GAMMA=   0.5471
  1.9093  0.5946  0.5946  0.4408  0.4408  0.1422  0.1422  0.1128

 Free energy of the ion-electron system (eV)
  ---------------------------------------------------
  alpha Z        PSCENC =      1225.64455605
  Ewald energy   TEWEN  =    -24046.47364062
  -Hartree energ DENC   =    -10015.22994992
  -exchange      EXHF   =         0.00000000
  -V(xc)+E(xc)   XCENC  =      1584.60878048
  PAW double counting   =     35453.58902727   -36821.96205746
  entropy T*S    EENTRO =        -0.04214948
  eigenvalues    EBANDS =     -1376.15517403
  atomic energy  EATOM  =     33626.89778075
  Solvation  Ediel_sol  =         0.00000000
  ---------------------------------------------------
  free energy    TOTEN  =      -369.12282697 eV

  energy without entropy =     -369.08067749  energy(sigma->0) =     -369.10175223


--------------------------------------------------------------------------------------------------------




--------------------------------------- Iteration      1(  14)  ---------------------------------------


    POTLOK:  cpu time    0.1526: real time    0.1529
    SETDIJ:  cpu time    0.0219: real time    0.0219
     EDDAV:  cpu time    2.2254: real time    2.2307
    CHARGE:  cpu time    0.1195: real time    0.1197
    MIXING:  cpu time    0.0049: real time    0.0049
    --------------------------------------------
      LOOP:  cpu time    2.5242: real time    2.5302

 eigenvalue-minimisations  :  1312
 total energy-change (2. order) :-0.4048745E+00  (-0.8956542E+00)
 number of electron     390.9999906 magnetization       7.7507081
 augmentation part      130.2597793 magnetization       5.4382517

 Broyden mixing:
  rms(total) = 0.18843E+01    rms(broyden)= 0.18836E+01
  rms(prec ) = 0.26559E+01
  weight for this iteration     100.00

 eigenvalues of (default mixing * dielectric matrix)
  average eigenvalue GAMMA=   0.5236
  1.9417  0.6493  0.6493  0.4385  0.4385  0.2136  0.1533  0.1215  0.1063

 Free energy of the ion-electron system (eV)
  ---------------------------------------------------
  alpha Z        PSCENC =      1225.64455605
  Ewald energy   TEWEN  =    -24046.47364062
  -Hartree energ DENC   =    -10021.60777202
  -exchange      EXHF   =         0.00000000
  -V(xc)+E(xc)   XCENC  =      1584.87368540
  PAW double counting   =     35708.93158488   -37081.24561709
  entropy T*S    EENTRO =        -0.04012994
  eigenvalues    EBANDS =     -1366.50814888
  atomic energy  EATOM  =     33626.89778075
  Solvation  Ediel_sol  =         0.00000000
  ---------------------------------------------------
  free energy    TOTEN  =      -369.52770147 eV

  energy without entropy =     -369.48757153  energy(sigma->0) =     -369.50763650


--------------------------------------------------------------------------------------------------------




--------------------------------------- Iteration      1(  15)  ---------------------------------------


    POTLOK:  cpu time    0.1540: real time    0.1544
    SETDIJ:  cpu time    0.0217: real time    0.0218
     EDDAV:  cpu time    2.2381: real time    2.2434
    CHARGE:  cpu time    0.1144: real time    0.1146
    MIXING:  cpu time    0.0048: real time    0.0048
    --------------------------------------------
      LOOP:  cpu time    2.5329: real time    2.5389

 eigenvalue-minimisations  :  1360
 total energy-change (2. order) : 0.7160238E+00  (-0.9475173E+00)
 number of electron     390.9999903 magnetization       7.7737454
 augmentation part      130.1823175 magnetization       5.4239498

 Broyden mixing:
  rms(total) = 0.10600E+01    rms(broyden)= 0.10591E+01
  rms(prec ) = 0.14022E+01
  weight for this iteration     100.00

 eigenvalues of (default mixing * dielectric matrix)
  average eigenvalue GAMMA=   0.5286
  1.9499  0.7591  0.7591  0.4680  0.4680  0.3584  0.1626  0.1402  0.1168  0.1037

 Free energy of the ion-electron system (eV)
  ---------------------------------------------------
  alpha Z        PSCENC =      1225.64455605
  Ewald energy   TEWEN  =    -24046.47364062
  -Hartree energ DENC   =    -10024.95556985
  -exchange      EXHF   =         0.00000000
  -V(xc)+E(xc)   XCENC  =      1585.02150483
  PAW double counting   =     35805.09606961   -37178.74904589
  entropy T*S    EENTRO =        -0.06354781
  eigenvalues    EBANDS =     -1361.22978477
  atomic energy  EATOM  =     33626.89778075
  Solvation  Ediel_sol  =         0.00000000
  ---------------------------------------------------
  free energy    TOTEN  =      -368.81167769 eV

  energy without entropy =     -368.74812989  energy(sigma->0) =     -368.77990379


--------------------------------------------------------------------------------------------------------




--------------------------------------- Iteration      1(  16)  ---------------------------------------


    POTLOK:  cpu time    0.1467: real time    0.1470
    SETDIJ:  cpu time    0.0216: real time    0.0216
     EDDAV:  cpu time    2.1128: real time    2.1178
    CHARGE:  cpu time    0.1081: real time    0.1084
    MIXING:  cpu time    0.0049: real time    0.0049
    --------------------------------------------
      LOOP:  cpu time    2.3941: real time    2.3998

 eigenvalue-minimisations  :  1440
 total energy-change (2. order) :-0.1284988E+00  (-0.3604188E+00)
 number of electron     390.9999905 magnetization       7.9063362
 augmentation part      130.1029685 magnetization       5.2618325

 Broyden mixing:
  rms(total) = 0.10658E+01    rms(broyden)= 0.10654E+01
  rms(prec ) = 0.13687E+01
  weight for this iteration     100.00

 eigenvalues of (default mixing * dielectric matrix)
  average eigenvalue GAMMA=   0.5126
  1.9638  0.8270  0.8270  0.4768  0.4768  0.3340  0.2358  0.1441  0.1363  0.1190
  0.0977

 Free energy of the ion-electron system (eV)
  ---------------------------------------------------
  alpha Z        PSCENC =      1225.64455605
  Ewald energy   TEWEN  =    -24046.47364062
  -Hartree energ DENC   =    -10026.66519842
  -exchange      EXHF   =         0.00000000
  -V(xc)+E(xc)   XCENC  =      1585.13018372
  PAW double counting   =     35841.97461512   -37215.45189698
  entropy T*S    EENTRO =        -0.05028965
  eigenvalues    EBANDS =     -1359.94628644
  atomic energy  EATOM  =     33626.89778075
  Solvation  Ediel_sol  =         0.00000000
  ---------------------------------------------------
  free energy    TOTEN  =      -368.94017648 eV

  energy without entropy =     -368.88988683  energy(sigma->0) =     -368.91503166


--------------------------------------------------------------------------------------------------------




--------------------------------------- Iteration      1(  17)  ---------------------------------------


    POTLOK:  cpu time    0.1434: real time    0.1437
    SETDIJ:  cpu time    0.0212: real time    0.0212
     EDDAV:  cpu time    1.9611: real time    1.9658
    CHARGE:  cpu time    0.1066: real time    0.1069
    MIXING:  cpu time    0.0049: real time    0.0049
    --------------------------------------------
      LOOP:  cpu time    2.2372: real time    2.2425

 eigenvalue-minimisations  :  1408
 total energy-change (2. order) : 0.1326379E+00  (-0.2282291E+00)
 number of electron     390.9999904 magnetization       8.1624704
 augmentation part      130.0589369 magnetization       5.4550105

 Broyden mixing:
  rms(total) = 0.70130E+00    rms(broyden)= 0.70087E+00
  rms(prec ) = 0.85149E+00
  weight for this iteration     100.00

 eigenvalues of (default mixing * dielectric matrix)
  average eigenvalue GAMMA=   0.5040
  1.9559  0.8753  0.8753  0.4978  0.4978  0.3549  0.3549  0.1532  0.1532  0.1241
  0.1073  0.0979

 Free energy of the ion-electron system (eV)
  ---------------------------------------------------
  alpha Z        PSCENC =      1225.64455605
  Ewald energy   TEWEN  =    -24046.47364062
  -Hartree energ DENC   =    -10028.40281343
  -exchange      EXHF   =         0.00000000
  -V(xc)+E(xc)   XCENC  =      1585.23710081
  PAW double counting   =     35870.12003370   -37243.50472266
  entropy T*S    EENTRO =        -0.03498372
  eigenvalues    EBANDS =     -1358.29084946
  atomic energy  EATOM  =     33626.89778075
  Solvation  Ediel_sol  =         0.00000000
  ---------------------------------------------------
  free energy    TOTEN  =      -368.80753858 eV

  energy without entropy =     -368.77255486  energy(sigma->0) =     -368.79004672


--------------------------------------------------------------------------------------------------------




--------------------------------------- Iteration      1(  18)  ---------------------------------------


    POTLOK:  cpu time    0.1397: real time    0.1400
    SETDIJ:  cpu time    0.0209: real time    0.0209
     EDDAV:  cpu time    2.1596: real time    2.1648
    CHARGE:  cpu time    0.1223: real time    0.1226
    MIXING:  cpu time    0.0057: real time    0.0057
    --------------------------------------------
      LOOP:  cpu time    2.4483: real time    2.4541

 eigenvalue-minimisations  :  1408
 total energy-change (2. order) :-0.5993155E-01  (-0.8821533E-01)
 number of electron     390.9999905 magnetization       8.5854982
 augmentation part      130.0408387 magnetization       5.6669206

 Broyden mixing:
  rms(total) = 0.67243E+00    rms(broyden)= 0.67223E+00
  rms(prec ) = 0.80866E+00
  weight for this iteration     100.00

 eigenvalues of (default mixing * dielectric matrix)
  average eigenvalue GAMMA=   0.4999
  1.9368  0.9625  0.9625  0.5189  0.5189  0.3879  0.3879  0.1857  0.1732  0.1370
  0.1214  0.1101  0.0959

 Free energy of the ion-electron system (eV)
  ---------------------------------------------------
  alpha Z        PSCENC =      1225.64455605
  Ewald energy   TEWEN  =    -24046.47364062
  -Hartree energ DENC   =    -10029.45374816
  -exchange      EXHF   =         0.00000000
  -V(xc)+E(xc)   XCENC  =      1585.35979759
  PAW double counting   =     35887.85775114   -37260.80479095
  entropy T*S    EENTRO =        -0.00766762
  eigenvalues    EBANDS =     -1357.88750831
  atomic energy  EATOM  =     33626.89778075
  Solvation  Ediel_sol  =         0.00000000
  ---------------------------------------------------
  free energy    TOTEN  =      -368.86747014 eV

  energy without entropy =     -368.85980252  energy(sigma->0) =     -368.86363633


--------------------------------------------------------------------------------------------------------




--------------------------------------- Iteration      1(  19)  ---------------------------------------


    POTLOK:  cpu time    0.1549: real time    0.1552
    SETDIJ:  cpu time    0.0232: real time    0.0233
     EDDAV:  cpu time    2.2848: real time    2.2903
    CHARGE:  cpu time    0.1192: real time    0.1195
    MIXING:  cpu time    0.0056: real time    0.0056
    --------------------------------------------
      LOOP:  cpu time    2.5877: real time    2.5939

 eigenvalue-minimisations  :  1360
 total energy-change (2. order) :-0.1580543E-01  (-0.6635456E-01)
 number of electron     390.9999905 magnetization       8.8474669
 augmentation part      130.0324492 magnetization       6.0172308

 Broyden mixing:
  rms(total) = 0.50736E+00    rms(broyden)= 0.50721E+00
  rms(prec ) = 0.62485E+00
  weight for this iteration     100.00

 eigenvalues of (default mixing * dielectric matrix)
  average eigenvalue GAMMA=   0.5344
  1.9853  1.1143  1.1143  0.5862  0.5862  0.4587  0.4587  0.3895  0.1798  0.1505
  0.1353  0.1212  0.1033  0.0978

 Free energy of the ion-electron system (eV)
  ---------------------------------------------------
  alpha Z        PSCENC =      1225.64455605
  Ewald energy   TEWEN  =    -24046.47364062
  -Hartree energ DENC   =    -10030.59573712
  -exchange      EXHF   =         0.00000000
  -V(xc)+E(xc)   XCENC  =      1585.52816363
  PAW double counting   =     35911.74471105   -37284.22433076
  entropy T*S    EENTRO =        -0.00150106
  eigenvalues    EBANDS =     -1357.40327748
  atomic energy  EATOM  =     33626.89778075
  Solvation  Ediel_sol  =         0.00000000
  ---------------------------------------------------
  free energy    TOTEN  =      -368.88327556 eV

  energy without entropy =     -368.88177450  energy(sigma->0) =     -368.88252503


--------------------------------------------------------------------------------------------------------




--------------------------------------- Iteration      1(  20)  ---------------------------------------


    POTLOK:  cpu time    0.1523: real time    0.1527
    SETDIJ:  cpu time    0.0229: real time    0.0229
     EDDAV:  cpu time    2.3286: real time    2.3341
    CHARGE:  cpu time    0.1198: real time    0.1201
    MIXING:  cpu time    0.0059: real time    0.0059
    --------------------------------------------
      LOOP:  cpu time    2.6294: real time    2.6357

 eigenvalue-minimisations  :  1392
 total energy-change (2. order) :-0.1094057E+00  (-0.1105334E+00)
 number of electron     390.9999906 magnetization       8.9120545
 augmentation part      130.0016165 magnetization       6.1089606

 Broyden mixing:
  rms(total) = 0.64315E+00    rms(broyden)= 0.64296E+00
  rms(prec ) = 0.81736E+00
  weight for this iteration     100.00

 eigenvalues of (default mixing * dielectric matrix)
  average eigenvalue GAMMA=   0.5357
  2.0395  1.1830  1.1830  0.6604  0.6604  0.4666  0.4666  0.4281  0.2061  0.1577
  0.1429  0.1280  0.1153  0.1002  0.0977

 Free energy of the ion-electron system (eV)
  ---------------------------------------------------
  alpha Z        PSCENC =      1225.64455605
  Ewald energy   TEWEN  =    -24046.47364062
  -Hartree energ DENC   =    -10032.21085189
  -exchange      EXHF   =         0.00000000
  -V(xc)+E(xc)   XCENC  =      1585.74954289
  PAW double counting   =     35969.82230249   -37342.29790862
  entropy T*S    EENTRO =        -0.00598908
  eigenvalues    EBANDS =     -1356.11847320
  atomic energy  EATOM  =     33626.89778075
  Solvation  Ediel_sol  =         0.00000000
  ---------------------------------------------------
  free energy    TOTEN  =      -368.99268123 eV

  energy without entropy =     -368.98669215  energy(sigma->0) =     -368.98968669


--------------------------------------------------------------------------------------------------------




--------------------------------------- Iteration      1(  21)  ---------------------------------------


    POTLOK:  cpu time    0.1516: real time    0.1520
    SETDIJ:  cpu time    0.0224: real time    0.0225
     EDDAV:  cpu time    2.3529: real time    2.3585
    CHARGE:  cpu time    0.1209: real time    0.1212
    MIXING:  cpu time    0.0062: real time    0.0062
    --------------------------------------------
      LOOP:  cpu time    2.6540: real time    2.6603

 eigenvalue-minimisations  :  1408
 total energy-change (2. order) : 0.7084722E-01  (-0.4144878E-01)
 number of electron     390.9999905 magnetization       8.9199694
 augmentation part      130.0631222 magnetization       6.1951223

 Broyden mixing:
  rms(total) = 0.35719E+00    rms(broyden)= 0.35701E+00
  rms(prec ) = 0.41957E+00
  weight for this iteration     100.00

 eigenvalues of (default mixing * dielectric matrix)
  average eigenvalue GAMMA=   0.5490
  2.0882  1.2781  1.2781  0.6974  0.6974  0.5030  0.5030  0.4017  0.4017  0.1821
  0.1600  0.1460  0.1301  0.1185  0.0994  0.0994

 Free energy of the ion-electron system (eV)
  ---------------------------------------------------
  alpha Z        PSCENC =      1225.64455605
  Ewald energy   TEWEN  =    -24046.47364062
  -Hartree energ DENC   =    -10033.27291085
  -exchange      EXHF   =         0.00000000
  -V(xc)+E(xc)   XCENC  =      1585.94603910
  PAW double counting   =     36036.60026789   -37408.96548750
  entropy T*S    EENTRO =        -0.00197234
  eigenvalues    EBANDS =     -1355.29646650
  atomic energy  EATOM  =     33626.89778075
  Solvation  Ediel_sol  =         0.00000000
  ---------------------------------------------------
  free energy    TOTEN  =      -368.92183401 eV

  energy without entropy =     -368.91986167  energy(sigma->0) =     -368.92084784


--------------------------------------------------------------------------------------------------------




--------------------------------------- Iteration      1(  22)  ---------------------------------------


    POTLOK:  cpu time    0.1518: real time    0.1521
    SETDIJ:  cpu time    0.0219: real time    0.0220
     EDDAV:  cpu time    2.2824: real time    2.2878
    CHARGE:  cpu time    0.1152: real time    0.1154
    MIXING:  cpu time    0.0061: real time    0.0061
    --------------------------------------------
      LOOP:  cpu time    2.5772: real time    2.5834

 eigenvalue-minimisations  :  1424
 total energy-change (2. order) :-0.2406550E-01  (-0.2891332E-01)
 number of electron     390.9999905 magnetization       8.8909402
 augmentation part      130.0865789 magnetization       6.1389064

 Broyden mixing:
  rms(total) = 0.36902E+00    rms(broyden)= 0.36892E+00
  rms(prec ) = 0.45654E+00
  weight for this iteration     100.00

 eigenvalues of (default mixing * dielectric matrix)
  average eigenvalue GAMMA=   0.5454
  2.1213  1.3418  1.3418  0.7062  0.7062  0.5394  0.5394  0.4029  0.4029  0.2450
  0.1858  0.1543  0.1421  0.1276  0.1169  0.0992  0.0992

 Free energy of the ion-electron system (eV)
  ---------------------------------------------------
  alpha Z        PSCENC =      1225.64455605
  Ewald energy   TEWEN  =    -24046.47364062
  -Hartree energ DENC   =    -10033.84993780
  -exchange      EXHF   =         0.00000000
  -V(xc)+E(xc)   XCENC  =      1586.05029790
  PAW double counting   =     36064.06672202   -37436.12475525
  entropy T*S    EENTRO =        -0.00610178
  eigenvalues    EBANDS =     -1355.15082079
  atomic energy  EATOM  =     33626.89778075
  Solvation  Ediel_sol  =         0.00000000
  ---------------------------------------------------
  free energy    TOTEN  =      -368.94589952 eV

  energy without entropy =     -368.93979773  energy(sigma->0) =     -368.94284863


--------------------------------------------------------------------------------------------------------




--------------------------------------- Iteration      1(  23)  ---------------------------------------


    POTLOK:  cpu time    0.1461: real time    0.1465
    SETDIJ:  cpu time    0.0215: real time    0.0215
     EDDAV:  cpu time    2.0401: real time    2.0450
    CHARGE:  cpu time    0.1076: real time    0.1079
    MIXING:  cpu time    0.0061: real time    0.0061
    --------------------------------------------
      LOOP:  cpu time    2.3215: real time    2.3270

 eigenvalue-minimisations  :  1408
 total energy-change (2. order) : 0.3993967E-02  (-0.1747304E-01)
 number of electron     390.9999905 magnetization       8.9375124
 augmentation part      130.0881716 magnetization       6.2081944

 Broyden mixing:
  rms(total) = 0.28826E+00    rms(broyden)= 0.28816E+00
  rms(prec ) = 0.34209E+00
  weight for this iteration     100.00

 eigenvalues of (default mixing * dielectric matrix)
  average eigenvalue GAMMA=   0.5679
  2.0892  1.5041  1.5041  0.7676  0.7676  0.5895  0.5895  0.4456  0.4456  0.4385
  0.1915  0.1619  0.1423  0.1423  0.1277  0.1175  0.0992  0.0992

 Free energy of the ion-electron system (eV)
  ---------------------------------------------------
  alpha Z        PSCENC =      1225.64455605
  Ewald energy   TEWEN  =    -24046.47364062
  -Hartree energ DENC   =    -10034.60247415
  -exchange      EXHF   =         0.00000000
  -V(xc)+E(xc)   XCENC  =      1586.13595498
  PAW double counting   =     36088.98879991   -37461.03484534
  entropy T*S    EENTRO =        -0.00305421
  eigenvalues    EBANDS =     -1354.49498292
  atomic energy  EATOM  =     33626.89778075
  Solvation  Ediel_sol  =         0.00000000
  ---------------------------------------------------
  free energy    TOTEN  =      -368.94190555 eV

  energy without entropy =     -368.93885134  energy(sigma->0) =     -368.94037844


--------------------------------------------------------------------------------------------------------




--------------------------------------- Iteration      1(  24)  ---------------------------------------


    POTLOK:  cpu time    0.1416: real time    0.1419
    SETDIJ:  cpu time    0.0211: real time    0.0211
     EDDAV:  cpu time    1.9985: real time    2.0033
    CHARGE:  cpu time    0.1077: real time    0.1080
    MIXING:  cpu time    0.0064: real time    0.0064
    --------------------------------------------
      LOOP:  cpu time    2.2753: real time    2.2807

 eigenvalue-minimisations  :  1424
 total energy-change (2. order) :-0.8985813E-02  (-0.9496121E-02)
 number of electron     390.9999905 magnetization       8.9708349
 augmentation part      130.0871417 magnetization       6.2261580

 Broyden mixing:
  rms(total) = 0.24301E+00    rms(broyden)= 0.24295E+00
  rms(prec ) = 0.29286E+00
  weight for this iteration     100.00

 eigenvalues of (default mixing * dielectric matrix)
  average eigenvalue GAMMA=   0.5975
  2.1629  1.6694  1.6694  0.9300  0.9300  0.6439  0.6439  0.4508  0.4508  0.4328
  0.2933  0.1874  0.1619  0.1446  0.1390  0.1272  0.1172  0.0992  0.0992

 Free energy of the ion-electron system (eV)
  ---------------------------------------------------
  alpha Z        PSCENC =      1225.64455605
  Ewald energy   TEWEN  =    -24046.47364062
  -Hartree energ DENC   =    -10034.70620942
  -exchange      EXHF   =         0.00000000
  -V(xc)+E(xc)   XCENC  =      1586.18075090
  PAW double counting   =     36091.21657352   -37463.09701831
  entropy T*S    EENTRO =        -0.00581038
  eigenvalues    EBANDS =     -1354.60787385
  atomic energy  EATOM  =     33626.89778075
  Solvation  Ediel_sol  =         0.00000000
  ---------------------------------------------------
  free energy    TOTEN  =      -368.95089136 eV

  energy without entropy =     -368.94508098  energy(sigma->0) =     -368.94798617


--------------------------------------------------------------------------------------------------------




--------------------------------------- Iteration      1(  25)  ---------------------------------------


    POTLOK:  cpu time    0.1407: real time    0.1411
    SETDIJ:  cpu time    0.0208: real time    0.0209
     EDDAV:  cpu time    2.4018: real time    2.4076
    CHARGE:  cpu time    0.1221: real time    0.1224
    MIXING:  cpu time    0.0069: real time    0.0069
    --------------------------------------------
      LOOP:  cpu time    2.6924: real time    2.6988

 eigenvalue-minimisations  :  1488
 total energy-change (2. order) :-0.6955891E-02  (-0.1126143E-01)
 number of electron     390.9999905 magnetization       9.0039925
 augmentation part      130.0587752 magnetization       6.2645753

 Broyden mixing:
  rms(total) = 0.17337E+00    rms(broyden)= 0.17327E+00
  rms(prec ) = 0.22180E+00
  weight for this iteration     100.00

 eigenvalues of (default mixing * dielectric matrix)
  average eigenvalue GAMMA=   0.6222
  2.2262  1.7686  1.7686  1.0891  1.0891  0.6874  0.6874  0.4831  0.4831  0.4532
  0.4532  0.1986  0.1779  0.1591  0.0992  0.0992  0.1431  0.1357  0.1171  0.1259

 Free energy of the ion-electron system (eV)
  ---------------------------------------------------
  alpha Z        PSCENC =      1225.64455605
  Ewald energy   TEWEN  =    -24046.47364062
  -Hartree energ DENC   =    -10035.44981569
  -exchange      EXHF   =         0.00000000
  -V(xc)+E(xc)   XCENC  =      1586.29212002
  PAW double counting   =     36109.93530951   -37481.92519932
  entropy T*S    EENTRO =        -0.00699891
  eigenvalues    EBANDS =     -1353.87195904
  atomic energy  EATOM  =     33626.89778075
  Solvation  Ediel_sol  =         0.00000000
  ---------------------------------------------------
  free energy    TOTEN  =      -368.95784725 eV

  energy without entropy =     -368.95084834  energy(sigma->0) =     -368.95434780


--------------------------------------------------------------------------------------------------------




--------------------------------------- Iteration      1(  26)  ---------------------------------------


    POTLOK:  cpu time    0.1504: real time    0.1508
    SETDIJ:  cpu time    0.0227: real time    0.0228
     EDDAV:  cpu time    2.4122: real time    2.4180
    CHARGE:  cpu time    0.1208: real time    0.1211
    MIXING:  cpu time    0.0072: real time    0.0072
    --------------------------------------------
      LOOP:  cpu time    2.7133: real time    2.7198

 eigenvalue-minimisations  :  1456
 total energy-change (2. order) :-0.7954099E-02  (-0.1098669E-01)
 number of electron     390.9999905 magnetization       8.9706251
 augmentation part      130.0932707 magnetization       6.2479053

 Broyden mixing:
  rms(total) = 0.17833E+00    rms(broyden)= 0.17826E+00
  rms(prec ) = 0.23182E+00
  weight for this iteration     100.00

 eigenvalues of (default mixing * dielectric matrix)
  average eigenvalue GAMMA=   0.6102
  2.4600  1.6399  1.6399  1.0790  1.0790  0.7208  0.7208  0.5330  0.5330  0.4471
  0.4471  0.2738  0.1940  0.1707  0.1570  0.0992  0.0992  0.1172  0.1433  0.1258
  0.1348

 Free energy of the ion-electron system (eV)
  ---------------------------------------------------
  alpha Z        PSCENC =      1225.64455605
  Ewald energy   TEWEN  =    -24046.47364062
  -Hartree energ DENC   =    -10034.81346304
  -exchange      EXHF   =         0.00000000
  -V(xc)+E(xc)   XCENC  =      1586.32367964
  PAW double counting   =     36118.47163851   -37490.20556092
  entropy T*S    EENTRO =        -0.00497243
  eigenvalues    EBANDS =     -1354.80581929
  atomic energy  EATOM  =     33626.89778075
  Solvation  Ediel_sol  =         0.00000000
  ---------------------------------------------------
  free energy    TOTEN  =      -368.96580135 eV

  energy without entropy =     -368.96082893  energy(sigma->0) =     -368.96331514


--------------------------------------------------------------------------------------------------------




--------------------------------------- Iteration      1(  27)  ---------------------------------------


[...]
   0.144E+02 0.134E+02 -.254E+02   -.150E+02 -.136E+02 0.255E+02   0.623E+00 0.173E+00 -.598E-01   -.358E-01 0.125E-01 -.748E-02
   0.361E+01 -.158E+02 0.572E+02   -.320E+01 0.158E+02 -.578E+02   -.434E+00 -.841E-01 0.591E+00   0.239E-01 0.851E-02 0.396E-02
   -.187E+02 -.161E+02 0.658E+02   0.195E+02 0.162E+02 -.662E+02   -.761E+00 -.773E-01 0.318E+00   -.107E-01 0.109E-01 0.400E-02
   -.400E+02 0.147E+02 0.239E+02   0.408E+02 -.148E+02 -.241E+02   -.791E+00 0.623E-01 0.208E+00   -.118E-01 -.918E-02 0.178E-03
   -.721E+01 0.170E+02 0.684E+02   0.710E+01 -.171E+02 -.687E+02   0.868E-01 0.985E-01 0.292E+00   0.252E-01 -.608E-02 0.334E-02
   0.472E+02 -.138E+02 0.595E+01   -.474E+02 0.139E+02 -.622E+01   0.180E+00 -.141E+00 0.279E+00   -.349E-01 -.114E-01 -.248E-02
   -.152E+02 0.245E+01 0.204E+02   0.148E+02 -.246E+01 -.208E+02   0.385E+00 0.338E-02 0.431E+00   0.385E-01 0.120E-01 0.136E-02
   0.183E+02 -.235E+01 0.517E+02   -.184E+02 0.241E+01 -.525E+02   0.258E-01 -.440E-01 0.782E+00   0.393E-01 -.979E-02 0.295E-02
   0.157E+02 0.202E+01 -.195E+02   -.154E+02 -.203E+01 0.200E+02   -.269E+00 0.218E-01 -.464E+00   0.455E-02 -.694E-02 0.144E-02
   0.278E-01 -.161E+02 -.575E+02   -.408E+00 0.162E+02 0.580E+02   0.399E+00 -.541E-01 -.554E+00   -.228E-01 -.906E-02 -.749E-02
   0.185E+02 -.169E+02 -.642E+02   -.193E+02 0.169E+02 0.645E+02   0.761E+00 0.108E-01 -.331E+00   0.196E-01 -.987E-02 0.102E-01
   0.392E+02 0.152E+02 -.225E+02   -.400E+02 -.152E+02 0.227E+02   0.809E+00 -.201E-01 -.235E+00   0.217E-01 0.591E-02 0.879E-02
   0.841E+01 0.178E+02 -.679E+02   -.837E+01 -.178E+02 0.683E+02   -.201E-01 0.650E-01 -.329E+00   -.253E-01 0.786E-02 -.556E-02
   -.170E+02 -.205E+01 -.527E+02   0.170E+02 0.208E+01 0.535E+02   0.637E-02 -.370E-01 -.800E+00   0.548E-02 0.653E-02 0.102E-02
   -.166E+02 0.137E+02 0.254E+02   0.174E+02 -.139E+02 -.254E+02   -.803E+00 0.144E+00 0.400E-01   -.195E-01 0.106E-02 -.108E-01
   -.488E+02 -.142E+02 -.796E+01   0.492E+02 0.143E+02 0.828E+01   -.337E+00 -.116E+00 -.308E+00   -.198E-01 0.308E-02 -.112E-01
   0.164E+02 -.233E+01 0.251E+03   -.196E+02 0.196E+01 -.263E+03   0.325E+01 0.355E+00 0.126E+02   -.953E-02 0.478E-02 -.240E-01
   -.218E+02 0.518E+01 -.282E+03   0.268E+02 -.523E+01 0.295E+03   -.505E+01 0.565E-01 -.132E+02   0.125E-01 -.612E-02 0.229E-01
   -.800E+01 -.276E+01 -.252E+03   0.106E+02 0.261E+01 0.264E+03   -.263E+01 0.128E+00 -.118E+02   0.233E-01 0.155E-01 0.320E-03
   0.185E+02 0.406E+01 0.284E+03   -.233E+02 -.415E+01 -.298E+03   0.477E+01 0.777E-01 0.131E+02   -.414E-02 0.113E-01 0.264E-01
   0.170E+02 -.250E+01 0.265E+03   -.217E+02 0.276E+01 -.277E+03   0.470E+01 -.241E+00 0.123E+02   -.115E-01 -.181E-01 -.434E-01
   -.344E+02 -.313E+02 -.309E+03   0.386E+02 0.333E+02 0.324E+03   -.431E+01 -.196E+01 -.152E+02   0.119E-01 -.184E-01 0.279E-01
   -.525E+02 0.305E+02 -.300E+03   0.580E+02 -.324E+02 0.316E+03   -.549E+01 0.183E+01 -.162E+02   0.148E-01 0.163E-01 0.237E-01
   -.315E+02 0.257E+01 0.287E+03   0.308E+02 -.279E+01 -.301E+03   0.713E+00 0.211E+00 0.141E+02   -.422E-02 0.154E-01 -.420E-01
   -.157E+02 -.747E+00 -.266E+03   0.206E+02 0.927E+00 0.278E+03   -.495E+01 -.199E+00 -.118E+02   -.142E-01 0.138E-01 -.227E-01
   0.354E+02 -.301E+02 0.309E+03   -.397E+02 0.322E+02 -.324E+03   0.433E+01 -.208E+01 0.154E+02   -.197E-01 0.135E-01 0.249E-01
   0.470E+02 0.286E+02 0.301E+03   -.524E+02 -.305E+02 -.317E+03   0.545E+01 0.186E+01 0.159E+02   -.157E-01 -.136E-01 0.181E-01
   0.287E+02 0.179E+01 -.289E+03   -.277E+02 -.220E+01 0.303E+03   -.104E+01 0.431E+00 -.139E+02   -.232E-01 -.148E-01 -.110E-01
   0.737E+01 0.229E+01 0.249E+03   -.994E+01 -.177E+01 -.262E+03   0.257E+01 -.518E+00 0.127E+02   -.137E-03 -.255E-02 -.269E-01
   0.202E+02 -.532E+01 -.304E+03   -.197E+02 0.542E+01 0.319E+03   -.491E+00 -.117E+00 -.152E+02   0.528E-02 0.753E-02 0.256E-01
   -.741E+01 0.205E+01 -.249E+03   0.986E+01 -.166E+01 0.261E+03   -.247E+01 -.366E+00 -.120E+02   0.298E-01 -.178E-01 -.441E-02
   -.175E+02 -.440E+01 0.306E+03   0.167E+02 0.469E+01 -.321E+03   0.789E+00 -.287E+00 0.151E+02   -.861E-02 -.115E-01 0.320E-01
   0.384E+02 0.353E+02 0.288E+03   -.432E+02 -.373E+02 -.304E+03   0.481E+01 0.193E+01 0.152E+02   0.115E-01 -.592E-02 -.178E-01
   -.234E+02 -.214E+01 -.293E+03   0.281E+02 0.168E+01 0.306E+03   -.466E+01 0.457E+00 -.127E+02   -.116E-01 0.296E-02 0.160E-01
   -.426E+02 0.341E+02 -.288E+03   0.476E+02 -.361E+02 0.304E+03   -.490E+01 0.199E+01 -.153E+02   -.195E-01 0.126E-01 -.293E-01
   0.240E+02 -.183E+01 0.292E+03   -.286E+02 0.148E+01 -.304E+03   0.457E+01 0.326E+00 0.120E+02   -.526E-02 0.168E-01 0.615E-02
   0.385E+02 -.661E+00 0.261E+03   -.428E+02 0.103E+01 -.273E+03   0.432E+01 -.376E+00 0.125E+02   0.265E-02 0.655E-02 -.171E-01
   -.521E+02 -.283E+02 -.316E+03   0.579E+02 0.303E+02 0.332E+03   -.579E+01 -.197E+01 -.163E+02   0.840E-03 0.662E-02 0.302E-01
   -.333E+02 0.302E+02 -.320E+03   0.371E+02 -.326E+02 0.336E+03   -.376E+01 0.236E+01 -.160E+02   -.638E-02 -.663E-02 0.298E-01
   0.548E+02 0.533E-01 0.256E+03   -.593E+02 -.181E+00 -.269E+03   0.453E+01 0.136E+00 0.129E+02   -.722E-03 -.745E-02 -.133E-01
   -.407E+02 -.235E+01 -.260E+03   0.452E+02 0.267E+01 0.273E+03   -.455E+01 -.324E+00 -.127E+02   -.147E-02 0.851E-03 -.388E-01
   0.482E+02 -.298E+02 0.318E+03   -.538E+02 0.317E+02 -.334E+03   0.554E+01 -.193E+01 0.160E+02   0.253E-01 -.117E-03 0.395E-01
   0.369E+02 0.311E+02 0.321E+03   -.410E+02 -.333E+02 -.337E+03   0.413E+01 0.226E+01 0.159E+02   0.344E-01 0.199E-03 0.302E-01
   -.494E+02 0.163E+01 -.256E+03   0.541E+02 -.184E+01 0.268E+03   -.476E+01 0.209E+00 -.122E+02   -.443E-02 -.121E-02 -.337E-01
   0.425E+02 -.339E+02 0.282E+03   -.472E+02 0.356E+02 -.298E+03   0.476E+01 -.171E+01 0.161E+02   0.106E-01 0.825E-02 -.230E-01
   0.916E+01 0.130E+01 -.312E+03   -.835E+01 -.736E+00 0.327E+03   -.835E+00 -.559E+00 -.147E+02   -.851E-02 -.491E-02 0.184E-01
   -.416E+02 -.329E+02 -.283E+03   0.459E+02 0.347E+02 0.299E+03   -.432E+01 -.182E+01 -.160E+02   -.986E-02 -.133E-01 -.353E-01
   -.139E+02 0.209E+01 0.312E+03   0.137E+02 -.181E+01 -.326E+03   0.205E+00 -.258E+00 0.139E+02   -.161E-01 -.181E-01 0.141E-01
 -----------------------------------------------------------------------------------------------
   0.756E+00 0.349E-01 -.365E+00   0.391E-13 0.593E-13 -.455E-12   -.729E+00 -.562E-01 0.387E+00   -.934E-02 0.866E-03 -.205E-01
 
 
 POSITION                                       TOTAL-FORCE (eV/Angst)
 -----------------------------------------------------------------------------------
      1.51400      5.52584      2.37313        -0.002296     -0.000828      0.000800
      4.81806      0.01367      7.04764        -0.004340      0.005629      0.002458
      4.13357      1.37688      2.36134        -0.003779      0.003554      0.001128
      2.26749      1.43676      7.05657        -0.016156      0.001177      0.001394
      2.27953      4.12999      7.05312        -0.001144     -0.001183      0.000294
      4.14146      4.18047      2.35418        -0.011674     -0.000006     -0.002538
      1.51197      2.81051      2.37696        -0.009319     -0.000400     -0.000948
      6.75714      5.53379      2.35548        -0.003693      0.002236     -0.000034
     -0.25909      5.55311      7.05420         0.002927     -0.002518     -0.004602
     -0.91208      1.37799      2.33712         0.008672     -0.016172      0.007599
     -2.77472      1.43688      7.03550         0.003875     -0.000934      0.001414
      7.33806      4.11471      7.07664         0.014427     -0.002921      0.003193
      6.78368      2.80626      2.34334         0.011262      0.000916     -0.002723
      0.00892      5.55610      0.03877         0.000419      0.000286     -0.000284
     -1.16699      1.39468      9.38691         0.003970      0.001138     -0.004166
      3.88986      1.39597      9.34831         0.003764      0.000779      0.003695
      3.90202      4.16833      9.37397         0.002950      0.000103      0.002671
     -1.16576      4.16835      9.38224         0.003711      0.001072     -0.004046
     10.11990      2.78331      0.05061         0.000538      0.001318      0.004431
      5.07529      5.55603      0.06018         0.005170      0.000011     -0.003208
      5.06479      2.77574      0.03684         0.004728      0.001243     -0.002591
      3.19579      5.55592      4.66800         0.000671      0.000112     -0.002222
      5.73366      1.39283      4.71447        -0.003695     -0.000838      0.001500
      0.67534      1.39384      4.75558        -0.000344     -0.000951      0.000355
      0.66185      4.16562      4.73266         0.000265     -0.001158     -0.000008
      5.72962      4.16734      4.72038        -0.004484      0.000398      0.002121
      3.20689      2.77659      4.69160         0.002121     -0.000698     -0.002474
      8.26006      5.55603      4.68120        -0.004969      0.000033      0.004354
      8.27567      2.78480      4.70463        -0.007226      0.001030      0.004528
      5.06268      0.01379      3.65747         0.020923     -0.003939     -0.001947
      1.36240      5.53972      5.76143        -0.014211     -0.000591      0.001953
      3.24513      0.00565      1.05638         0.011138     -0.001110     -0.015496
      3.17089      5.54395      8.35641        -0.001973     -0.000776      0.006593
      7.61055      1.40436      3.64762        -0.007718      0.002367      0.003339
     -1.14270      1.36702      5.67325        -0.007218      0.003941     -0.001522
     -1.22080      4.19680      5.69120        -0.005803      0.000182     -0.002128
      7.44577      4.15974      3.73889        -0.011672      0.000231      0.005265
      0.69175      1.40360      1.06427         0.002770     -0.005477     -0.000358
      5.71358      1.36241      8.42631        -0.002023     -0.004185      0.002273
      5.74583      4.19551      8.42176         0.000991      0.004797      0.003558
      0.81369      4.16576      0.98411        -0.001384      0.007053      0.000435
      4.97644      2.76730      3.71398        -0.006687     -0.000938      0.002741
      1.50137      2.79811      5.67811         0.009004     -0.001178     -0.004574
      3.28404      2.77200      1.02078         0.001088      0.002677     -0.008756
      3.07206      2.79572      8.42485         0.005079      0.000446      0.003301
     -0.04461      0.02116      3.73554        -0.012019     -0.001744      0.001015
      6.45739      0.01569      5.72756         0.000558      0.000187      0.000874
      8.30726      0.02646      0.99299         0.002263     -0.001484      0.002321
     -1.88971      0.01394      8.36887         0.001337     -0.000414      0.004481
      2.44308      1.39055      3.67438         0.004631     -0.001891     -0.001490
      3.86596      1.36033      5.69183        -0.002730      0.001315     -0.006369
      3.96934      4.20009      5.65968         0.003242      0.001092     -0.007849
      2.52970      4.15859      3.64846         0.002756      0.000606     -0.000972
      5.81445      1.39381      1.05516         0.001651      0.002285     -0.003284
      0.66560      1.36442      8.42370         0.006047      0.003269     -0.001557
      0.61135      4.19563      8.44658         0.012509     -0.002795     -0.003021
      5.78037      4.15529      1.07269        -0.000283     -0.001501     -0.003544
     -0.04970      2.76404      3.75159         0.015630     -0.002868     -0.004905
      6.53249      2.76053      5.67003        -0.029498      0.002582      0.011963
      8.33825      2.76036      0.96947         0.002822      0.002263      0.001234
     -1.99541      2.77071      8.43897         0.002429      0.003171      0.004335
 -----------------------------------------------------------------------------------
    total drift:                                0.017704     -0.020491      0.001487


--------------------------------------------------------------------------------------------------------



  FREE ENERGIE OF THE ION-ELECTRON SYSTEM (eV)
  ---------------------------------------------------
  free  energy   TOTEN  =      -368.9609891248 eV

  energy  without entropy=     -368.9548312760  energy(sigma->0) =     -368.95791020
 
 d Force = 0.1875432E-03[ 0.184E-03, 0.191E-03]  d Energy = 0.1801530E-03 0.739E-05
 d Force =-0.1959573E+00[-0.196E+00,-0.195E+00]  d Ewald  =-0.3274271E+00 0.131E+00


--------------------------------------------------------------------------------------------------------


    POTLOK:  cpu time    0.1782: real time    0.1786


--------------------------------------------------------------------------------------------------------


 Quasi-Newton relaxation of ions (Broydens 2nd method)
  g(Force)  = 0.270E-03   g(Stress)= 0.740E-05

 retain information from N=  1 steps
 eigenvalues of (default step * inverse Hessian matrix)
  average eigenvalue of G=   0.0655
 eigenvalue spectrum of G is  0.0655


--------------------------------------------------------------------------------------------------------


     LOOP+:  cpu time   14.5025: real time   14.6006
    4ORBIT:  cpu time    0.0000: real time    0.0000

volume of typ            1:    19.2 %

volume of typ            2:    19.3 %

volume of typ            3:     9.9 %
 
total charge     
 
# of ion       s       p       d       tot
------------------------------------------
    1        2.082   0.254   0.095   2.431
    2        2.077   0.238   0.089   2.404
    3        2.081   0.259   0.095   2.435
    4        2.081   0.251   0.095   2.426
    5        2.077   0.244   0.091   2.412
    6        2.086   0.268   0.102   2.456
    7        2.083   0.251   0.094   2.427
    8        2.085   0.259   0.098   2.442
    9        2.080   0.241   0.091   2.412
   10        2.083   0.256   0.097   2.436
   11        2.077   0.248   0.090   2.415
   12        2.080   0.251   0.093   2.425
   13        2.082   0.252   0.094   2.428
   14        0.272   0.364   7.874   8.510
   15        0.263   0.345   7.870   8.479
   16        0.272   0.363   7.868   8.503
   17        0.265   0.348   7.867   8.480
   18        0.267   0.357   7.865   8.489
   19        0.272   0.369   7.857   8.498
   20        0.271   0.361   7.881   8.514
   21        0.271   0.366   7.866   8.503
   22        0.272   0.359   7.893   8.524
   23        0.266   0.348   7.884   8.498
   24        0.272   0.364   7.867   8.503
   25        0.265   0.345   7.879   8.488
   26        0.269   0.362   7.860   8.491
   27        0.272   0.368   7.864   8.505
   28        0.273   0.366   7.870   8.509
   29        0.271   0.366   7.866   8.503
   30        1.256   2.795   0.006   4.057
   31        1.254   2.800   0.006   4.060
   32        1.256   2.795   0.006   4.057
   33        1.255   2.798   0.006   4.059
   34        1.255   2.802   0.006   4.063
   35        1.264   2.772   0.006   4.043
   36        1.263   2.777   0.007   4.047
   37        1.260   2.789   0.006   4.055
   38        1.254   2.804   0.006   4.064
   39        1.264   2.774   0.006   4.044
   40        1.263   2.778   0.006   4.047
   41        1.260   2.789   0.006   4.055
   42        1.258   2.792   0.006   4.056
   43        1.258   2.789   0.007   4.054
   44        1.257   2.796   0.006   4.059
   45        1.259   2.789   0.006   4.054
   46        1.261   2.781   0.006   4.048
   47        1.258   2.791   0.006   4.055
   48        1.262   2.781   0.006   4.049
   49        1.258   2.793   0.006   4.057
   50        1.256   2.795   0.006   4.057
   51        1.263   2.776   0.007   4.046
   52        1.263   2.775   0.007   4.045
   53        1.254   2.802   0.006   4.062
   54        1.256   2.796   0.006   4.058
   55        1.262   2.779   0.006   4.048
   56        1.263   2.777   0.007   4.046
   57        1.255   2.802   0.006   4.062
   58        1.262   2.782   0.007   4.050
   59        1.263   2.779   0.006   4.048
   60        1.261   2.783   0.007   4.051
   61        1.262   2.782   0.006   4.051
--------------------------------------------------
tot          71.66   98.24  127.35  297.25
 
magnetization (x)
 
# of ion       s       p       d       tot
------------------------------------------
    1        0.003   0.010   0.000   0.014
    2        0.004   0.010   0.000   0.013
    3        0.005   0.014  -0.000   0.019
    4        0.001   0.005  -0.000   0.005
    5        0.004   0.008  -0.000   0.012
    6        0.003   0.010   0.001   0.014
    7        0.001   0.005  -0.001   0.005
    8        0.002   0.009   0.000   0.012
    9        0.002   0.009   0.000   0.011
   10        0.001   0.005  -0.000   0.006
   11        0.005   0.015  -0.000   0.020
   12        0.003   0.011   0.001   0.015
   13        0.003   0.007  -0.001   0.009
   14        0.003  -0.000   0.508   0.510
   15        0.004  -0.000   0.740   0.744
   16        0.003  -0.000   0.576   0.579
   17        0.004  -0.000   0.644   0.648
   18        0.000  -0.001   0.562   0.561
   19       -0.000  -0.001   0.283   0.282
   20        0.004  -0.001   0.553   0.556
   21        0.000  -0.001   0.364   0.363
   22        0.005  -0.000   0.510   0.515
   23       -0.005  -0.001  -0.492  -0.498
   24        0.003  -0.000   0.553   0.556
   25        0.004  -0.000   0.589   0.593
   26        0.000  -0.000   0.462   0.462
   27        0.000   0.000   0.287   0.287
   28        0.003   0.000   0.482   0.485
   29       -0.001  -0.000  -0.090  -0.091
   30        0.006   0.067   0.000   0.074
   31        0.006   0.071   0.000   0.078
   32        0.010   0.085   0.000   0.095
   33        0.007   0.064   0.000   0.071
   34       -0.005  -0.070  -0.000  -0.075
   35        0.006   0.071   0.000   0.077
   36        0.005   0.087   0.000   0.092
   37        0.005   0.047   0.000   0.053
   38        0.007   0.072   0.000   0.079
   39        0.008   0.079   0.000   0.087
   40        0.007   0.086   0.000   0.093
   41        0.007   0.058   0.000   0.065
   42        0.005   0.017   0.000   0.022
   43        0.005   0.043   0.000   0.049
   44        0.009   0.041   0.000   0.050
   45        0.006   0.051   0.000   0.057
   46        0.007   0.075   0.000   0.082
   47        0.007   0.050   0.000   0.058
   48        0.007   0.070   0.000   0.078
   49        0.010   0.068   0.000   0.078
   50        0.007   0.063   0.000   0.071
   51       -0.005  -0.084  -0.000  -0.089
   52        0.006   0.046   0.000   0.053
   53        0.006   0.075   0.000   0.081
   54        0.008   0.062   0.000   0.070
   55        0.008   0.090   0.000   0.098
   56        0.007   0.046   0.000   0.053
   57        0.007   0.073   0.000   0.080
   58        0.001  -0.011   0.000  -0.010
   59        0.001  -0.017   0.000  -0.015
   60        0.005   0.025   0.000   0.030
   61        0.009   0.050   0.000   0.059
--------------------------------------------------
tot           0.25    1.66    6.54    8.45
 

 total amount of memory used by VASP MPI-rank0   100452. kBytes
=======================================================================

   base      :      30000. kBytes
   nonlr-proj:      24497. kBytes
   fftplans  :       6149. kBytes
   grid      :      35266. kBytes
   one-center:        948. kBytes
   wavefun   :       3592. kBytes
 
  
  
 General timing and accounting informations for this job:
 ========================================================
  
                  Total CPU time used (sec):      476.769
                            User time (sec):      472.408
                          System time (sec):        4.361
                         Elapsed time (sec):      484.579
  
                   Maximum memory used (kb):      146484.
                   Average memory used (kb):           0.
  
                          Minor page faults:        36598
                          Major page faults:           42
                 Voluntary context switches:         1384
