 vasp.5.4.4.18Apr17-6-g9f103f2a35 (build May 12 2020 05:39:39) gamma-only       
  
 MD_VERSION_INFO: Compiled 2020-05-12T12:39:39-UTC in devlin.sd.materialsdesign.
 com:/home/medea2/data/build/wwolf/vasp-gpu5.4.4/13047/x86_64/src/src/build/gam 
 from svn 13047
 
 This VASP executable licensed from Materials Design, Inc.
 
 executed on                        Lin64 date 2023.03.07  06:00:33
 running on   16 total cores
 distrk:  each k-point on   16 cores,    1 groups
 distr:  one band on NCORES_PER_BAND=   1 cores,   16 groups


--------------------------------------------------------------------------------------------------------


 INCAR:
 POTCAR:    PAW_PBE Li_sv 10Sep2004               
 POTCAR:    PAW_PBE Ni 02Aug2007                  
 POTCAR:    PAW_PBE O 08Apr2002                   

 ----------------------------------------------------------------------------- 
|                                                                             |
|           W    W    AA    RRRRR   N    N  II  N    N   GGGG   !!!           |
|           W    W   A  A   R    R  NN   N  II  NN   N  G    G  !!!           |
|           W    W  A    A  R    R  N N  N  II  N N  N  G       !!!           |
|           W WW W  AAAAAA  RRRRR   N  N N  II  N  N N  G  GGG   !            |
|           WW  WW  A    A  R   R   N   NN  II  N   NN  G    G                |
|           W    W  A    A  R    R  N    N  II  N    N   GGGG   !!!           |
|                                                                             |
|      For optimal performance we recommend to set                            |
|        NCORE= 4 - approx SQRT( number of cores)                             |
|      NCORE specifies how many cores store one orbital (NPAR=cpu/NCORE).     |
|      This setting can  greatly improve the performance of VASP for DFT.     |
|      The default,   NCORE=1            might be grossly inefficient         |
|      on modern multi-core architectures or massively parallel machines.     |
|      Do your own testing !!!!                                               |
|      Unfortunately you need to use the default for GW and RPA calculations. |
|      (for HF NCORE is supported but not extensively tested yet)             |
|                                                                             |
 ----------------------------------------------------------------------------- 

 POTCAR:    PAW_PBE Li_sv 10Sep2004               
  local pseudopotential read in
  atomic valenz-charges read in
  non local Contribution for L=           0  read in
    real space projection operators read in
  non local Contribution for L=           0  read in
    real space projection operators read in
  non local Contribution for L=           1  read in
    real space projection operators read in
    PAW grid and wavefunctions read in
 
   number of l-projection  operators is LMAX  =           3
   number of lm-projection operators is LMMAX =           5
 
 POTCAR:    PAW_PBE Ni 02Aug2007                  
  local pseudopotential read in
  partial core-charges read in
  partial kinetic energy density read in
  atomic valenz-charges read in
  non local Contribution for L=           2  read in
    real space projection operators read in
  non local Contribution for L=           2  read in
    real space projection operators read in
  non local Contribution for L=           0  read in
    real space projection operators read in
  non local Contribution for L=           0  read in
    real space projection operators read in
  non local Contribution for L=           1  read in
    real space projection operators read in
  non local Contribution for L=           1  read in
    real space projection operators read in
    PAW grid and wavefunctions read in
 
   number of l-projection  operators is LMAX  =           6
   number of lm-projection operators is LMMAX =          18
 
 POTCAR:    PAW_PBE O 08Apr2002                   
  local pseudopotential read in
  partial core-charges read in
  partial kinetic energy density read in
  kinetic energy density of atom read in
  atomic valenz-charges read in
  non local Contribution for L=           0  read in
    real space projection operators read in
  non local Contribution for L=           0  read in
    real space projection operators read in
  non local Contribution for L=           1  read in
    real space projection operators read in
  non local Contribution for L=           1  read in
    real space projection operators read in
    PAW grid and wavefunctions read in
 
   number of l-projection  operators is LMAX  =           4
   number of lm-projection operators is LMMAX =           8
 
 Optimization of the real space projectors (new method)

 maximal supplied QI-value         = 22.11
 optimisation between [QCUT,QGAM] = [ 11.28, 22.77] = [ 35.61,145.23] Ry 
 Optimized for a Real-space Cutoff    1.10 Angstroem

   l    n(q)    QCUT    max X(q) W(low)/X(q) W(high)/X(q)  e(spline) 
   0      7    11.276    10.506    0.54E-04    0.58E-04    0.16E-07
   0      7    11.276     8.367    0.11E-03    0.14E-03    0.35E-07
   1      7    11.276     8.983    0.23E-03    0.43E-03    0.86E-07
 Optimization of the real space projectors (new method)

 maximal supplied QI-value         = 16.25
 optimisation between [QCUT,QGAM] = [ 11.38, 22.75] = [ 36.24,144.96] Ry 
 Optimized for a Real-space Cutoff    1.47 Angstroem

   l    n(q)    QCUT    max X(q) W(low)/X(q) W(high)/X(q)  e(spline) 
   2      9    11.376    60.317    0.17E-03    0.16E-04    0.16E-06
   2      9    11.376    55.921    0.17E-03    0.16E-04    0.17E-06
   0     10    11.376    51.690    0.45E-04    0.60E-04    0.21E-06
   0     10    11.376    30.015    0.37E-04    0.55E-04    0.19E-06
   1     10    11.376    18.849    0.83E-04    0.11E-03    0.92E-07
   1     10    11.376    14.624    0.69E-04    0.92E-04    0.82E-07
 Optimization of the real space projectors (new method)

 maximal supplied QI-value         = 24.76
 optimisation between [QCUT,QGAM] = [ 11.39, 22.77] = [ 36.31,145.25] Ry 
 Optimized for a Real-space Cutoff    1.10 Angstroem

   l    n(q)    QCUT    max X(q) W(low)/X(q) W(high)/X(q)  e(spline) 
   0      7    11.387    20.381    0.22E-03    0.48E-03    0.18E-06
   0      7    11.387    15.268    0.22E-03    0.52E-03    0.19E-06
   1      7    11.387     5.964    0.22E-03    0.73E-03    0.24E-06
   1      7    11.387     5.382    0.19E-03    0.60E-03    0.21E-06

 ----------------------------------------------------------------------------- 
|                                                                             |
|  ADVICE TO THIS USER RUNNING 'VASP/VAMP'   (HEAR YOUR MASTER'S VOICE ...):  |
|                                                                             |
|      You enforced a specific xc-type in the INCAR file,                     |
|      a different type was found on the POTCAR file                          |
|          I HOPE YOU KNOW, WHAT YOU ARE  DOING                               |
|                                                                             |
 ----------------------------------------------------------------------------- 

  PAW_PBE Li_sv 10Sep2004               :
 energy of atom  1       EATOM= -202.7858
 kinetic energy error for atom=    0.0143 (will be added to EATOM!!)
  PAW_PBE Ni 02Aug2007                  :
 energy of atom  2       EATOM=-1077.6739
 kinetic energy error for atom=    0.0030 (will be added to EATOM!!)
  PAW_PBE O 08Apr2002                   :
 energy of atom  3       EATOM= -432.3788
 kinetic energy error for atom=    0.0224 (will be added to EATOM!!)
 
 
 POSCAR: ce17535_1                               
  positions in direct lattice
  No initial velocities read in
 exchange correlation table for  LEXCH =       14
   RHO(1)=    0.500       N(1)  =     2000
   RHO(2)=  100.500       N(2)  =     4000
 


--------------------------------------------------------------------------------------------------------


 ion  position               nearest neighbor table
   1  0.500  0.249  0.751-  48 2.12  30 2.14  22 2.15  25 2.15  45 2.16  42 2.16
   2  0.000  0.999  1.000-  27 1.85  28 1.85  26 1.85  29 1.85  37 1.88  36 1.89   7 2.78   7 2.78
                             3 2.79   6 2.79   5 2.79   4 2.79
   3  0.250  0.000  0.250-  37 1.84  20 1.84  32 1.84  49 1.84  43 1.88  26 1.88   6 2.78   6 2.79
                             2 2.79   9 2.79   8 2.79   7 2.79
   4  0.249  0.993  0.748-  21 1.84  36 1.84  33 1.85  48 1.85  27 1.87  42 1.88   5 2.78   5 2.79
                             2 2.79   8 2.79   7 2.80   9 2.80
   5  0.751  0.993  0.748-  21 1.84  36 1.84  33 1.85  48 1.85  28 1.87  45 1.88   4 2.78   4 2.79
                             2 2.79   8 2.79   7 2.80   9 2.80
   6  0.750  0.000  0.250-  37 1.84  20 1.84  32 1.84  49 1.84  44 1.88  29 1.88   3 2.78   3 2.79
                             2 2.79   9 2.79   8 2.79   7 2.79
   7  0.500  1.000  1.000-  26 1.84  29 1.84  28 1.85  27 1.85  49 1.88  48 1.92   2 2.78   2 2.78
                             6 2.79   3 2.79   4 2.80   5 2.80
   8  0.000  0.999  0.499-  43 1.84  44 1.84  42 1.86  45 1.86  20 1.89  21 1.91   9 2.78   9 2.78
                             3 2.79   6 2.79   5 2.79   4 2.79
   9  0.500  0.994  0.498-  43 1.84  44 1.84  42 1.85  45 1.85  32 1.89  33 1.90   8 2.78   8 2.78
                             3 2.79   6 2.79   5 2.80   4 2.80
  10  0.000  0.501  0.500-  39 1.84  40 1.84  38 1.85  41 1.85  19 1.88  18 1.89  15 2.78  15 2.78
                            12 2.79  13 2.79  11 2.79  14 2.79
  11  0.249  0.506  0.752-  35 1.84  18 1.84  47 1.85  30 1.85  39 1.87  22 1.88  14 2.78  14 2.79
                            16 2.79  10 2.79  15 2.80  17 2.80
  12  0.250  0.501  0.250-  19 1.84  34 1.84  46 1.84  31 1.84  38 1.88  23 1.88  13 2.78  13 2.79
                            10 2.79  15 2.79  17 2.79  16 2.79
  13  0.750  0.501  0.250-  19 1.84  34 1.84  46 1.84  31 1.84  41 1.88  24 1.88  12 2.78  12 2.79
                            10 2.79  15 2.79  17 2.79  16 2.79
  14  0.751  0.506  0.752-  35 1.84  18 1.84  47 1.85  30 1.85  40 1.87  25 1.88  11 2.78  11 2.79
                            16 2.79  10 2.79  15 2.80  17 2.80
  15  0.500  0.500  0.500-  38 1.84  41 1.84  40 1.85  39 1.85  31 1.88  30 1.92  10 2.78  10 2.78
                            13 2.79  12 2.79  14 2.80  11 2.80
  16  0.000  0.501  0.000-  23 1.84  24 1.84  22 1.86  25 1.86  34 1.89  35 1.91  17 2.78  17 2.78
                            12 2.79  13 2.79  11 2.79  14 2.79
  17  0.500  0.506  0.002-  23 1.84  24 1.84  22 1.85  25 1.85  46 1.89  47 1.90  16 2.78  16 2.78
                            12 2.79  13 2.79  11 2.80  14 2.80
  18  0.000  0.406  0.639-  11 1.84  14 1.84  10 1.89
  19  0.000  0.599  0.364-  12 1.84  13 1.84  10 1.88
  20  0.000  0.099  0.364-   3 1.84   6 1.84   8 1.89
  21  0.000  0.896  0.634-   4 1.84   5 1.84   8 1.91
  22  0.255  0.405  0.885-  17 1.85  16 1.86  11 1.88   1 2.15
  23  0.247  0.600  0.116-  16 1.84  17 1.84  12 1.88
  24  0.753  0.600  0.116-  16 1.84  17 1.84  13 1.88
  25  0.745  0.405  0.885-  17 1.85  16 1.86  14 1.88   1 2.15
  26  0.250  0.098  0.114-   7 1.84   2 1.85   3 1.88
  27  0.250  0.900  0.886-   2 1.85   7 1.85   4 1.87
  28  0.750  0.900  0.886-   2 1.85   7 1.85   5 1.87
  29  0.750  0.098  0.114-   7 1.84   2 1.85   6 1.88
  30  0.500  0.403  0.642-  11 1.85  14 1.85  15 1.92   1 2.14
  31  0.500  0.599  0.364-  12 1.84  13 1.84  15 1.88
  32  0.500  0.097  0.365-   3 1.84   6 1.84   9 1.89
  33  0.500  0.894  0.634-   4 1.85   5 1.85   9 1.90
  34  0.000  0.402  0.137-  12 1.84  13 1.84  16 1.89
  35  0.000  0.603  0.865-  11 1.84  14 1.84  16 1.91
  36  0.000  0.093  0.860-   4 1.84   5 1.84   2 1.89
  37  0.000  0.903  0.137-   3 1.84   6 1.84   2 1.88
  38  0.250  0.403  0.386-  15 1.84  10 1.85  12 1.88
  39  0.250  0.600  0.614-  10 1.84  15 1.85  11 1.87
  40  0.750  0.600  0.614-  10 1.84  15 1.85  14 1.87
  41  0.750  0.403  0.386-  15 1.84  10 1.85  13 1.88
  42  0.255  0.094  0.615-   9 1.85   8 1.86   4 1.88   1 2.16
  43  0.247  0.900  0.384-   8 1.84   9 1.84   3 1.88
  44  0.753  0.900  0.384-   8 1.84   9 1.84   6 1.88
  45  0.745  0.094  0.615-   9 1.85   8 1.86   5 1.88   1 2.16
  46  0.500  0.404  0.136-  12 1.84  13 1.84  17 1.89
  47  0.500  0.605  0.866-  11 1.85  14 1.85  17 1.90
  48  0.500  0.096  0.858-   4 1.85   5 1.85   7 1.92   1 2.12
  49  0.500  0.902  0.136-   3 1.84   6 1.84   7 1.88
 
  LATTYP: Found a simple monoclinic cell.
 ALAT       =    11.3777123301
 B/A-ratio  =     0.4894113981
 C/A-ratio  =     1.6789125019
 COS(beta)  =    -0.9074041756
  
  Lattice vectors:
  
 A1 = (  -6.2288178401,   0.0000000000,  -9.5212481420)
 A2 = (   0.0000000000,  -5.5683820989,   0.0000000000)
 A3 = (   2.7713215959,   0.0000000000,  18.9000843937)


Analysis of symmetry for initial positions (statically):
=====================================================================
 Subroutine PRICEL returns:
 Original cell was already a primitive cell.
 

 Routine SETGRP: Setting up the symmetry group for a 
 simple monoclinic supercell.


 Subroutine GETGRP returns: Found  2 space group operations
 (whereof  2 operations were pure point group operations)
 out of a pool of  4 trial point group operations.


The static configuration has the point symmetry C_1h.


Analysis of symmetry for dynamics (positions and initial velocities):
=====================================================================
 Subroutine PRICEL returns:
 Original cell was already a primitive cell.
 

 Routine SETGRP: Setting up the symmetry group for a 
 simple monoclinic supercell.


 Subroutine GETGRP returns: Found  2 space group operations
 (whereof  2 operations were pure point group operations)
 out of a pool of  4 trial point group operations.


The dynamic configuration has the point symmetry C_1h.


Analysis of structural, dynamic, and magnetic symmetry:
=====================================================================
 Subroutine PRICEL returns:
 Original cell was already a primitive cell.
 

 Routine SETGRP: Setting up the symmetry group for a 
 simple monoclinic supercell.


 Subroutine GETGRP returns: Found  2 space group operations
 (whereof  2 operations were pure point group operations)
 out of a pool of  4 trial point group operations.


The magnetic configuration has the point symmetry C_1h.


 Subroutine INISYM returns: Found  2 space group operations
 (whereof  2 operations are pure point group operations),
 and found     1 'primitive' translations

 
 
 KPOINTS: Automatic mesh                          

Automatic generation of k-mesh.
Space group operators:
 irot       det(A)        alpha          n_x          n_y          n_z        tau_x        tau_y        tau_z
    1     1.000000     0.000001     1.000000     0.000000     0.000000     0.000000     0.000000     0.000000
    2    -1.000000   180.000000     0.000000     1.000000     0.000000     0.000000     0.000000     0.000000
 
 Subroutine IBZKPT returns following result:
 ===========================================
 
 Found      1 irreducible k-points:
 
 Following reciprocal coordinates:
            Coordinates               Weight
  0.000000  0.000000  0.000000      1.000000
 
 Following cartesian coordinates:
            Coordinates               Weight
  0.000000  0.000000  0.000000      1.000000
 


--------------------------------------------------------------------------------------------------------




 Dimension of arrays:
   k-points           NKPTS =      1   k-points in BZ     NKDIM =      1   number of bands    NBANDS=    240
   number of dos      NEDOS =    301   number of ions     NIONS =     49
   non local maximal  LDIM  =      6   non local SUM 2l+1 LMDIM =     18
   total plane-waves  NPLWV = 241920
   max r-space proj   IRMAX =   6435   max aug-charges    IRDMAX=  15616
   dimension x,y,z NGX =    42 NGY =   80 NGZ =   72
   dimension x,y,z NGXF=    84 NGYF=  160 NGZF=  144
   support grid    NGXF=    84 NGYF=  160 NGZF=  144
   ions per type =               1  16  32
   NGX,Y,Z   is equivalent  to a cutoff of  12.54, 13.31, 12.36 a.u.
   NGXF,Y,Z  is equivalent  to a cutoff of  25.08, 26.61, 24.71 a.u.

 SYSTEM =  unknown system                          
 POSCAR =  ce17535_1                               

 Startparameter for this run:
   NWRITE =      1    write-flag & timer
   PREC   = accura    normal or accurate (medium, high low for compatibility)
   ISTART =      0    job   : 0-new  1-cont  2-samecut
   ICHARG =      2    charge: 1-file 2-atom 10-const
   ISPIN  =      2    spin polarized calculation?
   LNONCOLLINEAR =      F non collinear calculations
   LSORBIT =      F    spin-orbit coupling
   INIWAV =      1    electr: 0-lowe 1-rand  2-diag
   LASPH  =      F    aspherical Exc in radial PAW
   METAGGA=      F    non-selfconsistent MetaGGA calc.

 Electronic Relaxation 1
   ENCUT  =  500.0 eV  36.75 Ry    6.06 a.u.  10.15 18.22 17.66*2*pi/ulx,y,z
   ENINI  =  500.0     initial cutoff
   ENAUG  =  628.9 eV  augmentation charge cutoff
   NELM   =     80;   NELMIN=  2; NELMDL= -5     # of ELM steps 
   EDIFF  = 0.1E-04   stopping-criterion for ELM
   LREAL  =      T    real-space projection
   NLSPLINE    = F    spline interpolate recip. space projectors
   LCOMPAT=      F    compatible to vasp.4.4
   GGA_COMPAT  = T    GGA compatible to vasp.4.4-vasp.4.6
   LMAXPAW     = -100 max onsite density
   LMAXMIX     =    2 max onsite mixed and CHGCAR
   VOSKOWN=      1    Vosko Wilk Nusair interpolation
   ROPT   =   -0.00025  -0.00025  -0.00025
 Ionic relaxation
   EDIFFG = -.2E-01   stopping-criterion for IOM
   NSW    =     20    number of steps for IOM
   NBLOCK =      1;   KBLOCK =     20    inner block; outer block 
   IBRION =      1    ionic relax: 0-MD 1-quasi-New 2-CG
   NFREE  =      0    steps in history (QN), initial steepest desc. (CG)
   ISIF   =      3    stress and relaxation
   IWAVPR =     11    prediction:  0-non 1-charg 2-wave 3-comb
   ISYM   =      2    0-nonsym 1-usesym 2-fastsym
   LCORR  =      T    Harris-Foulkes like correction to forces

   POTIM  = 0.5000    time-step for ionic-motion
   TEIN   =    0.0    initial temperature
   TEBEG  =    0.0;   TEEND  =   0.0 temperature during run
   SMASS  =  -3.00    Nose mass-parameter (am)
   estimated Nose-frequenzy (Omega)   =  0.10E-29 period in steps =****** mass=  -0.709E-27a.u.
   SCALEE = 1.0000    scale energy and forces
   NPACO  =    256;   APACO  = 16.0  distance and # of slots for P.C.
   PSTRESS=    0.0 pullay stress

  Mass of Ions in am
   POMASS =   7.01 58.69 16.00
  Ionic Valenz
   ZVAL   =   3.00 10.00  6.00
  Atomic Wigner-Seitz radii
   RWIGS  =   1.23  1.15  0.73
  virtual crystal weights 
   VCA    =   1.00  1.00  1.00
   NELECT =     355.0000    total number of electrons
   NUPDOWN=      -1.0000    fix difference up-down

 DOS related values:
   EMIN   =  10.00;   EMAX   =-10.00  energy-range for DOS
   EFERMI =   0.00
   ISMEAR =     0;   SIGMA  =   0.05  broadening in eV -4-tet -1-fermi 0-gaus

 Electronic relaxation 2 (details)
   IALGO  =     38    algorithm
   LDIAG  =      T    sub-space diagonalisation (order eigenvalues)
   LSUBROT=      F    optimize rotation matrix (better conditioning)
   TURBO    =      0    0=normal 1=particle mesh
   IRESTART =      0    0=no restart 2=restart with 2 vectors
   NREBOOT  =      0    no. of reboots
   NMIN     =      0    reboot dimension
   EREF     =   0.00    reference energy to select bands
   IMIX   =      4    mixing-type and parameters
     AMIX     =   0.40;   BMIX     =  1.00
     AMIX_MAG =   1.60;   BMIX_MAG =  1.00
     AMIN     =   0.10
     WC   =   100.;   INIMIX=   1;  MIXPRE=   1;  MAXMIX= -45

 Intra band minimization:
   WEIMIN = 0.0010     energy-eigenvalue tresh-hold
   EBREAK =  0.10E-07  absolut break condition
   DEPER  =   0.30     relativ break condition  

   TIME   =   0.40     timestep for ELM

  volume/ion in A,a.u.               =      10.38        70.05
  Fermi-wavevector in a.u.,A,eV,Ry     =   1.452188  2.744238 28.692657  2.108851
  Thomas-Fermi vector in A             =   2.569599
 
 Write flags
   LWAVE        =      F    write WAVECAR
   LDOWNSAMPLE  =      F    k-point downsampling of WAVECAR
   LCHARG       =      T    write CHGCAR
   LVTOT        =      F    write LOCPOT, total local potential
   LVHAR        =      F    write LOCPOT, Hartree potential only
   LELF         =      F    write electronic localiz. function (ELF)
   LORBIT       =      0    0 simple, 1 ext, 2 COOP (PROOUT), +10 PAW based schemes


 Dipole corrections
   LMONO  =      F    monopole corrections only (constant potential shift)
   LDIPOL =      F    correct potential (dipole corrections)
   IDIPOL =      0    1-x, 2-y, 3-z, 4-all directions 
   EPSILON=  1.0000000 bulk dielectric constant

 Exchange correlation treatment:
   GGA     =    PS    GGA type
   LEXCH   =    14    internal setting for exchange type
   VOSKOWN=      1    Vosko Wilk Nusair interpolation
   LHFCALC =     F    Hartree Fock is set to
   LHFONE  =     F    Hartree Fock one center treatment
   AEXX    =    0.0000 exact exchange contribution

 Linear response parameters
   LEPSILON=     F    determine dielectric tensor
   LRPA    =     F    only Hartree local field effects (RPA)
   LNABLA  =     F    use nabla operator in PAW spheres
   LVEL    =     F    velocity operator in full k-point grid
   LINTERFAST=   F  fast interpolation
   KINTER  =     0    interpolate to denser k-point grid
   CSHIFT  =0.1000    complex shift for real part using Kramers Kronig
   OMEGAMAX=  -1.0    maximum frequency
   DEG_THRESHOLD= 0.2000000E-02 threshold for treating states as degnerate
   RTIME   =   -0.100 relaxation time in fs
  (WPLASMAI=    0.000 imaginary part of plasma frequency in eV, 0.658/RTIME)
   DFIELD  = 0.0000000 0.0000000 0.0000000 field for delta impulse in time
 
 Orbital magnetization related:
   ORBITALMAG=     F  switch on orbital magnetization
   LCHIMAG   =     F  perturbation theory with respect to B field
   DQ        =  0.001000  dq finite difference perturbation B field
   LLRAUG    =     F  two centre corrections for induced B field



--------------------------------------------------------------------------------------------------------


 quasi-Newton-method for relaxation of ions
 charge density and potential will be updated during run
 spin polarized calculation
 Variant of blocked Davidson
 Davidson routine will perform the subspace rotation
 perform sub-space diagonalisation
    after iterative eigenvector-optimisation
 modified Broyden-mixing scheme, WC =      100.0
 initial mixing is a Kerker type mixing with AMIX =  0.4000 and BMIX =      1.0000
 Hartree-type preconditioning will be used
 using additional bands           62
 real space projection scheme for non local part
 use partial core corrections
 calculate Harris-corrections to forces 
   (improved forces if not selfconsistent)
 use gradient corrections 
 use of overlap-Matrix (Vanderbilt PP)
 Gauss-broadening in eV      SIGMA  =   0.05


--------------------------------------------------------------------------------------------------------


  energy-cutoff  :      500.00
  volume of cell :      508.61
      direct lattice vectors                 reciprocal lattice vectors
     0.000000000  5.568382099  0.000000000     0.000000000  0.179585377  0.000000000
    -3.457496244  0.000000000  9.378836252    -0.001559162  0.000000000  0.106048253
     9.686314084  0.000000000  0.142411890     0.102681907  0.000000000  0.037853557

  length of vectors
     5.568382099  9.995841621  9.687360925     0.179585377  0.106059714  0.109437040


 
 k-points in units of 2pi/SCALE and weight: Automatic mesh                          
   0.00000000  0.00000000  0.00000000       1.000
 
 k-points in reciprocal lattice and weights: Automatic mesh                          
   0.00000000  0.00000000  0.00000000       1.000
 
 position of ions in fractional coordinates (direct lattice) 
   0.50000000  0.24929244  0.75104980
   0.00000000  0.99879587  0.99981241
   0.24974265  0.00033647  0.25008107
   0.24935325  0.99286850  0.74760241
   0.75064675  0.99286850  0.74760241
   0.75025735  0.00033647  0.25008107
   0.50000000  0.99962759  0.99996651
   0.00000000  0.99885386  0.49939466
   0.50000000  0.99438211  0.49755573
   0.00000000  0.50121291  0.50009069
   0.24936318  0.50597206  0.75197337
   0.24973560  0.50086663  0.25039556
   0.75026440  0.50086663  0.25039556
   0.75063682  0.50597206  0.75197337
   0.50000000  0.50033595  0.49993816
   0.00000000  0.50112710  0.00046428
   0.50000000  0.50561496  0.00232196
   0.00000000  0.40576801  0.63905767
   0.00000000  0.59855770  0.36418517
   0.00000000  0.09864113  0.36396183
   0.00000000  0.89570612  0.63410474
   0.25459045  0.40498684  0.88512321
   0.24718363  0.60019139  0.11575900
   0.75281637  0.60019139  0.11575900
   0.74540955  0.40498684  0.88512321
   0.24989201  0.09779302  0.11384103
   0.24993917  0.89965873  0.88622219
   0.75006083  0.89965873  0.88622219
   0.75010799  0.09779302  0.11384103
   0.50000000  0.40337515  0.64157941
   0.50000000  0.59861417  0.36439615
   0.50000000  0.09696868  0.36499254
   0.50000000  0.89442745  0.63368710
   0.00000000  0.40248775  0.13669957
   0.00000000  0.60334306  0.86526544
   0.00000000  0.09335449  0.86027447
   0.00000000  0.90250510  0.13650610
   0.24996124  0.40278723  0.38584617
   0.25009605  0.59964503  0.61387691
   0.74990395  0.59964503  0.61387691
   0.75003876  0.40278723  0.38584617
   0.25452959  0.09439286  0.61489326
   0.24720075  0.90025585  0.38393103
   0.75279925  0.90025585  0.38393103
   0.74547041  0.09439286  0.61489326
   0.50000000  0.40411851  0.13562083
   0.50000000  0.60464465  0.86573849
   0.50000000  0.09579059  0.85796347
   0.50000000  0.90233486  0.13619803
 
 position of ions in cartesian coordinates  (Angst):
   6.41297658  2.78419105  2.44503140
   6.23116406  0.00000000  9.50992809
   2.42120045  1.39066250  0.03877021
   3.80867264  1.38849417  9.41841855
   3.80867264  4.17988793  9.41841855
   2.42120045  4.17771960  0.03877021
   6.22978105  2.78419105  9.51775060
   1.38376006  0.00000000  9.43920653
   1.38140866  2.78419105  9.39700483
   3.11109374  0.00000000  4.77201267
   5.53445375  1.38854947  4.85251905
   0.69366555  1.39062324  4.73320541
   0.69366555  4.17775885  4.73320541
   5.53445375  4.17983263  4.85251905
   3.11264837  2.78419105  4.76376608
  -1.72814790  0.00000000  4.70005513
  -1.72567059  2.78419105  4.74241059
   4.78717194  0.00000000  3.89664113
   1.45810094  0.00000000  5.66563895
   3.18439726  0.00000000  0.97697150
   3.04523713  0.00000000  8.49098508
   7.17334094  1.41765690  3.92435733
  -0.95388144  1.37641290  5.64558222
  -0.95388144  4.19196920  5.64558222
   7.17334094  4.15072519  3.92435733
   0.76458097  1.39149420  0.93339704
   5.47365980  1.39175680  8.56396049
   5.47365980  4.17662530  8.56396049
   0.76458097  4.17688790  0.93339704
   4.81987161  2.78419105  3.87455802
   1.45994932  2.78419105  5.66619862
   3.20016353  2.78419105  0.96143265
   3.04561273  2.78419105  8.47893317
  -0.06748491  0.00000000  3.79433434
   6.29517645  0.00000000  5.78187985
   8.01011592  0.00000000  0.99806979
  -1.79816703  0.00000000  8.48388764
   2.34479186  1.39187969  3.83262456
   3.87293412  1.39263037  5.71139592
   3.87293412  4.17575173  5.71139592
   2.34479186  4.17650240  3.83262456
   5.62968629  1.41731801  0.97286329
   0.60624532  1.37650823  8.49802855
   0.60624532  4.19187387  8.49802855
   5.62968629  4.15106409  0.97286329
  -0.08357227  2.78419105  3.80947535
   6.29525832  2.78419105  5.79415462
   7.97930804  2.78419105  1.02058846
  -1.80056249  2.78419105  8.48224712
 


--------------------------------------------------------------------------------------------------------


 use serial FFT for orbitals x direction half grid
 k-point  1 :   0.0000 0.0000 0.0000  plane waves:    6459

 maximum and minimum number of plane-waves per node :      6459     6459

 maximum number of plane-waves:      6459
 maximum index in each direction: 
   IXMAX=   10   IYMAX=   18   IZMAX=   17
   IXMIN=    0   IYMIN=  -18   IZMIN=  -17

 The following grids will avoid any aliasing or wrap around errors in the Hartre
 e energy
  - symmetry arguments have not been applied
  - exchange correlation energies might require even more grid points
  - we recommend to set PREC=Normal or Accurate and rely on VASP defaults
 NGX is ok and might be reduce to    42
 NGY is ok and might be reduce to    80
 NGZ is ok and might be reduce to    70

 serial   3D FFT for wavefunctions
 parallel 3D FFT for charge:
    minimum data exchange during FFTs selected (reduces bandwidth)


 total amount of memory used by VASP MPI-rank0    92896. kBytes
=======================================================================

   base      :      30000. kBytes
   nonlr-proj:      21589. kBytes
   fftplans  :       5544. kBytes
   grid      :      31764. kBytes
   one-center:        762. kBytes
   wavefun   :       3237. kBytes
 
     INWAV:  cpu time    0.0000: real time    0.0000
 Broyden mixing: mesh for mixing (old mesh)
   NGX = 21   NGY = 37   NGZ = 35
  (NGX  = 84   NGY  =160   NGZ  =144)
  gives a total of  27195 points

 initial charge density was supplied:
 charge density of overlapping atoms calculated
 number of electron     355.0000000 magnetization      40.0000000
 keeping initial charge density in first step


--------------------------------------------------------------------------------------------------------


 Maximum index for non-local projection operator         6226
 Maximum index for augmentation-charges         1462 (set IRDMAX)


--------------------------------------------------------------------------------------------------------


 First call to EWALD:  gamma=   0.222
 Maximum number of real-space cells 4x 2x 2
 Maximum number of reciprocal cells 2x 3x 3

    FEWALD:  cpu time    0.0032: real time    0.0032


--------------------------------------- Iteration      1(   1)  ---------------------------------------


    POTLOK:  cpu time    0.1663: real time    0.2040
    SETDIJ:  cpu time    0.0196: real time    0.0197
     EDDAV:  cpu time    1.5382: real time    1.5609
    --------------------------------------------
      LOOP:  cpu time    1.7246: real time    1.7851

 eigenvalue-minimisations  :   960
 total energy-change (2. order) : 0.6268398E+04  (-0.1578972E+05)
 number of electron     355.0000000 magnetization      40.0000000
 augmentation part      355.0000000 magnetization      40.0000000

 Free energy of the ion-electron system (eV)
  ---------------------------------------------------
  alpha Z        PSCENC =      1092.17041089
  Ewald energy   TEWEN  =    -19642.93892884
  -Hartree energ DENC   =    -12368.73273165
  -exchange      EXHF   =         0.00000000
  -V(xc)+E(xc)   XCENC  =      1436.95851855
  PAW double counting   =     26543.64569607   -27674.53148738
  entropy T*S    EENTRO =        -0.00002147
  eigenvalues    EBANDS =      5667.13656301
  atomic energy  EATOM  =     31214.68969437
  Solvation  Ediel_sol  =         0.00000000
  ---------------------------------------------------
  free energy    TOTEN  =      6268.39771354 eV

  energy without entropy =     6268.39773502  energy(sigma->0) =     6268.39772428


--------------------------------------------------------------------------------------------------------




--------------------------------------- Iteration      1(   2)  ---------------------------------------


     EDDAV:  cpu time    1.6049: real time    1.6087
    --------------------------------------------
      LOOP:  cpu time    1.6047: real time    1.6085

 eigenvalue-minimisations  :  1024
 total energy-change (2. order) :-0.5052438E+04  (-0.4462256E+04)
 number of electron     355.0000000 magnetization      40.0000000
 augmentation part      355.0000000 magnetization      40.0000000

 Free energy of the ion-electron system (eV)
  ---------------------------------------------------
  alpha Z        PSCENC =      1092.17041089
  Ewald energy   TEWEN  =    -19642.93892884
  -Hartree energ DENC   =    -12368.73273165
  -exchange      EXHF   =         0.00000000
  -V(xc)+E(xc)   XCENC  =      1436.95851855
  PAW double counting   =     26543.64569607   -27674.53148738
  entropy T*S    EENTRO =        -0.02183043
  eigenvalues    EBANDS =       614.72010461
  atomic energy  EATOM  =     31214.68969437
  Solvation  Ediel_sol  =         0.00000000
  ---------------------------------------------------
  free energy    TOTEN  =      1215.95944619 eV

  energy without entropy =     1215.98127662  energy(sigma->0) =     1215.97036140


--------------------------------------------------------------------------------------------------------




--------------------------------------- Iteration      1(   3)  ---------------------------------------


     EDDAV:  cpu time    1.7339: real time    1.7380
    --------------------------------------------
      LOOP:  cpu time    1.7339: real time    1.7380

 eigenvalue-minimisations  :  1120
 total energy-change (2. order) :-0.1425743E+04  (-0.1176000E+04)
 number of electron     355.0000000 magnetization      40.0000000
 augmentation part      355.0000000 magnetization      40.0000000

 Free energy of the ion-electron system (eV)
  ---------------------------------------------------
  alpha Z        PSCENC =      1092.17041089
  Ewald energy   TEWEN  =    -19642.93892884
  -Hartree energ DENC   =    -12368.73273165
  -exchange      EXHF   =         0.00000000
  -V(xc)+E(xc)   XCENC  =      1436.95851855
  PAW double counting   =     26543.64569607   -27674.53148738
  entropy T*S    EENTRO =        -0.08602973
  eigenvalues    EBANDS =      -810.95903602
  atomic energy  EATOM  =     31214.68969437
  Solvation  Ediel_sol  =         0.00000000
  ---------------------------------------------------
  free energy    TOTEN  =      -209.78389374 eV

  energy without entropy =     -209.69786401  energy(sigma->0) =     -209.74087887


--------------------------------------------------------------------------------------------------------




--------------------------------------- Iteration      1(   4)  ---------------------------------------


     EDDAV:  cpu time    1.7618: real time    1.7660
    --------------------------------------------
      LOOP:  cpu time    1.7618: real time    1.7660

 eigenvalue-minimisations  :  1152
 total energy-change (2. order) :-0.2014979E+03  (-0.1955504E+03)
 number of electron     355.0000000 magnetization      40.0000000
 augmentation part      355.0000000 magnetization      40.0000000

 Free energy of the ion-electron system (eV)
  ---------------------------------------------------
  alpha Z        PSCENC =      1092.17041089
  Ewald energy   TEWEN  =    -19642.93892884
  -Hartree energ DENC   =    -12368.73273165
  -exchange      EXHF   =         0.00000000
  -V(xc)+E(xc)   XCENC  =      1436.95851855
  PAW double counting   =     26543.64569607   -27674.53148738
  entropy T*S    EENTRO =        -0.22281504
  eigenvalues    EBANDS =     -1012.32014606
  atomic energy  EATOM  =     31214.68969437
  Solvation  Ediel_sol  =         0.00000000
  ---------------------------------------------------
  free energy    TOTEN  =      -411.28178909 eV

  energy without entropy =     -411.05897405  energy(sigma->0) =     -411.17038157


--------------------------------------------------------------------------------------------------------




--------------------------------------- Iteration      1(   5)  ---------------------------------------


     EDDAV:  cpu time    1.7720: real time    1.7762
    CHARGE:  cpu time    0.1364: real time    0.1367
    MIXING:  cpu time    0.0036: real time    0.0082
    --------------------------------------------
      LOOP:  cpu time    1.9117: real time    1.9208

 eigenvalue-minimisations  :  1152
 total energy-change (2. order) :-0.6115379E+01  (-0.6066800E+01)
 number of electron     354.9999806 magnetization      33.4929270
 augmentation part      101.9811920 magnetization      27.6021364

 Broyden mixing:
  rms(total) = 0.12088E+02    rms(broyden)= 0.12087E+02
  rms(prec ) = 0.14772E+02
  weight for this iteration     100.00

 Free energy of the ion-electron system (eV)
  ---------------------------------------------------
  alpha Z        PSCENC =      1092.17041089
  Ewald energy   TEWEN  =    -19642.93892884
  -Hartree energ DENC   =    -12368.73273165
  -exchange      EXHF   =         0.00000000
  -V(xc)+E(xc)   XCENC  =      1436.95851855
  PAW double counting   =     26543.64569607   -27674.53148738
  entropy T*S    EENTRO =        -0.22162953
  eigenvalues    EBANDS =     -1018.43671096
  atomic energy  EATOM  =     31214.68969437
  Solvation  Ediel_sol  =         0.00000000
  ---------------------------------------------------
  free energy    TOTEN  =      -417.39716848 eV

  energy without entropy =     -417.17553895  energy(sigma->0) =     -417.28635371


--------------------------------------------------------------------------------------------------------




--------------------------------------- Iteration      1(   6)  ---------------------------------------


    POTLOK:  cpu time    0.1415: real time    0.1418
    SETDIJ:  cpu time    0.0208: real time    0.0209
     EDDAV:  cpu time    2.0883: real time    2.0933
    CHARGE:  cpu time    0.1268: real time    0.1271
    MIXING:  cpu time    0.0032: real time    0.0032
    --------------------------------------------
      LOOP:  cpu time    2.3806: real time    2.3863

 eigenvalue-minimisations  :  1472
 total energy-change (2. order) :-0.9729185E+02  (-0.1010878E+03)
 number of electron     354.9999828 magnetization      29.4377482
 augmentation part      135.6040870 magnetization      25.6980019

 Broyden mixing:
  rms(total) = 0.21306E+02    rms(broyden)= 0.21305E+02
  rms(prec ) = 0.23688E+02
  weight for this iteration     100.00

 eigenvalues of (default mixing * dielectric matrix)
  average eigenvalue GAMMA=   0.1819
  0.1819

 Free energy of the ion-electron system (eV)
  ---------------------------------------------------
  alpha Z        PSCENC =      1092.17041089
  Ewald energy   TEWEN  =    -19642.93892884
  -Hartree energ DENC   =    -11765.85357215
  -exchange      EXHF   =         0.00000000
  -V(xc)+E(xc)   XCENC  =      1431.31536469
  PAW double counting   =     29509.97199101   -30455.92256770
  entropy T*S    EENTRO =        -0.06403638
  eigenvalues    EBANDS =     -1898.05737028
  atomic energy  EATOM  =     31214.68969437
  Solvation  Ediel_sol  =         0.00000000
  ---------------------------------------------------
  free energy    TOTEN  =      -514.68901439 eV

  energy without entropy =     -514.62497801  energy(sigma->0) =     -514.65699620


--------------------------------------------------------------------------------------------------------




--------------------------------------- Iteration      1(   7)  ---------------------------------------


    POTLOK:  cpu time    0.1367: real time    0.1370
    SETDIJ:  cpu time    0.0204: real time    0.0205
     EDDAV:  cpu time    1.8131: real time    1.8174
    CHARGE:  cpu time    0.1261: real time    0.1264
    MIXING:  cpu time    0.0029: real time    0.0029
    --------------------------------------------
      LOOP:  cpu time    2.0992: real time    2.1042

 eigenvalue-minimisations  :  1312
 total energy-change (2. order) : 0.1647579E+03  (-0.2961152E+02)
 number of electron     354.9999842 magnetization      21.3490712
 augmentation part      126.0889922 magnetization      20.4337103

 Broyden mixing:
  rms(total) = 0.78560E+01    rms(broyden)= 0.78551E+01
  rms(prec ) = 0.96762E+01
  weight for this iteration     100.00

 eigenvalues of (default mixing * dielectric matrix)
  average eigenvalue GAMMA=   0.5419
  0.5419  0.5419

 Free energy of the ion-electron system (eV)
  ---------------------------------------------------
  alpha Z        PSCENC =      1092.17041089
  Ewald energy   TEWEN  =    -19642.93892884
  -Hartree energ DENC   =    -11968.23956285
  -exchange      EXHF   =         0.00000000
  -V(xc)+E(xc)   XCENC  =      1429.60375520
  PAW double counting   =     30721.08778927   -31783.57893696
  entropy T*S    EENTRO =        -0.01534564
  eigenvalues    EBANDS =     -1412.70999878
  atomic energy  EATOM  =     31214.68969437
  Solvation  Ediel_sol  =         0.00000000
  ---------------------------------------------------
  free energy    TOTEN  =      -349.93112335 eV

  energy without entropy =     -349.91577771  energy(sigma->0) =     -349.92345053


--------------------------------------------------------------------------------------------------------




--------------------------------------- Iteration      1(   8)  ---------------------------------------


    POTLOK:  cpu time    0.1377: real time    0.1381
    SETDIJ:  cpu time    0.0207: real time    0.0208
     EDDAV:  cpu time    2.2123: real time    2.2175
    CHARGE:  cpu time    0.1320: real time    0.1323
    MIXING:  cpu time    0.0034: real time    0.0034
    --------------------------------------------
      LOOP:  cpu time    2.5061: real time    2.5120

 eigenvalue-minimisations  :  1520
 total energy-change (2. order) : 0.2582500E+02  (-0.1606737E+02)
 number of electron     354.9999823 magnetization      15.0416748
 augmentation part      115.8189078 magnetization      13.8008194

 Broyden mixing:
  rms(total) = 0.41876E+01    rms(broyden)= 0.41853E+01
  rms(prec ) = 0.61527E+01
  weight for this iteration     100.00

 eigenvalues of (default mixing * dielectric matrix)
  average eigenvalue GAMMA=   0.5571
  0.7426  0.4643  0.4643

 Free energy of the ion-electron system (eV)
  ---------------------------------------------------
  alpha Z        PSCENC =      1092.17041089
  Ewald energy   TEWEN  =    -19642.93892884
  -Hartree energ DENC   =    -12081.77675365
  -exchange      EXHF   =         0.00000000
  -V(xc)+E(xc)   XCENC  =      1425.57617832
  PAW double counting   =     31950.79041976   -33104.36318147
  entropy T*S    EENTRO =        -0.02681908
  eigenvalues    EBANDS =     -1178.22714011
  atomic energy  EATOM  =     31214.68969437
  Solvation  Ediel_sol  =         0.00000000
  ---------------------------------------------------
  free energy    TOTEN  =      -324.10611982 eV

  energy without entropy =     -324.07930073  energy(sigma->0) =     -324.09271027


--------------------------------------------------------------------------------------------------------




--------------------------------------- Iteration      1(   9)  ---------------------------------------


    POTLOK:  cpu time    0.1406: real time    0.1409
    SETDIJ:  cpu time    0.0208: real time    0.0208
     EDDAV:  cpu time    2.0902: real time    2.0952
    CHARGE:  cpu time    0.1325: real time    0.1328
    MIXING:  cpu time    0.0035: real time    0.0036
    --------------------------------------------
      LOOP:  cpu time    2.3876: real time    2.3933

 eigenvalue-minimisations  :  1424
 total energy-change (2. order) : 0.8946292E+01  (-0.1020637E+02)
 number of electron     354.9999822 magnetization      13.2346207
 augmentation part      113.4459675 magnetization      11.4691243

 Broyden mixing:
  rms(total) = 0.50560E+01    rms(broyden)= 0.50553E+01
  rms(prec ) = 0.71717E+01
  weight for this iteration     100.00

 eigenvalues of (default mixing * dielectric matrix)
  average eigenvalue GAMMA=   0.5326
  1.0328  0.4127  0.4127  0.2721

 Free energy of the ion-electron system (eV)
  ---------------------------------------------------
  alpha Z        PSCENC =      1092.17041089
  Ewald energy   TEWEN  =    -19642.93892884
  -Hartree energ DENC   =    -12052.05881581
  -exchange      EXHF   =         0.00000000
  -V(xc)+E(xc)   XCENC  =      1422.69862284
  PAW double counting   =     32986.25285449   -34154.36343339
  entropy T*S    EENTRO =        -0.01373603
  eigenvalues    EBANDS =     -1181.59649596
  atomic energy  EATOM  =     31214.68969437
  Solvation  Ediel_sol  =         0.00000000
  ---------------------------------------------------
  free energy    TOTEN  =      -315.15982745 eV

  energy without entropy =     -315.14609143  energy(sigma->0) =     -315.15295944


--------------------------------------------------------------------------------------------------------




--------------------------------------- Iteration      1(  10)  ---------------------------------------


    POTLOK:  cpu time    0.1403: real time    0.1406
    SETDIJ:  cpu time    0.0208: real time    0.0209
     EDDAV:  cpu time    2.0445: real time    2.0494
    CHARGE:  cpu time    0.1326: real time    0.1329
    MIXING:  cpu time    0.0040: real time    0.0040
    --------------------------------------------
      LOOP:  cpu time    2.3422: real time    2.3477

 eigenvalue-minimisations  :  1392
 total energy-change (2. order) : 0.3637533E+01  (-0.6605499E+01)
 number of electron     354.9999825 magnetization       8.3581421
 augmentation part      114.0764218 magnetization       7.1603327

 Broyden mixing:
  rms(total) = 0.29414E+01    rms(broyden)= 0.29407E+01
  rms(prec ) = 0.39973E+01
  weight for this iteration     100.00

 eigenvalues of (default mixing * dielectric matrix)
  average eigenvalue GAMMA=   0.6058
  1.5182  0.4887  0.4887  0.3933  0.1401

 Free energy of the ion-electron system (eV)
  ---------------------------------------------------
  alpha Z        PSCENC =      1092.17041089
  Ewald energy   TEWEN  =    -19642.93892884
  -Hartree energ DENC   =    -12043.82149381
  -exchange      EXHF   =         0.00000000
  -V(xc)+E(xc)   XCENC  =      1422.34546155
  PAW double counting   =     33346.48823044   -34518.49981610
  entropy T*S    EENTRO =        -0.02299522
  eigenvalues    EBANDS =     -1181.93285729
  atomic energy  EATOM  =     31214.68969437
  Solvation  Ediel_sol  =         0.00000000
  ---------------------------------------------------
  free energy    TOTEN  =      -311.52229401 eV

  energy without entropy =     -311.49929880  energy(sigma->0) =     -311.51079641


--------------------------------------------------------------------------------------------------------




--------------------------------------- Iteration      1(  11)  ---------------------------------------


    POTLOK:  cpu time    0.1404: real time    0.1408
    SETDIJ:  cpu time    0.0209: real time    0.0209
     EDDAV:  cpu time    2.1813: real time    2.1865
    CHARGE:  cpu time    0.1322: real time    0.1325
    MIXING:  cpu time    0.0039: real time    0.0039
    --------------------------------------------
      LOOP:  cpu time    2.4787: real time    2.4846

 eigenvalue-minimisations  :  1504
 total energy-change (2. order) : 0.3736088E+01  (-0.1317949E+01)
 number of electron     354.9999829 magnetization       4.9105624
 augmentation part      115.8806616 magnetization       4.3911728

 Broyden mixing:
  rms(total) = 0.17953E+01    rms(broyden)= 0.17948E+01
  rms(prec ) = 0.22136E+01
  weight for this iteration     100.00

 eigenvalues of (default mixing * dielectric matrix)
  average eigenvalue GAMMA=   0.5750
  1.6467  0.4948  0.4948  0.3385  0.3385  0.1368

 Free energy of the ion-electron system (eV)
  ---------------------------------------------------
  alpha Z        PSCENC =      1092.17041089
  Ewald energy   TEWEN  =    -19642.93892884
  -Hartree energ DENC   =    -12024.31144364
  -exchange      EXHF   =         0.00000000
  -V(xc)+E(xc)   XCENC  =      1422.06543021
  PAW double counting   =     34234.19859062   -35412.26819896
  entropy T*S    EENTRO =        -0.02198241
  eigenvalues    EBANDS =     -1191.36977818
  atomic energy  EATOM  =     31214.68969437
  Solvation  Ediel_sol  =         0.00000000
  ---------------------------------------------------
  free energy    TOTEN  =      -307.78620594 eV

  energy without entropy =     -307.76422353  energy(sigma->0) =     -307.77521473


--------------------------------------------------------------------------------------------------------




--------------------------------------- Iteration      1(  12)  ---------------------------------------


    POTLOK:  cpu time    0.1407: real time    0.1410
    SETDIJ:  cpu time    0.0206: real time    0.0207
     EDDAV:  cpu time    2.0243: real time    2.0291
    CHARGE:  cpu time    0.1322: real time    0.1325
    MIXING:  cpu time    0.0040: real time    0.0040
    --------------------------------------------
      LOOP:  cpu time    2.3218: real time    2.3274

 eigenvalue-minimisations  :  1376
 total energy-change (2. order) :-0.4012490E+00  (-0.9499060E+00)
 number of electron     354.9999830 magnetization       3.2403577
 augmentation part      116.7074189 magnetization       2.4673725

 Broyden mixing:
  rms(total) = 0.10985E+01    rms(broyden)= 0.10981E+01
  rms(prec ) = 0.13444E+01
  weight for this iteration     100.00

 eigenvalues of (default mixing * dielectric matrix)
  average eigenvalue GAMMA=   0.5923
  1.7351  0.5389  0.5389  0.4479  0.4479  0.2974  0.1402

 Free energy of the ion-electron system (eV)
  ---------------------------------------------------
  alpha Z        PSCENC =      1092.17041089
  Ewald energy   TEWEN  =    -19642.93892884
  -Hartree energ DENC   =    -12020.10188330
  -exchange      EXHF   =         0.00000000
  -V(xc)+E(xc)   XCENC  =      1422.12698141
  PAW double counting   =     34798.16516454   -35979.62582658
  entropy T*S    EENTRO =        -0.00647923
  eigenvalues    EBANDS =     -1192.66658824
  atomic energy  EATOM  =     31214.68969437
  Solvation  Ediel_sol  =         0.00000000
  ---------------------------------------------------
  free energy    TOTEN  =      -308.18745498 eV

  energy without entropy =     -308.18097576  energy(sigma->0) =     -308.18421537


--------------------------------------------------------------------------------------------------------




--------------------------------------- Iteration      1(  13)  ---------------------------------------


    POTLOK:  cpu time    0.1407: real time    0.1410
    SETDIJ:  cpu time    0.0205: real time    0.0206
     EDDAV:  cpu time    1.8272: real time    1.8315
    CHARGE:  cpu time    0.1267: real time    0.1270
    MIXING:  cpu time    0.0040: real time    0.0041
    --------------------------------------------
      LOOP:  cpu time    2.1192: real time    2.1242

 eigenvalue-minimisations  :  1264
 total energy-change (2. order) :-0.6488186E+00  (-0.6126226E+00)
 number of electron     354.9999831 magnetization       1.8482781
 augmentation part      116.6912035 magnetization       1.6211734

 Broyden mixing:
  rms(total) = 0.10610E+01    rms(broyden)= 0.10608E+01
  rms(prec ) = 0.12724E+01
  weight for this iteration     100.00

 eigenvalues of (default mixing * dielectric matrix)
  average eigenvalue GAMMA=   0.6190
  1.8974  0.6859  0.6859  0.4831  0.4831  0.3555  0.1396  0.2216

 Free energy of the ion-electron system (eV)
  ---------------------------------------------------
  alpha Z        PSCENC =      1092.17041089
  Ewald energy   TEWEN  =    -19642.93892884
  -Hartree energ DENC   =    -12023.70541799
  -exchange      EXHF   =         0.00000000
  -V(xc)+E(xc)   XCENC  =      1422.20813893
  PAW double counting   =     35085.69394808   -36270.41668421
  entropy T*S    EENTRO =        -0.02820740
  eigenvalues    EBANDS =     -1186.50922739
  atomic energy  EATOM  =     31214.68969437
  Solvation  Ediel_sol  =         0.00000000
  ---------------------------------------------------
  free energy    TOTEN  =      -308.83627356 eV

  energy without entropy =     -308.80806616  energy(sigma->0) =     -308.82216986


--------------------------------------------------------------------------------------------------------




--------------------------------------- Iteration      1(  14)  ---------------------------------------


    POTLOK:  cpu time    0.1364: real time    0.1368
    SETDIJ:  cpu time    0.0202: real time    0.0203
     EDDAV:  cpu time    1.6291: real time    1.6329
    CHARGE:  cpu time    0.1256: real time    0.1259
    MIXING:  cpu time    0.0042: real time    0.0042
    --------------------------------------------
      LOOP:  cpu time    1.9155: real time    1.9200

 eigenvalue-minimisations  :  1152
 total energy-change (2. order) : 0.1303772E+00  (-0.1982306E+00)
 number of electron     354.9999830 magnetization       1.1074369
 augmentation part      116.5483072 magnetization       0.6857429

 Broyden mixing:
  rms(total) = 0.64236E+00    rms(broyden)= 0.64223E+00
  rms(prec ) = 0.83872E+00
  weight for this iteration     100.00

 eigenvalues of (default mixing * dielectric matrix)
  average eigenvalue GAMMA=   0.6393
  2.0096  0.8283  0.8283  0.4981  0.4981  0.3711  0.3711  0.1396  0.2092

 Free energy of the ion-electron system (eV)
  ---------------------------------------------------
  alpha Z        PSCENC =      1092.17041089
  Ewald energy   TEWEN  =    -19642.93892884
  -Hartree energ DENC   =    -12025.11743546
  -exchange      EXHF   =         0.00000000
  -V(xc)+E(xc)   XCENC  =      1422.06495357
  PAW double counting   =     35316.54832750   -36504.31727374
  entropy T*S    EENTRO =        -0.02269134
  eigenvalues    EBANDS =     -1181.78295333
  atomic energy  EATOM  =     31214.68969437
  Solvation  Ediel_sol  =         0.00000000
  ---------------------------------------------------
  free energy    TOTEN  =      -308.70589637 eV

  energy without entropy =     -308.68320503  energy(sigma->0) =     -308.69455070


--------------------------------------------------------------------------------------------------------




--------------------------------------- Iteration      1(  15)  ---------------------------------------


    POTLOK:  cpu time    0.1374: real time    0.1377
    SETDIJ:  cpu time    0.0206: real time    0.0207
     EDDAV:  cpu time    1.9088: real time    1.9134
    CHARGE:  cpu time    0.1317: real time    0.1320
    MIXING:  cpu time    0.0047: real time    0.0047
    --------------------------------------------
      LOOP:  cpu time    2.2032: real time    2.2084

 eigenvalue-minimisations  :  1280
 total energy-change (2. order) : 0.9369120E-01  (-0.1834429E+00)
 number of electron     354.9999830 magnetization       0.6580661
 augmentation part      116.6070733 magnetization       0.7532555

 Broyden mixing:
  rms(total) = 0.65374E+00    rms(broyden)= 0.65362E+00
  rms(prec ) = 0.76073E+00
  weight for this iteration     100.00

 eigenvalues of (default mixing * dielectric matrix)
  average eigenvalue GAMMA=   0.6483
  2.1852  0.9418  0.9418  0.5012  0.5012  0.4240  0.4240  0.2394  0.1395  0.1844

 Free energy of the ion-electron system (eV)
  ---------------------------------------------------
  alpha Z        PSCENC =      1092.17041089
  Ewald energy   TEWEN  =    -19642.93892884
  -Hartree energ DENC   =    -12022.79805861
  -exchange      EXHF   =         0.00000000
  -V(xc)+E(xc)   XCENC  =      1421.86877663
  PAW double counting   =     35457.49113064   -36645.91128691
  entropy T*S    EENTRO =        -0.02626095
  eigenvalues    EBANDS =     -1183.15768239
  atomic energy  EATOM  =     31214.68969437
  Solvation  Ediel_sol  =         0.00000000
  ---------------------------------------------------
  free energy    TOTEN  =      -308.61220517 eV

  energy without entropy =     -308.58594422  energy(sigma->0) =     -308.59907470


--------------------------------------------------------------------------------------------------------




--------------------------------------- Iteration      1(  16)  ---------------------------------------


    POTLOK:  cpu time    0.1409: real time    0.1412
    SETDIJ:  cpu time    0.0209: real time    0.0209
     EDDAV:  cpu time    1.9650: real time    1.9698
    CHARGE:  cpu time    0.1323: real time    0.1326
    MIXING:  cpu time    0.0050: real time    0.0050
    --------------------------------------------
      LOOP:  cpu time    2.2641: real time    2.2696

 eigenvalue-minimisations  :  1328
 total energy-change (2. order) : 0.9298706E-01  (-0.3912741E-01)
 number of electron     354.9999830 magnetization       0.2349087
 augmentation part      116.5990241 magnetization       0.3701225

 Broyden mixing:
  rms(total) = 0.44282E+00    rms(broyden)= 0.44278E+00
  rms(prec ) = 0.50529E+00
  weight for this iteration     100.00

 eigenvalues of (default mixing * dielectric matrix)
  average eigenvalue GAMMA=   0.6422
  2.3621  0.9591  0.9591  0.5041  0.5041  0.4414  0.4414  0.1396  0.2704  0.2704
  0.2123

 Free energy of the ion-electron system (eV)
  ---------------------------------------------------
  alpha Z        PSCENC =      1092.17041089
  Ewald energy   TEWEN  =    -19642.93892884
  -Hartree energ DENC   =    -12021.88512584
  -exchange      EXHF   =         0.00000000
  -V(xc)+E(xc)   XCENC  =      1421.75879184
  PAW double counting   =     35517.56685590   -36705.88927909
  entropy T*S    EENTRO =        -0.02996737
  eigenvalues    EBANDS =     -1183.96166997
  atomic energy  EATOM  =     31214.68969437
  Solvation  Ediel_sol  =         0.00000000
  ---------------------------------------------------
  free energy    TOTEN  =      -308.51921811 eV

  energy without entropy =     -308.48925074  energy(sigma->0) =     -308.50423442


--------------------------------------------------------------------------------------------------------




--------------------------------------- Iteration      1(  17)  ---------------------------------------


    POTLOK:  cpu time    0.1398: real time    0.1401
    SETDIJ:  cpu time    0.0208: real time    0.0208
     EDDAV:  cpu time    1.7181: real time    1.7222
    CHARGE:  cpu time    0.1316: real time    0.1319
    MIXING:  cpu time    0.0050: real time    0.0051
    --------------------------------------------
      LOOP:  cpu time    2.0153: real time    2.0201

 eigenvalue-minimisations  :  1120
 total energy-change (2. order) :-0.8874957E-02  (-0.2862153E-01)
 number of electron     354.9999830 magnetization      -0.1199275
 augmentation part      116.5438907 magnetization       0.1395539

 Broyden mixing:
  rms(total) = 0.42161E+00    rms(broyden)= 0.42157E+00
  rms(prec ) = 0.48852E+00
  weight for this iteration     100.00

 eigenvalues of (default mixing * dielectric matrix)
  average eigenvalue GAMMA=   0.6328
  2.4449  0.9348  0.9348  0.5653  0.5653  0.4603  0.4603  0.3468  0.3468  0.1396
  0.2177  0.1770

 Free energy of the ion-electron system (eV)
  ---------------------------------------------------
  alpha Z        PSCENC =      1092.17041089
  Ewald energy   TEWEN  =    -19642.93892884
  -Hartree energ DENC   =    -12023.03078055
  -exchange      EXHF   =         0.00000000
  -V(xc)+E(xc)   XCENC  =      1421.76484672
  PAW double counting   =     35571.01643037   -36759.83392239
  entropy T*S    EENTRO =        -0.01816817
  eigenvalues    EBANDS =     -1182.34767547
  atomic energy  EATOM  =     31214.68969437
  Solvation  Ediel_sol  =         0.00000000
  ---------------------------------------------------
  free energy    TOTEN  =      -308.52809306 eV

  energy without entropy =     -308.50992490  energy(sigma->0) =     -308.51900898


--------------------------------------------------------------------------------------------------------




--------------------------------------- Iteration      1(  18)  ---------------------------------------


    POTLOK:  cpu time    0.1399: real time    0.1402
    SETDIJ:  cpu time    0.0208: real time    0.0208
     EDDAV:  cpu time    1.7200: real time    1.7241
    CHARGE:  cpu time    0.1323: real time    0.1326
    MIXING:  cpu time    0.0053: real time    0.0053
    --------------------------------------------
      LOOP:  cpu time    2.0182: real time    2.0230

 eigenvalue-minimisations  :  1120
 total energy-change (2. order) : 0.9966096E-02  (-0.8987618E-02)
 number of electron     354.9999830 magnetization      -0.3674053
 augmentation part      116.6086940 magnetization      -0.0670516

 Broyden mixing:
  rms(total) = 0.33277E+00    rms(broyden)= 0.33275E+00
  rms(prec ) = 0.38917E+00
  weight for this iteration     100.00

 eigenvalues of (default mixing * dielectric matrix)
  average eigenvalue GAMMA=   0.6590
  2.4864  1.0336  1.0336  0.6659  0.6659  0.5045  0.5045  0.4573  0.4005  0.1396
  0.2580  0.2089  0.2089

 Free energy of the ion-electron system (eV)
  ---------------------------------------------------
  alpha Z        PSCENC =      1092.17041089
  Ewald energy   TEWEN  =    -19642.93892884
  -Hartree energ DENC   =    -12023.28083327
  -exchange      EXHF   =         0.00000000
  -V(xc)+E(xc)   XCENC  =      1421.80475261
  PAW double counting   =     35595.37396450   -36783.90842190
  entropy T*S    EENTRO =        -0.01143124
  eigenvalues    EBANDS =     -1182.41733408
  atomic energy  EATOM  =     31214.68969437
  Solvation  Ediel_sol  =         0.00000000
  ---------------------------------------------------
  free energy    TOTEN  =      -308.51812697 eV

  energy without entropy =     -308.50669573  energy(sigma->0) =     -308.51241135


--------------------------------------------------------------------------------------------------------




--------------------------------------- Iteration      1(  19)  ---------------------------------------


    POTLOK:  cpu time    0.1396: real time    0.1399
    SETDIJ:  cpu time    0.0206: real time    0.0207
     EDDAV:  cpu time    1.7812: real time    1.7854
    CHARGE:  cpu time    0.1316: real time    0.1319
    MIXING:  cpu time    0.0055: real time    0.0055
    --------------------------------------------
      LOOP:  cpu time    2.0786: real time    2.0835

 eigenvalue-minimisations  :  1168
 total energy-change (2. order) : 0.9466611E-02  (-0.8326150E-02)
 number of electron     354.9999830 magnetization      -0.5873851
 augmentation part      116.6505798 magnetization      -0.3138949

 Broyden mixing:
  rms(total) = 0.25722E+00    rms(broyden)= 0.25720E+00
  rms(prec ) = 0.30993E+00
  weight for this iteration     100.00

 eigenvalues of (default mixing * dielectric matrix)
  average eigenvalue GAMMA=   0.7184
  2.5885  1.4108  1.2070  1.2070  0.5831  0.5831  0.5008  0.5008  0.3866  0.2998
  0.1396  0.2478  0.2088  0.1938

 Free energy of the ion-electron system (eV)
  ---------------------------------------------------
  alpha Z        PSCENC =      1092.17041089
  Ewald energy   TEWEN  =    -19642.93892884
  -Hartree energ DENC   =    -12023.80950350
  -exchange      EXHF   =         0.00000000
  -V(xc)+E(xc)   XCENC  =      1421.85774097
  PAW double counting   =     35595.40706407   -36783.48499744
  entropy T*S    EENTRO =        -0.01133102
  eigenvalues    EBANDS =     -1182.38880985
  atomic energy  EATOM  =     31214.68969437
  Solvation  Ediel_sol  =         0.00000000
  ---------------------------------------------------
  free energy    TOTEN  =      -308.50866036 eV

  energy without entropy =     -308.49732933  energy(sigma->0) =     -308.50299484


--------------------------------------------------------------------------------------------------------




--------------------------------------- Iteration      1(  20)  ---------------------------------------


    POTLOK:  cpu time    0.1398: real time    0.1402
    SETDIJ:  cpu time    0.0209: real time    0.0209
     EDDAV:  cpu time    1.8328: real time    1.8372
    CHARGE:  cpu time    0.1325: real time    0.1328
    MIXING:  cpu time    0.0056: real time    0.0057
    --------------------------------------------
      LOOP:  cpu time    2.1317: real time    2.1367

 eigenvalue-minimisations  :  1216
 total energy-change (2. order) : 0.2031858E-01  (-0.4974628E-02)
 number of electron     354.9999830 magnetization      -0.6538046
 augmentation part      116.5807238 magnetization      -0.4154174

 Broyden mixing:
  rms(total) = 0.16286E+00    rms(broyden)= 0.16283E+00
  rms(prec ) = 0.18936E+00
  weight for this iteration     100.00

 eigenvalues of (default mixing * dielectric matrix)
  average eigenvalue GAMMA=   0.7037
  2.6186  1.8226  1.0840  1.0840  0.5016  0.5016  0.5489  0.5489  0.4520  0.3646
  0.1396  0.2722  0.2194  0.1986  0.1986

 Free energy of the ion-electron system (eV)
  ---------------------------------------------------
  alpha Z        PSCENC =      1092.17041089
  Ewald energy   TEWEN  =    -19642.93892884
  -Hartree energ DENC   =    -12025.72545402
  -exchange      EXHF   =         0.00000000
  -V(xc)+E(xc)   XCENC  =      1421.91398589
  PAW double counting   =     35580.83007504   -36768.72627660
  entropy T*S    EENTRO =        -0.01345165
  eigenvalues    EBANDS =     -1180.68839685
  atomic energy  EATOM  =     31214.68969437
  Solvation  Ediel_sol  =         0.00000000
  ---------------------------------------------------
  free energy    TOTEN  =      -308.48834178 eV

  energy without entropy =     -308.47489013  energy(sigma->0) =     -308.48161595


--------------------------------------------------------------------------------------------------------




--------------------------------------- Iteration      1(  21)  ---------------------------------------


    POTLOK:  cpu time    0.1396: real time    0.1400
    SETDIJ:  cpu time    0.0205: real time    0.0205
     EDDAV:  cpu time    1.9591: real time    1.9637
    CHARGE:  cpu time    0.1278: real time    0.1281
    MIXING:  cpu time    0.0057: real time    0.0057
    --------------------------------------------
      LOOP:  cpu time    2.2526: real time    2.2580

 eigenvalue-minimisations  :  1424
 total energy-change (2. order) : 0.5529715E-02  (-0.1991549E-02)
 number of electron     354.9999829 magnetization      -0.6735768
 augmentation part      116.5326824 magnetization      -0.4469559

 Broyden mixing:
  rms(total) = 0.99370E-01    rms(broyden)= 0.99360E-01
  rms(prec ) = 0.11199E+00
  weight for this iteration     100.00

 eigenvalues of (default mixing * dielectric matrix)
  average eigenvalue GAMMA=   0.6979
  2.5002  2.0230  0.9644  0.9644  0.7432  0.5974  0.5974  0.4895  0.4895  0.3709
  0.3709  0.1396  0.2857  0.2285  0.2066  0.1947

 Free energy of the ion-electron system (eV)
  ---------------------------------------------------
  alpha Z        PSCENC =      1092.17041089
  Ewald energy   TEWEN  =    -19642.93892884
  -Hartree energ DENC   =    -12026.42577521
  -exchange      EXHF   =         0.00000000
  -V(xc)+E(xc)   XCENC  =      1421.90767275
  PAW double counting   =     35572.73855033   -36760.62127189
  entropy T*S    EENTRO =        -0.01555283
  eigenvalues    EBANDS =     -1179.98761162
  atomic energy  EATOM  =     31214.68969437
  Solvation  Ediel_sol  =         0.00000000
  ---------------------------------------------------
  free energy    TOTEN  =      -308.48281206 eV

  energy without entropy =     -308.46725923  energy(sigma->0) =     -308.47503564


--------------------------------------------------------------------------------------------------------




--------------------------------------- Iteration      1(  22)  ---------------------------------------


    POTLOK:  cpu time    0.1361: real time    0.1364
    SETDIJ:  cpu time    0.0205: real time    0.0205
     EDDAV:  cpu time    2.0070: real time    2.0117
    CHARGE:  cpu time    0.1326: real time    0.1330
    MIXING:  cpu time    0.0061: real time    0.0061
    --------------------------------------------
      LOOP:  cpu time    2.3023: real time    2.3077

 eigenvalue-minimisations  :  1424
 total energy-change (2. order) :-0.2947527E-05  (-0.1270369E-02)
 number of electron     354.9999829 magnetization      -0.6884278
 augmentation part      116.5349881 magnetization      -0.4730236

 Broyden mixing:
  rms(total) = 0.82446E-01    rms(broyden)= 0.82439E-01
  rms(prec ) = 0.92335E-01
  weight for this iteration     100.00

 eigenvalues of (default mixing * dielectric matrix)
  average eigenvalue GAMMA=   0.7154
  2.4875  2.1827  0.9720  0.9720  0.9292  0.7517  0.7517  0.4950  0.4950  0.4512
  0.3829  0.2922  0.1396  0.2472  0.2144  0.2006  0.1963

 Free energy of the ion-electron system (eV)
  ---------------------------------------------------
  alpha Z        PSCENC =      1092.17041089
  Ewald energy   TEWEN  =    -19642.93892884
  -Hartree energ DENC   =    -12026.25235117
  -exchange      EXHF   =         0.00000000
  -V(xc)+E(xc)   XCENC  =      1421.88741819
  PAW double counting   =     35566.60741993   -36754.31402118
  entropy T*S    EENTRO =        -0.01784761
  eigenvalues    EBANDS =     -1180.31460958
  atomic energy  EATOM  =     31214.68969437
  Solvation  Ediel_sol  =         0.00000000
  ---------------------------------------------------
  free energy    TOTEN  =      -308.48281501 eV

  energy without entropy =     -308.46496740  energy(sigma->0) =     -308.47389120


--------------------------------------------------------------------------------------------------------




--------------------------------------- Iteration      1(  23)  ---------------------------------------


    POTLOK:  cpu time    0.1410: real time    0.1414
    SETDIJ:  cpu time    0.0211: real time    0.0211
     EDDAV:  cpu time    1.9251: real time    1.9297
    CHARGE:  cpu time    0.1323: real time    0.1326
    MIXING:  cpu time    0.0064: real time    0.0064
    --------------------------------------------
      LOOP:  cpu time    2.2259: real time    2.2312

 eigenvalue-minimisations  :  1280
 total energy-change (2. order) :-0.3777890E-03  (-0.4859280E-03)
 number of electron     354.9999829 magnetization      -0.6927251
 augmentation part      116.5391955 magnetization      -0.4848974

 Broyden mixing:
  rms(total) = 0.52971E-01    rms(broyden)= 0.52965E-01
  rms(prec ) = 0.61884E-01
  weight for this iteration     100.00

 eigenvalues of (default mixing * dielectric matrix)
  average eigenvalue GAMMA=   0.7307
  2.7382  2.1880  1.1594  1.1594  0.9045  0.9045  0.4972  0.4972  0.5468  0.5468
  0.3969  0.3335  0.1396  0.2831  0.2388  0.2173  0.1950  0.2069

 Free energy of the ion-electron system (eV)
  ---------------------------------------------------
  alpha Z        PSCENC =      1092.17041089
  Ewald energy   TEWEN  =    -19642.93892884
  -Hartree energ DENC   =    -12026.05339298
  -exchange      EXHF   =         0.00000000
  -V(xc)+E(xc)   XCENC  =      1421.87181932
  PAW double counting   =     35563.82252942   -36751.39825758
  entropy T*S    EENTRO =        -0.02026085
  eigenvalues    EBANDS =     -1180.62680654
  atomic energy  EATOM  =     31214.68969437
  Solvation  Ediel_sol  =         0.00000000
  ---------------------------------------------------
  free energy    TOTEN  =      -308.48319280 eV

  energy without entropy =     -308.46293194  energy(sigma->0) =     -308.47306237


--------------------------------------------------------------------------------------------------------




--------------------------------------- Iteration      1(  24)  ---------------------------------------


    POTLOK:  cpu time    0.1407: real time    0.1410
    SETDIJ:  cpu time    0.0209: real time    0.0210
     EDDAV:  cpu time    1.8246: real time    1.8289
    CHARGE:  cpu time    0.1335: real time    0.1338
    MIXING:  cpu time    0.0066: real time    0.0066
    --------------------------------------------
      LOOP:  cpu time    2.1262: real time    2.1313

 eigenvalue-minimisations  :  1200
 total energy-change (2. order) : 0.1316449E-03  (-0.3374429E-03)
 number of electron     354.9999829 magnetization      -0.6972715
 augmentation part      116.5376259 magnetization      -0.4807770

 Broyden mixing:
  rms(total) = 0.41460E-01    rms(broyden)= 0.41456E-01
  rms(prec ) = 0.48467E-01
  weight for this iteration     100.00

 eigenvalues of (default mixing * dielectric matrix)
  average eigenvalue GAMMA=   0.7348
  2.7667  2.1700  1.2732  1.2732  0.9831  0.9831  0.4981  0.4981  0.5673  0.5673
  0.4706  0.3769  0.1396  0.2904  0.2795  0.2311  0.2062  0.1935  0.1935

 Free energy of the ion-electron system (eV)
  ---------------------------------------------------
  alpha Z        PSCENC =      1092.17041089
  Ewald energy   TEWEN  =    -19642.93892884
  -Hartree energ DENC   =    -12026.05853293
  -exchange      EXHF   =         0.00000000
  -V(xc)+E(xc)   XCENC  =      1421.86806706
  PAW double counting   =     35562.59304485   -36750.12953247
  entropy T*S    EENTRO =        -0.02037779
  eigenvalues    EBANDS =     -1180.65690628
  atomic energy  EATOM  =     31214.68969437
  Solvation  Ediel_sol  =         0.00000000
  ---------------------------------------------------
  free energy    TOTEN  =      -308.48306115 eV

  energy without entropy =     -308.46268336  energy(sigma->0) =     -308.47287226


--------------------------------------------------------------------------------------------------------




--------------------------------------- Iteration      1(  25)  ---------------------------------------


    POTLOK:  cpu time    0.1405: real time    0.1408
    SETDIJ:  cpu time    0.0209: real time    0.0209
     EDDAV:  cpu time    1.7964: real time    1.8007
    CHARGE:  cpu time    0.1327: real time    0.1330
    MIXING:  cpu time    0.0068: real time    0.0068
    --------------------------------------------
      LOOP:  cpu time    2.0973: real time    2.1023

 eigenvalue-minimisations  :  1184
 total energy-change (2. order) : 0.2454813E-03  (-0.7442730E-04)
 number of electron     354.9999829 magnetization      -0.7162476
 augmentation part      116.5388082 magnetization      -0.4976656

 Broyden mixing:
  rms(total) = 0.28333E-01    rms(broyden)= 0.28332E-01
  rms(prec ) = 0.33340E-01
  weight for this iteration     100.00

 eigenvalues of (default mixing * dielectric matrix)
  average eigenvalue GAMMA=   0.7595
  2.8702  2.0423  1.4738  1.4738  1.1187  1.1187  0.6265  0.6265  0.4955  0.4955
  0.5130  0.4277  0.3743  0.1396  0.2955  0.2704  0.2288  0.2050  0.1998  0.1948

 Free energy of the ion-electron system (eV)
  ---------------------------------------------------
  alpha Z        PSCENC =      1092.17041089
  Ewald energy   TEWEN  =    -19642.93892884
  -Hartree energ DENC   =    -12026.11509756
  -exchange      EXHF   =         0.00000000
  -V(xc)+E(xc)   XCENC  =      1421.87067241
  PAW double counting   =     35560.83956397   -36748.33764482
  entropy T*S    EENTRO =        -0.02088764
  eigenvalues    EBANDS =     -1180.64059845
  atomic energy  EATOM  =     31214.68969437
  Solvation  Ediel_sol  =         0.00000000
  ---------------------------------------------------
  free energy    TOTEN  =      -308.48281567 eV

  energy without entropy =     -308.46192803  energy(sigma->0) =     -308.47237185


--------------------------------------------------------------------------------------------------------




--------------------------------------- Iteration      1(  26)  ---------------------------------------


    POTLOK:  cpu time    0.1409: real time    0.1412
    SETDIJ:  cpu time    0.0209: real time    0.0210
     EDDAV:  cpu time    2.0354: real time    2.0402
    CHARGE:  cpu time    0.1330: real time    0.1333
    MIXING:  cpu time    0.0070: real time    0.0070
    --------------------------------------------
      LOOP:  cpu time    2.3371: real time    2.3426

 eigenvalue-minimisations  :  1376
 total energy-change (2. order) : 0.1098072E-03  (-0.3853221E-04)
 number of electron     354.9999829 magnetization      -0.7245475
 augmentation part      116.5319286 magnetization      -0.5050381

 Broyden mixing:
  rms(total) = 0.18598E-01    rms(broyden)= 0.18597E-01
  rms(prec ) = 0.22962E-01
  weight for this iteration     100.00

 eigenvalues of (default mixing * dielectric matrix)
  average eigenvalue GAMMA=   0.7614
  2.8802  1.9919  1.9919  1.3094  1.1424  1.1424  0.6483  0.6483  0.4950  0.4950
  0.4925  0.4476  0.4111  0.3625  0.1396  0.2972  0.2653  0.2289  0.2051  0.1954
  0.1991

 Free energy of the ion-electron system (eV)
  ---------------------------------------------------
  alpha Z        PSCENC =      1092.17041089
  Ewald energy   TEWEN  =    -19642.93892884
  -Hartree energ DENC   =    -12026.33004202
  -exchange      EXHF   =         0.00000000
  -V(xc)+E(xc)   XCENC  =      1421.87743347
  PAW double counting   =     35559.02308607   -36746.51129060
  entropy T*S    EENTRO =        -0.02127581
  eigenvalues    EBANDS =     -1180.44179339
  atomic energy  EATOM  =     31214.68969437
  Solvation  Ediel_sol  =         0.00000000
  ---------------------------------------------------
  free energy    TOTEN  =      -308.48270586 eV

  energy without entropy =     -308.46143006  energy(sigma->0) =     -308.47206796


--------------------------------------------------------------------------------------------------------




--------------------------------------- Iteration      1(  27)  ---------------------------------------


    POTLOK:  cpu time    0.1406: real time    0.1409
    SETDIJ:  cpu time    0.0208: real time    0.0208
     EDDAV:  cpu time    2.0346: real time    2.0394
    CHARGE:  cpu time    0.1326: real time    0.1329
    MIXING:  cpu time    0.0073: real time    0.0073
    --------------------------------------------
      LOOP:  cpu time    2.3358: real time    2.3414

 eigenvalue-minimisations  :  1376
 total energy-change (2. order) : 0.1008888E-03  (-0.3214405E-04)
 number of electron     354.9999829 magnetization      -0.7289127
 augmentation part      116.5306771 magnetization      -0.5074567

 Broyden mixing:
  rms(total) = 0.12246E-01    rms(broyden)= 0.12245E-01
  rms(prec ) = 0.15092E-01
  weight for this iteration     100.00

 eigenvalues of (default mixing * dielectric matrix)
  average eigenvalue GAMMA=   0.7701
  2.8584  2.2098  2.2098  1.2149  1.1517  1.1517  0.7137  0.7137  0.4965  0.4965
  0.5518  0.5518  0.4410  0.3733  0.1396  0.3020  0.2693  0.2693  0.2286  0.2049
  0.1949  0.1990

 Free energy of the ion-electron system (eV)
  ---------------------------------------------------
  alpha Z        PSCENC =      1092.17041089
  Ewald energy   TEWEN  =    -19642.93892884
  -Hartree energ DENC   =    -12026.36734257
  -exchange      EXHF   =         0.00000000
  -V(xc)+E(xc)   XCENC  =      1421.87720826
  PAW double counting   =     35557.67509610   -36745.14404449
  entropy T*S    EENTRO =        -0.02134678
  eigenvalues    EBANDS =     -1180.42335192
  atomic energy  EATOM  =     31214.68969437
  Solvation  Ediel_sol  =         0.00000000
  ---------------------------------------------------
  free energy    TOTEN  =      -308.48260497 eV

  energy without entropy =     -308.46125820  energy(sigma->0) =     -308.47193159


--------------------------------------------------------------------------------------------------------




--------------------------------------- Iteration      1(  28)  ---------------------------------------


    POTLOK:  cpu time    0.1405: real time    0.1408
    SETDIJ:  cpu time    0.0211: real time    0.0212
     EDDAV:  cpu time    1.8598: real time    1.8642
    CHARGE:  cpu time    0.1267: real time    0.1270
    MIXING:  cpu time    0.0073: real time    0.0074
    --------------------------------------------
      LOOP:  cpu time    2.1555: real time    2.1606

 eigenvalue-minimisations  :  1328
 total energy-change (2. order) : 0.3820482E-04  (-0.1228271E-04)
 number of electron     354.9999829 magnetization      -0.7367748
 augmentation part      116.5295884 magnetization      -0.5142909

 Broyden mixing:
  rms(total) = 0.89554E-02    rms(broyden)= 0.89546E-02
  rms(prec ) = 0.10657E-01
  weight for this iteration     100.00

 eigenvalues of (default mixing * dielectric matrix)
  average eigenvalue GAMMA=   0.7886
[...]
  Hartree  8140.49470  8356.71934 -4370.57483    -0.00000     0.00000   254.81568
  E(xc)   -1811.67997 -1811.70867 -1814.90650     0.00000     0.00000    -0.17376
  Local  -14045.00705-14721.45423 15346.93164     0.00000    -0.00000  -666.92251
  n-local  -785.59631  -771.75849  -806.99865     0.00000    -0.00000     7.11982
  augment  3002.21452  2968.71207  3072.46108     0.00000    -0.00000   -11.27609
  Kinetic  5386.67794  5348.39543  5579.62869    -0.00000     0.00000   -23.16454
  Fock        0.00000     0.00000     0.00000     0.00000     0.00000     0.00000
  -------------------------------------------------------------------------------------
  Total        0.6269980      0.4316688      0.5600794      0.0000000      0.0000000     -0.0972389
  in kB        1.9678889      1.3548310      1.7578589      0.0000000      0.0000000     -0.3051930
  external PRESSURE =       1.6935263 kB  Pullay stress =       0.0000000 kB


 VOLUME and BASIS-vectors are now :
 -----------------------------------------------------------------------------
  energy-cutoff  :      500.00
  volume of cell :      510.48
      direct lattice vectors                 reciprocal lattice vectors
     0.000000000  5.571688386  0.000000000     0.000000000  0.179478810  0.000000000
    -3.457853518  0.000000000  9.417369740    -0.001521746  0.000000000  0.105628010
     9.677617207  0.000000000  0.139422045     0.102787495  0.000000000  0.037741334

  length of vectors
     5.571688386 10.032128576  9.678621457     0.179478810  0.105638971  0.109497385


 FORCES acting on ions
    electron-ion (+dipol)            ewald-force                    non-local-force                 convergence-correction
 -----------------------------------------------------------------------------------------------
   0.620E-01 0.218E-12 -.358E+00   -.356E-01 -.430E-13 0.351E+00   -.331E-01 0.000E+00 0.967E-02   -.600E-03 0.725E-13 0.176E-02
   -.782E+01 0.694E-13 -.278E+02   0.788E+01 0.839E-13 0.278E+02   -.256E-01 0.000E+00 0.303E-02   -.206E-01 0.199E-13 0.415E-02
   0.302E+01 -.219E+01 -.241E+02   -.313E+01 0.218E+01 0.243E+02   0.965E-01 0.683E-02 -.165E+00   0.156E-01 -.184E-02 0.609E-02
   -.124E+02 0.125E+02 0.230E+02   0.128E+02 -.127E+02 -.240E+02   -.331E+00 0.186E+00 0.998E+00   -.530E-02 -.151E-01 0.167E-01
   -.124E+02 -.125E+02 0.230E+02   0.128E+02 0.127E+02 -.240E+02   -.331E+00 -.186E+00 0.998E+00   -.530E-02 0.151E-01 0.167E-01
   0.302E+01 0.219E+01 -.241E+02   -.313E+01 -.218E+01 0.243E+02   0.965E-01 -.683E-02 -.165E+00   0.156E-01 0.184E-02 0.609E-02
   -.342E+01 0.104E-11 -.344E+02   0.355E+01 -.977E-13 0.342E+02   -.121E+00 0.000E+00 0.116E+00   -.149E-01 -.560E-13 0.260E-02
   0.536E+01 0.233E-13 -.257E+02   -.548E+01 -.150E-12 0.255E+02   0.110E+00 0.000E+00 0.177E+00   0.122E-01 0.122E-12 0.106E-01
   0.275E+02 0.995E-12 0.302E+02   -.278E+02 -.846E-13 -.311E+02   0.297E+00 0.000E+00 0.834E+00   0.252E-02 -.190E-12 0.148E-01
   0.749E+01 -.169E-13 0.281E+02   -.753E+01 0.588E-13 -.281E+02   0.194E-01 0.000E+00 0.533E-03   0.157E-01 0.615E-12 -.352E-02
   0.117E+02 0.128E+02 -.208E+02   -.121E+02 -.130E+02 0.218E+02   0.333E+00 0.187E+00 -.968E+00   -.273E-02 -.105E-01 -.141E-01
   -.169E+01 -.218E+01 0.218E+02   0.178E+01 0.216E+01 -.220E+02   -.885E-01 0.588E-02 0.139E+00   -.631E-03 0.980E-03 -.323E-02
   -.169E+01 0.218E+01 0.218E+02   0.178E+01 -.216E+01 -.220E+02   -.885E-01 -.588E-02 0.139E+00   -.631E-03 -.980E-03 -.323E-02
   0.117E+02 -.128E+02 -.208E+02   -.121E+02 0.130E+02 0.218E+02   0.333E+00 -.187E+00 -.968E+00   -.273E-02 0.105E-01 -.141E-01
   0.314E+01 0.935E-12 0.348E+02   -.327E+01 0.282E-13 -.347E+02   0.116E+00 0.000E+00 -.112E+00   0.112E-01 -.703E-12 -.266E-02
   -.559E+01 0.110E-14 0.259E+02   0.573E+01 -.238E-12 -.257E+02   -.112E+00 0.000E+00 -.180E+00   -.135E-01 -.395E-12 -.107E-01
   -.277E+02 0.973E-12 -.308E+02   0.280E+02 -.645E-14 0.317E+02   -.301E+00 0.000E+00 -.846E+00   -.510E-02 0.313E-12 -.148E-01
   0.109E+02 0.659E-13 0.399E+03   -.106E+02 -.221E-14 -.426E+03   -.280E+00 0.000E+00 0.266E+02   0.614E-02 0.414E-13 0.861E-02
   0.206E+01 -.111E-12 -.377E+03   -.240E+01 0.203E-13 0.405E+03   0.337E+00 0.000E+00 -.275E+02   0.548E-02 -.188E-12 -.366E-02
   0.789E+00 -.100E-12 -.402E+03   -.880E+00 -.423E-13 0.430E+03   0.744E-01 0.000E+00 -.272E+02   0.661E-02 0.428E-12 -.359E-03
   0.139E+02 0.150E-12 0.383E+03   -.150E+02 0.156E-13 -.410E+03   0.118E+01 0.000E+00 0.275E+02   0.840E-02 -.212E-13 0.177E-01
   -.202E+02 0.291E+02 0.374E+03   0.216E+02 -.311E+02 -.396E+03   -.146E+01 0.208E+01 0.227E+02   -.584E-02 -.136E-01 0.331E-02
   -.821E+01 0.240E+01 -.382E+03   0.826E+01 -.291E+01 0.410E+03   -.451E-01 0.514E+00 -.274E+02   -.585E-02 -.118E-01 -.111E-01
   -.821E+01 -.240E+01 -.382E+03   0.826E+01 0.291E+01 0.410E+03   -.451E-01 -.514E+00 -.274E+02   -.585E-02 0.118E-01 -.111E-01
   -.202E+02 -.291E+02 0.374E+03   0.216E+02 0.311E+02 -.396E+03   -.146E+01 -.208E+01 0.227E+02   -.584E-02 0.136E-01 0.331E-02
   -.121E+01 0.256E+00 -.404E+03   0.627E+00 -.350E+00 0.431E+03   0.580E+00 0.111E+00 -.270E+02   0.514E-02 -.158E-01 0.980E-02
   -.128E+02 -.116E+01 0.374E+03   0.143E+02 0.142E+01 -.401E+03   -.148E+01 -.241E+00 0.271E+02   -.225E-01 -.172E-01 -.185E-02
   -.128E+02 0.116E+01 0.374E+03   0.143E+02 -.142E+01 -.401E+03   -.148E+01 0.241E+00 0.271E+02   -.225E-01 0.172E-01 -.185E-02
   -.121E+01 -.256E+00 -.404E+03   0.627E+00 0.350E+00 0.431E+03   0.580E+00 -.111E+00 -.270E+02   0.514E-02 0.158E-01 0.980E-02
   0.409E+02 0.306E-12 0.377E+03   -.438E+02 0.612E-13 -.399E+03   0.284E+01 0.000E+00 0.225E+02   0.371E-02 -.943E-13 0.656E-02
   0.238E+01 0.492E-13 -.376E+03   -.258E+01 -.714E-13 0.403E+03   0.194E+00 0.000E+00 -.273E+02   0.561E-02 0.207E-12 -.512E-02
   0.629E+01 0.106E-12 -.398E+03   -.620E+01 -.468E-13 0.425E+03   -.967E-01 0.000E+00 -.270E+02   -.252E-02 -.405E-12 0.581E-02
   0.660E+01 0.376E-12 0.391E+03   -.659E+01 -.667E-13 -.418E+03   -.136E-01 0.000E+00 0.272E+02   0.144E-01 -.436E-13 0.105E-01
   -.977E+00 -.715E-13 0.403E+03   0.116E+01 -.294E-14 -.430E+03   -.162E+00 0.000E+00 0.272E+02   -.143E-01 -.130E-12 0.553E-02
   -.134E+02 0.274E-13 -.383E+03   0.145E+02 0.653E-13 0.411E+03   -.107E+01 0.000E+00 -.275E+02   0.100E-02 0.698E-14 -.215E-01
   -.106E+02 0.101E-12 -.400E+03   0.103E+02 0.571E-13 0.426E+03   0.369E+00 0.000E+00 -.266E+02   -.141E-01 -.295E-13 -.595E-02
   -.224E+01 -.815E-13 0.377E+03   0.266E+01 0.648E-13 -.405E+03   -.421E+00 0.000E+00 0.275E+02   0.171E-02 0.520E-13 -.102E-02
   0.208E+01 0.157E+00 0.403E+03   -.156E+01 -.264E+00 -.430E+03   -.514E+00 0.111E+00 0.270E+02   0.828E-02 -.983E-03 0.518E-02
   0.117E+02 -.117E+01 -.374E+03   -.131E+02 0.141E+01 0.401E+03   0.140E+01 -.239E+00 -.271E+02   0.699E-02 -.256E-02 -.118E-01
   0.117E+02 0.117E+01 -.374E+03   -.131E+02 -.141E+01 0.401E+03   0.140E+01 0.239E+00 -.271E+02   0.699E-02 0.256E-02 -.118E-01
   0.208E+01 -.157E+00 0.403E+03   -.156E+01 0.264E+00 -.430E+03   -.514E+00 -.111E+00 0.270E+02   0.828E-02 0.983E-03 0.518E-02
   0.192E+02 0.287E+02 -.373E+03   -.206E+02 -.308E+02 0.396E+03   0.139E+01 0.206E+01 -.227E+02   0.131E-01 -.121E-01 0.580E-02
   0.917E+01 0.229E+01 0.382E+03   -.927E+01 -.278E+01 -.409E+03   0.109E+00 0.507E+00 0.274E+02   0.284E-03 -.991E-02 0.138E-02
   0.917E+01 -.229E+01 0.382E+03   -.927E+01 0.278E+01 -.409E+03   0.109E+00 -.507E+00 0.274E+02   0.284E-03 0.991E-02 0.138E-02
   0.192E+02 -.287E+02 -.373E+03   -.206E+02 0.308E+02 0.396E+03   0.139E+01 -.206E+01 -.227E+02   0.131E-01 0.121E-01 0.580E-02
   -.668E+01 0.122E-12 0.398E+03   0.667E+01 -.753E-13 -.425E+03   0.138E-01 0.000E+00 0.270E+02   -.173E-02 0.627E-13 0.424E-03
   -.614E+01 0.250E-12 -.391E+03   0.603E+01 0.102E-13 0.418E+03   0.123E+00 0.000E+00 -.273E+02   -.901E-02 0.249E-13 -.155E-01
   -.407E+02 0.313E-12 -.376E+03   0.436E+02 0.134E-13 0.399E+03   -.278E+01 0.000E+00 -.224E+02   -.257E-01 0.677E-13 0.258E-02
   -.274E+01 0.152E-12 0.376E+03   0.301E+01 0.415E-14 -.403E+03   -.289E+00 0.000E+00 0.273E+02   0.169E-01 -.114E-12 -.692E-02
 -----------------------------------------------------------------------------------------------
   0.450E-01 0.240E-10 -.461E-01   -.131E-12 -.794E-13 -.171E-12   -.519E-01 0.000E+00 0.338E-01   0.255E-02 -.416E-12 0.123E-01
 
 
 POSITION                                       TOTAL-FORCE (eV/Angst)
 -----------------------------------------------------------------------------------
      6.40304      2.78584      2.45650        -0.007244      0.000000      0.003676
      6.22116     -0.00000      9.54145         0.009902      0.000000     -0.003395
      2.41799      1.39172      0.03032         0.000588     -0.010969     -0.016541
      3.80119      1.38924      9.45845        -0.011941      0.003527      0.000174
      3.80119      4.18244      9.45845        -0.011941     -0.003527      0.000174
      2.41799      4.17997      0.03032         0.000588      0.010969     -0.016541
      6.21972      2.78584      9.55057        -0.000137      0.000000     -0.002352
      1.37961     -0.00000      9.47430        -0.005358      0.000000     -0.004578
      1.37665      2.78584      9.43413        -0.002273      0.000000     -0.007002
      3.10786     -0.00000      4.79335        -0.004939      0.000000      0.005885
      5.52864      1.38948      4.87049         0.001403     -0.003808      0.005263
      0.69154      1.39175      4.75420        -0.000766     -0.012276      0.007210
      0.69154      4.17994      4.75420        -0.000766      0.012276      0.007210
      5.52864      4.18221      4.87049         0.001403      0.003808      0.005263
      3.10946      2.78584      4.78414        -0.000996      0.000000      0.004995
     -1.72811     -0.00000      4.72118         0.010754      0.000000      0.008763
     -1.72531      2.78584      4.76190         0.008302      0.000000      0.011093
      4.78046     -0.00000      3.91540         0.004050      0.000000      0.004689
      1.45518     -0.00000      5.68725        -0.001058      0.000000      0.000575
      3.18055     -0.00000      0.96857        -0.009312      0.000000     -0.009168
      3.03955     -0.00000      8.52892         0.004956      0.000000      0.009451
      7.16649      1.41834      3.94099        -0.000022     -0.002628      0.002665
     -0.95486      1.37793      5.66699        -0.003138     -0.000705     -0.005350
     -0.95486      4.19375      5.66699        -0.003138      0.000705     -0.005350
      7.16649      4.15335      3.94099        -0.000022      0.002628      0.002665
      0.76494      1.39202      0.92716        -0.002077      0.001349     -0.012743
      5.46273      1.39377      8.59960        -0.004473      0.000685     -0.001264
      5.46273      4.17792      8.59960        -0.004473     -0.000685     -0.001264
      0.76494      4.17967      0.92716        -0.002077     -0.001349     -0.012743
      4.81342      2.78584      3.89258        -0.000302      0.000000      0.003741
      1.45798      2.78584      5.68652         0.001802      0.000000      0.004707
      3.19472      2.78584      0.95507        -0.002082      0.000000     -0.008652
      3.03872      2.78584      8.51792         0.003425      0.000000      0.011559
     -0.06929     -0.00000      3.81490         0.003986      0.000000      0.008364
      6.28865     -0.00000      5.80103        -0.000119      0.000000     -0.007297
      8.00541     -0.00000      0.99716        -0.000718      0.000000      0.002889
     -1.80189     -0.00000      8.51385        -0.001356      0.000000     -0.007586
      2.34144      1.39198      3.85375         0.006900      0.002831      0.009001
      3.86928      1.39381      5.73219         0.002207      0.001973      0.001056
      3.86928      4.17788      5.73219         0.002207     -0.001973      0.001056
      2.34144      4.17971      3.85375         0.006900     -0.002831      0.009001
      5.62346      1.41794      0.97358        -0.003304      0.000723      0.000319
      0.60357      1.37797      8.53180         0.005846      0.002202     -0.001965
      0.60357      4.19371      8.53180         0.005846     -0.002202     -0.001965
      5.62346      4.15375      0.97358        -0.003304     -0.000723      0.000319
     -0.08416      2.78584      3.82876         0.004153      0.000000      0.003341
      6.28923      2.78584      5.81217        -0.000282      0.000000     -0.001392
      7.97322      2.78584      1.01957         0.002531      0.000000      0.004258
     -1.80503      2.78584      8.51465        -0.000130      0.000000     -0.012215
 -----------------------------------------------------------------------------------
    total drift:                               -0.004347      0.000000      0.000022


--------------------------------------------------------------------------------------------------------



  FREE ENERGIE OF THE ION-ELECTRON SYSTEM (eV)
  ---------------------------------------------------
  free  energy   TOTEN  =      -308.4869110428 eV

  energy  without entropy=     -308.4649960961  energy(sigma->0) =     -308.47595357
 
 d Force = 0.9702986E-03[ 0.657E-03, 0.128E-02]  d Energy = 0.1617917E-02-0.648E-03
 d Force =-0.2358956E+02[-0.237E+02,-0.235E+02]  d Ewald  =-0.5942927E+02 0.358E+02


--------------------------------------------------------------------------------------------------------


    POTLOK:  cpu time    0.1618: real time    0.1622


--------------------------------------------------------------------------------------------------------


 Quasi-Newton relaxation of ions (Broydens 2nd method)
  g(Force)  = 0.204E-03   g(Stress)= 0.898E-03

 retain information from N=  3 steps
 eigenvalues of (default step * inverse Hessian matrix)
  average eigenvalue of G=   2.3476
 eigenvalue spectrum of G is  3.2072  3.2072  0.6283


--------------------------------------------------------------------------------------------------------


  
 reached required accuracy - stopping structural energy minimisation
     LOOP+:  cpu time   23.8445: real time   23.9477
    4ORBIT:  cpu time    0.0000: real time    0.0000

volume of typ            1:     1.5 %

volume of typ            2:    20.0 %

volume of typ            3:    10.2 %
 
total charge     
 
# of ion       s       p       d       tot
------------------------------------------
    1        2.060   0.193   0.073   2.326
    2        0.303   0.429   7.827   8.559
    3        0.305   0.433   7.824   8.562
    4        0.306   0.436   7.828   8.569
    5        0.306   0.436   7.828   8.569
    6        0.305   0.433   7.824   8.562
    7        0.299   0.420   7.830   8.548
    8        0.296   0.413   7.828   8.537
    9        0.303   0.428   7.834   8.565
   10        0.303   0.429   7.827   8.559
   11        0.306   0.436   7.828   8.569
   12        0.305   0.433   7.824   8.562
   13        0.305   0.433   7.824   8.562
   14        0.306   0.436   7.828   8.569
   15        0.298   0.420   7.829   8.547
   16        0.296   0.414   7.827   8.537
   17        0.303   0.428   7.833   8.565
   18        1.282   2.734   0.008   4.024
   19        1.284   2.730   0.009   4.022
   20        1.284   2.728   0.008   4.020
   21        1.285   2.726   0.008   4.019
   22        1.272   2.763   0.008   4.042
   23        1.284   2.727   0.008   4.020
   24        1.284   2.727   0.008   4.020
   25        1.272   2.763   0.008   4.042
   26        1.284   2.729   0.008   4.021
   27        1.284   2.729   0.008   4.022
   28        1.284   2.729   0.008   4.022
   29        1.284   2.729   0.008   4.021
   30        1.272   2.760   0.008   4.040
   31        1.285   2.727   0.008   4.020
   32        1.283   2.730   0.008   4.022
   33        1.284   2.725   0.008   4.018
   34        1.284   2.728   0.008   4.020
   35        1.284   2.726   0.008   4.019
   36        1.282   2.734   0.008   4.024
   37        1.284   2.730   0.009   4.023
   38        1.284   2.729   0.008   4.021
   39        1.284   2.730   0.008   4.022
   40        1.284   2.730   0.008   4.022
   41        1.284   2.729   0.008   4.021
   42        1.272   2.762   0.008   4.042
   43        1.284   2.727   0.008   4.020
   44        1.284   2.727   0.008   4.020
   45        1.272   2.762   0.008   4.042
   46        1.283   2.731   0.008   4.022
   47        1.284   2.726   0.008   4.018
   48        1.272   2.761   0.008   4.041
   49        1.285   2.727   0.008   4.020
--------------------------------------------------
tot          47.92   94.57  125.58  268.06
 
magnetization (x)
 
# of ion       s       p       d       tot
------------------------------------------
    1       -0.003   0.000  -0.000  -0.003
    2       -0.000   0.000  -0.056  -0.056
    3        0.000  -0.001   0.008   0.007
    4        0.000  -0.000   0.008   0.007
    5        0.000  -0.000   0.008   0.007
    6        0.000  -0.001   0.008   0.007
    7       -0.000   0.000  -0.097  -0.097
    8       -0.000   0.000  -0.099  -0.099
    9       -0.000   0.000  -0.066  -0.066
   10       -0.000   0.000  -0.056  -0.056
   11        0.000  -0.000   0.008   0.007
   12        0.000  -0.001   0.008   0.007
   13        0.000  -0.001   0.008   0.007
   14        0.000  -0.000   0.008   0.007
   15       -0.000   0.000  -0.098  -0.098
   16       -0.000   0.000  -0.098  -0.098
   17       -0.000   0.000  -0.065  -0.065
   18       -0.001  -0.003  -0.000  -0.003
   19       -0.001  -0.003  -0.000  -0.003
   20       -0.001  -0.008  -0.000  -0.008
   21       -0.001  -0.007  -0.000  -0.008
   22       -0.001  -0.000  -0.000  -0.001
   23       -0.001  -0.001  -0.000  -0.002
   24       -0.001  -0.001  -0.000  -0.002
   25       -0.001  -0.000  -0.000  -0.001
   26       -0.001  -0.000  -0.000  -0.001
   27       -0.001  -0.000  -0.000  -0.001
   28       -0.001  -0.000  -0.000  -0.001
   29       -0.001  -0.000  -0.000  -0.001
   30       -0.001  -0.006  -0.000  -0.007
   31       -0.001  -0.007  -0.000  -0.008
   32       -0.001  -0.005  -0.000  -0.005
   33       -0.001  -0.004  -0.000  -0.004
   34       -0.001  -0.007  -0.000  -0.008
   35       -0.001  -0.007  -0.000  -0.008
   36       -0.001  -0.003  -0.000  -0.003
   37       -0.001  -0.003  -0.000  -0.003
   38       -0.001  -0.000  -0.000  -0.001
   39       -0.001  -0.000  -0.000  -0.001
   40       -0.001  -0.000  -0.000  -0.001
   41       -0.001  -0.000  -0.000  -0.001
   42       -0.001  -0.000  -0.000  -0.001
   43       -0.001  -0.001  -0.000  -0.002
   44       -0.001  -0.001  -0.000  -0.002
   45       -0.001  -0.000  -0.000  -0.001
   46       -0.001  -0.004  -0.000  -0.005
   47       -0.001  -0.004  -0.000  -0.004
   48       -0.001  -0.006  -0.000  -0.007
   49       -0.001  -0.007  -0.000  -0.008
--------------------------------------------------
tot          -0.03   -0.09   -0.57   -0.70
 

 total amount of memory used by VASP MPI-rank0    92896. kBytes
=======================================================================

   base      :      30000. kBytes
   nonlr-proj:      21589. kBytes
   fftplans  :       5544. kBytes
   grid      :      31764. kBytes
   one-center:        762. kBytes
   wavefun   :       3237. kBytes
 
  
  
 General timing and accounting informations for this job:
 ========================================================
  
                  Total CPU time used (sec):      180.041
                            User time (sec):      177.538
                          System time (sec):        2.503
                         Elapsed time (sec):      185.096
  
                   Maximum memory used (kb):      123364.
                   Average memory used (kb):           0.
  
                          Minor page faults:        46185
                          Major page faults:           43
                 Voluntary context switches:         1303
