 vasp.5.4.4.18Apr17-6-g9f103f2a35 (build May 12 2020 05:39:39) gamma-only       
  
 MD_VERSION_INFO: Compiled 2020-05-12T12:39:39-UTC in devlin.sd.materialsdesign.
 com:/home/medea2/data/build/wwolf/vasp-gpu5.4.4/13047/x86_64/src/src/build/gam 
 from svn 13047
 
 This VASP executable licensed from Materials Design, Inc.
 
 executed on                        Lin64 date 2023.03.07  06:05:45
 running on   16 total cores
 distrk:  each k-point on   16 cores,    1 groups
 distr:  one band on NCORES_PER_BAND=   1 cores,   16 groups


--------------------------------------------------------------------------------------------------------


 INCAR:
 POTCAR:    PAW_PBE Li_sv 10Sep2004               
 POTCAR:    PAW_PBE Ni 02Aug2007                  
 POTCAR:    PAW_PBE O 08Apr2002                   

 ----------------------------------------------------------------------------- 
|                                                                             |
|           W    W    AA    RRRRR   N    N  II  N    N   GGGG   !!!           |
|           W    W   A  A   R    R  NN   N  II  NN   N  G    G  !!!           |
|           W    W  A    A  R    R  N N  N  II  N N  N  G       !!!           |
|           W WW W  AAAAAA  RRRRR   N  N N  II  N  N N  G  GGG   !            |
|           WW  WW  A    A  R   R   N   NN  II  N   NN  G    G                |
|           W    W  A    A  R    R  N    N  II  N    N   GGGG   !!!           |
|                                                                             |
|      For optimal performance we recommend to set                            |
|        NCORE= 4 - approx SQRT( number of cores)                             |
|      NCORE specifies how many cores store one orbital (NPAR=cpu/NCORE).     |
|      This setting can  greatly improve the performance of VASP for DFT.     |
|      The default,   NCORE=1            might be grossly inefficient         |
|      on modern multi-core architectures or massively parallel machines.     |
|      Do your own testing !!!!                                               |
|      Unfortunately you need to use the default for GW and RPA calculations. |
|      (for HF NCORE is supported but not extensively tested yet)             |
|                                                                             |
 ----------------------------------------------------------------------------- 

 POTCAR:    PAW_PBE Li_sv 10Sep2004               
  local pseudopotential read in
  atomic valenz-charges read in
  non local Contribution for L=           0  read in
    real space projection operators read in
  non local Contribution for L=           0  read in
    real space projection operators read in
  non local Contribution for L=           1  read in
    real space projection operators read in
    PAW grid and wavefunctions read in
 
   number of l-projection  operators is LMAX  =           3
   number of lm-projection operators is LMMAX =           5
 
 POTCAR:    PAW_PBE Ni 02Aug2007                  
  local pseudopotential read in
  partial core-charges read in
  partial kinetic energy density read in
  atomic valenz-charges read in
  non local Contribution for L=           2  read in
    real space projection operators read in
  non local Contribution for L=           2  read in
    real space projection operators read in
  non local Contribution for L=           0  read in
    real space projection operators read in
  non local Contribution for L=           0  read in
    real space projection operators read in
  non local Contribution for L=           1  read in
    real space projection operators read in
  non local Contribution for L=           1  read in
    real space projection operators read in
    PAW grid and wavefunctions read in
 
   number of l-projection  operators is LMAX  =           6
   number of lm-projection operators is LMMAX =          18
 
 POTCAR:    PAW_PBE O 08Apr2002                   
  local pseudopotential read in
  partial core-charges read in
  partial kinetic energy density read in
  kinetic energy density of atom read in
  atomic valenz-charges read in
  non local Contribution for L=           0  read in
    real space projection operators read in
  non local Contribution for L=           0  read in
    real space projection operators read in
  non local Contribution for L=           1  read in
    real space projection operators read in
  non local Contribution for L=           1  read in
    real space projection operators read in
    PAW grid and wavefunctions read in
 
   number of l-projection  operators is LMAX  =           4
   number of lm-projection operators is LMMAX =           8
 
 Optimization of the real space projectors (new method)

 maximal supplied QI-value         = 22.11
 optimisation between [QCUT,QGAM] = [ 11.28, 22.77] = [ 35.61,145.23] Ry 
 Optimized for a Real-space Cutoff    1.10 Angstroem

   l    n(q)    QCUT    max X(q) W(low)/X(q) W(high)/X(q)  e(spline) 
   0      7    11.276    10.506    0.54E-04    0.58E-04    0.16E-07
   0      7    11.276     8.367    0.11E-03    0.14E-03    0.35E-07
   1      7    11.276     8.983    0.23E-03    0.43E-03    0.86E-07
 Optimization of the real space projectors (new method)

 maximal supplied QI-value         = 16.25
 optimisation between [QCUT,QGAM] = [ 11.38, 22.75] = [ 36.24,144.96] Ry 
 Optimized for a Real-space Cutoff    1.47 Angstroem

   l    n(q)    QCUT    max X(q) W(low)/X(q) W(high)/X(q)  e(spline) 
   2      9    11.376    60.317    0.17E-03    0.16E-04    0.16E-06
   2      9    11.376    55.921    0.17E-03    0.16E-04    0.17E-06
   0     10    11.376    51.690    0.45E-04    0.60E-04    0.21E-06
   0     10    11.376    30.015    0.37E-04    0.55E-04    0.19E-06
   1     10    11.376    18.849    0.83E-04    0.11E-03    0.92E-07
   1     10    11.376    14.624    0.69E-04    0.92E-04    0.82E-07
 Optimization of the real space projectors (new method)

 maximal supplied QI-value         = 24.76
 optimisation between [QCUT,QGAM] = [ 11.39, 22.77] = [ 36.31,145.25] Ry 
 Optimized for a Real-space Cutoff    1.10 Angstroem

   l    n(q)    QCUT    max X(q) W(low)/X(q) W(high)/X(q)  e(spline) 
   0      7    11.387    20.381    0.22E-03    0.48E-03    0.18E-06
   0      7    11.387    15.268    0.22E-03    0.52E-03    0.19E-06
   1      7    11.387     5.964    0.22E-03    0.73E-03    0.24E-06
   1      7    11.387     5.382    0.19E-03    0.60E-03    0.21E-06

 ----------------------------------------------------------------------------- 
|                                                                             |
|  ADVICE TO THIS USER RUNNING 'VASP/VAMP'   (HEAR YOUR MASTER'S VOICE ...):  |
|                                                                             |
|      You enforced a specific xc-type in the INCAR file,                     |
|      a different type was found on the POTCAR file                          |
|          I HOPE YOU KNOW, WHAT YOU ARE  DOING                               |
|                                                                             |
 ----------------------------------------------------------------------------- 

  PAW_PBE Li_sv 10Sep2004               :
 energy of atom  1       EATOM= -202.7858
 kinetic energy error for atom=    0.0143 (will be added to EATOM!!)
  PAW_PBE Ni 02Aug2007                  :
 energy of atom  2       EATOM=-1077.6739
 kinetic energy error for atom=    0.0030 (will be added to EATOM!!)
  PAW_PBE O 08Apr2002                   :
 energy of atom  3       EATOM= -432.3788
 kinetic energy error for atom=    0.0224 (will be added to EATOM!!)
 
 
 POSCAR: ce1886_1                                
  positions in direct lattice
  No initial velocities read in
 exchange correlation table for  LEXCH =       14
   RHO(1)=    0.500       N(1)  =     2000
   RHO(2)=  100.500       N(2)  =     4000
 


--------------------------------------------------------------------------------------------------------


 ion  position               nearest neighbor table
   1  0.980  0.250  0.233-  39 2.00  34 2.04  46 2.18  31 2.19  25 2.21   7 2.80  18 2.84
   2  0.980  0.750  0.767-  40 2.00  33 2.04  45 2.18  32 2.19  26 2.21   7 2.80  19 2.84
   3  0.250  0.250  0.500-  35 2.14  25 2.14  23 2.14  37 2.14  47 2.16  43 2.17
   4  0.250  0.750  0.500-  36 2.14  26 2.14  24 2.14  38 2.14  48 2.16  44 2.17
   5  0.519  0.250  0.767-  53 2.00  30 2.04  50 2.18  27 2.19  35 2.21  22 2.80
   6  0.519  0.750  0.233-  54 2.00  29 2.04  49 2.18  28 2.19  36 2.21  22 2.80
   7  1.000  0.000  0.000-  31 1.85  32 1.85  33 1.85  34 1.85  41 1.92  42 1.92  12 2.77  12 2.77
                             1 2.80   2 2.80   8 2.82   9 2.82  10 2.82  11 2.82
   8  0.250  0.999  0.249-  54 1.84  25 1.84  42 1.84  37 1.85  31 1.91  48 1.96  11 2.77  11 2.77
                             7 2.82  12 2.82  14 2.83  13 2.83
   9  0.250  0.001  0.751-  53 1.84  26 1.84  41 1.84  38 1.85  32 1.91  47 1.96  10 2.77  10 2.77
                             7 2.82  12 2.82  14 2.83  13 2.83
  10  0.750  0.996  0.748-  53 1.84  41 1.85  26 1.86  38 1.87  33 1.91  50 1.92   9 2.77   9 2.77
                            13 2.82  14 2.82   7 2.82  12 2.83
  11  0.750  0.004  0.252-  54 1.84  42 1.85  25 1.86  37 1.87  34 1.91  49 1.92   8 2.77   8 2.77
                            13 2.82  14 2.82   7 2.82  12 2.83
  12  0.500  0.000  0.000-  31 1.85  32 1.85  33 1.86  34 1.86  53 2.01  54 2.01   7 2.77   7 2.77
                             8 2.82   9 2.82  10 2.83  11 2.83
  13  0.998  0.000  0.500-  49 1.85  50 1.85  47 1.87  48 1.87  25 2.04  26 2.04  14 2.76  14 2.78
                            11 2.82  10 2.82   9 2.83   8 2.83
  14  0.501  0.000  0.500-  49 1.84  50 1.84  47 1.85  48 1.85  37 1.92  38 1.92  13 2.76  13 2.78
                            10 2.82  11 2.82   8 2.83   9 2.83
  15  0.999  0.500  0.500-  45 1.84  46 1.84  43 1.85  44 1.85  23 1.92  24 1.92  20 2.76  20 2.78
                            19 2.82  18 2.82  17 2.83  16 2.83
  16  0.250  0.501  0.751-  40 1.84  35 1.84  52 1.84  23 1.85  27 1.91  44 1.95  19 2.77  19 2.77
                            22 2.82  21 2.82  15 2.83  20 2.83
  17  0.250  0.499  0.249-  39 1.84  36 1.84  51 1.84  24 1.85  28 1.91  43 1.95  18 2.77  18 2.77
                            22 2.82  21 2.82  15 2.83  20 2.83
  18  0.750  0.504  0.252-  39 1.84  51 1.85  36 1.86  24 1.87  29 1.91  46 1.92  17 2.77  17 2.77
                            20 2.82  15 2.82  22 2.83  21 2.83   1 2.84
  19  0.750  0.496  0.748-  40 1.84  52 1.85  35 1.86  23 1.87  30 1.91  45 1.92  16 2.77  16 2.77
                            20 2.82  15 2.82  22 2.83  21 2.83   2 2.84
  20  0.502  0.500  0.500-  45 1.85  46 1.85  43 1.86  44 1.86  35 2.04  36 2.04  15 2.76  15 2.78
                            19 2.82  18 2.82  17 2.83  16 2.83
  21  0.000  0.500  0.000-  27 1.85  28 1.85  29 1.86  30 1.86  39 2.01  40 2.01  22 2.77  22 2.77
                            16 2.82  17 2.82  18 2.83  19 2.83
  22  0.500  0.500  0.000-  27 1.85  28 1.85  29 1.85  30 1.85  51 1.92  52 1.92  21 2.77  21 2.77
                             6 2.80   5 2.80  17 2.82  16 2.82  19 2.83  18 2.83
  23  0.005  0.400  0.634-  16 1.85  19 1.87  15 1.92   3 2.14
  24  0.005  0.600  0.366-  17 1.85  18 1.87  15 1.92   4 2.14
  25  0.006  0.106  0.358-   8 1.84  11 1.86  13 2.04   3 2.14   1 2.21
  26  0.006  0.894  0.642-   9 1.84  10 1.86  13 2.04   4 2.14   2 2.21
  27  0.251  0.403  0.885-  22 1.85  21 1.85  16 1.91   5 2.19
  28  0.251  0.597  0.115-  22 1.85  21 1.85  17 1.91   6 2.19
  29  0.749  0.598  0.114-  22 1.85  21 1.86  18 1.91   6 2.04
  30  0.749  0.402  0.886-  22 1.85  21 1.86  19 1.91   5 2.04
  31  0.249  0.097  0.114-   7 1.85  12 1.85   8 1.91   1 2.19
  32  0.249  0.903  0.886-   7 1.85  12 1.85   9 1.91   2 2.19
  33  0.751  0.902  0.886-   7 1.85  12 1.86  10 1.91   2 2.04
  34  0.751  0.098  0.114-   7 1.85  12 1.86  11 1.91   1 2.04
  35  0.494  0.394  0.642-  16 1.84  19 1.86  20 2.04   3 2.14   5 2.21
  36  0.494  0.606  0.358-  17 1.84  18 1.86  20 2.04   4 2.14   6 2.21
  37  0.495  0.100  0.366-   8 1.85  11 1.87  14 1.92   3 2.14
  38  0.495  0.900  0.634-   9 1.85  10 1.87  14 1.92   4 2.14
  39  0.997  0.399  0.144-  17 1.84  18 1.84   1 2.00  21 2.01
  40  0.997  0.601  0.856-  16 1.84  19 1.84   2 2.00  21 2.01
  41  0.997  0.096  0.863-   9 1.84  10 1.85   7 1.92
  42  0.997  0.904  0.137-   8 1.84  11 1.85   7 1.92
  43  0.249  0.399  0.388-  15 1.85  20 1.86  17 1.95   3 2.17
  44  0.249  0.601  0.612-  15 1.85  20 1.86  16 1.95   4 2.17
  45  0.751  0.597  0.615-  15 1.84  20 1.85  19 1.92   2 2.18
  46  0.751  0.403  0.385-  15 1.84  20 1.85  18 1.92   1 2.18
  47  0.251  0.101  0.612-  14 1.85  13 1.87   9 1.96   3 2.16
  48  0.251  0.899  0.388-  14 1.85  13 1.87   8 1.96   4 2.16
  49  0.749  0.903  0.385-  14 1.84  13 1.85  11 1.92   6 2.18
  50  0.749  0.097  0.615-  14 1.84  13 1.85  10 1.92   5 2.18
  51  0.503  0.404  0.137-  17 1.84  18 1.85  22 1.92
  52  0.503  0.596  0.863-  16 1.84  19 1.85  22 1.92
  53  0.503  0.101  0.856-   9 1.84  10 1.84   5 2.00  12 2.01
  54  0.503  0.899  0.144-   8 1.84  11 1.84   6 2.00  12 2.01
 
  LATTYP: Found a simple monoclinic cell.
 ALAT       =    11.5714482266
 B/A-ratio  =     0.4788352590
 C/A-ratio  =     1.6840127586
 COS(beta)  =    -0.9074323452
  
  Lattice vectors:
  
 A1 = (  -6.3058864070,   0.0000000000,  -9.7022786336)
 A2 = (   0.0000000000,  -5.5408174084,   0.0000000000)
 A3 = (   2.7706811660,   0.0000000000,  19.2884862171)


Analysis of symmetry for initial positions (statically):
=====================================================================
 Subroutine PRICEL returns:
 Original cell was already a primitive cell.
 

 Routine SETGRP: Setting up the symmetry group for a 
 simple monoclinic supercell.


 Subroutine GETGRP returns: Found  2 space group operations
 (whereof  2 operations were pure point group operations)
 out of a pool of  4 trial point group operations.


The static configuration has the point symmetry C_2 .


Analysis of symmetry for dynamics (positions and initial velocities):
=====================================================================
 Subroutine PRICEL returns:
 Original cell was already a primitive cell.
 

 Routine SETGRP: Setting up the symmetry group for a 
 simple monoclinic supercell.


 Subroutine GETGRP returns: Found  2 space group operations
 (whereof  2 operations were pure point group operations)
 out of a pool of  4 trial point group operations.


The dynamic configuration has the point symmetry C_2 .


Analysis of structural, dynamic, and magnetic symmetry:
=====================================================================
 Subroutine PRICEL returns:
 Original cell was already a primitive cell.
 

 Routine SETGRP: Setting up the symmetry group for a 
 simple monoclinic supercell.


 Subroutine GETGRP returns: Found  2 space group operations
 (whereof  2 operations were pure point group operations)
 out of a pool of  4 trial point group operations.


The magnetic configuration has the point symmetry C_2 .


 Subroutine INISYM returns: Found  2 space group operations
 (whereof  2 operations are pure point group operations),
 and found     1 'primitive' translations

 
 
 KPOINTS: Automatic mesh                          

Automatic generation of k-mesh.
Space group operators:
 irot       det(A)        alpha          n_x          n_y          n_z        tau_x        tau_y        tau_z
    1     1.000000     0.000001     1.000000     0.000000     0.000000     0.000000     0.000000     0.000000
    2     1.000000   180.000000     0.000000     1.000000     0.000000     0.000000     0.000000     0.000000
 
 Subroutine IBZKPT returns following result:
 ===========================================
 
 Found      1 irreducible k-points:
 
 Following reciprocal coordinates:
            Coordinates               Weight
  0.000000  0.000000  0.000000      1.000000
 
 Following cartesian coordinates:
            Coordinates               Weight
  0.000000  0.000000  0.000000      1.000000
 


--------------------------------------------------------------------------------------------------------




 Dimension of arrays:
   k-points           NKPTS =      1   k-points in BZ     NKDIM =      1   number of bands    NBANDS=    256
   number of dos      NEDOS =    301   number of ions     NIONS =     54
   non local maximal  LDIM  =      6   non local SUM 2l+1 LMDIM =     18
   total plane-waves  NPLWV = 230400
   max r-space proj   IRMAX =   5942   max aug-charges    IRDMAX=  14424
   dimension x,y,z NGX =    40 NGY =   80 NGZ =   72
   dimension x,y,z NGXF=    80 NGYF=  160 NGZF=  144
   support grid    NGXF=    80 NGYF=  160 NGZF=  144
   ions per type =               6  16  32
   NGX,Y,Z   is equivalent  to a cutoff of  12.00, 13.02, 12.16 a.u.
   NGXF,Y,Z  is equivalent  to a cutoff of  24.00, 26.03, 24.32 a.u.

 SYSTEM =  unknown system                          
 POSCAR =  ce1886_1                                

 Startparameter for this run:
   NWRITE =      1    write-flag & timer
   PREC   = accura    normal or accurate (medium, high low for compatibility)
   ISTART =      0    job   : 0-new  1-cont  2-samecut
   ICHARG =      2    charge: 1-file 2-atom 10-const
   ISPIN  =      2    spin polarized calculation?
   LNONCOLLINEAR =      F non collinear calculations
   LSORBIT =      F    spin-orbit coupling
   INIWAV =      1    electr: 0-lowe 1-rand  2-diag
   LASPH  =      F    aspherical Exc in radial PAW
   METAGGA=      F    non-selfconsistent MetaGGA calc.

 Electronic Relaxation 1
   ENCUT  =  500.0 eV  36.75 Ry    6.06 a.u.  10.10 18.63 17.94*2*pi/ulx,y,z
   ENINI  =  500.0     initial cutoff
   ENAUG  =  628.9 eV  augmentation charge cutoff
   NELM   =     80;   NELMIN=  2; NELMDL= -5     # of ELM steps 
   EDIFF  = 0.1E-04   stopping-criterion for ELM
   LREAL  =      T    real-space projection
   NLSPLINE    = F    spline interpolate recip. space projectors
   LCOMPAT=      F    compatible to vasp.4.4
   GGA_COMPAT  = T    GGA compatible to vasp.4.4-vasp.4.6
   LMAXPAW     = -100 max onsite density
   LMAXMIX     =    2 max onsite mixed and CHGCAR
   VOSKOWN=      1    Vosko Wilk Nusair interpolation
   ROPT   =   -0.00025  -0.00025  -0.00025
 Ionic relaxation
   EDIFFG = -.2E-01   stopping-criterion for IOM
   NSW    =     20    number of steps for IOM
   NBLOCK =      1;   KBLOCK =     20    inner block; outer block 
   IBRION =      1    ionic relax: 0-MD 1-quasi-New 2-CG
   NFREE  =      0    steps in history (QN), initial steepest desc. (CG)
   ISIF   =      3    stress and relaxation
   IWAVPR =     11    prediction:  0-non 1-charg 2-wave 3-comb
   ISYM   =      2    0-nonsym 1-usesym 2-fastsym
   LCORR  =      T    Harris-Foulkes like correction to forces

   POTIM  = 0.5000    time-step for ionic-motion
   TEIN   =    0.0    initial temperature
   TEBEG  =    0.0;   TEEND  =   0.0 temperature during run
   SMASS  =  -3.00    Nose mass-parameter (am)
   estimated Nose-frequenzy (Omega)   =  0.10E-29 period in steps =****** mass=  -0.702E-27a.u.
   SCALEE = 1.0000    scale energy and forces
   NPACO  =    256;   APACO  = 16.0  distance and # of slots for P.C.
   PSTRESS=    0.0 pullay stress

  Mass of Ions in am
   POMASS =   7.01 58.69 16.00
  Ionic Valenz
   ZVAL   =   3.00 10.00  6.00
  Atomic Wigner-Seitz radii
   RWIGS  =   1.23  1.15  0.73
  virtual crystal weights 
   VCA    =   1.00  1.00  1.00
   NELECT =     370.0000    total number of electrons
   NUPDOWN=      -1.0000    fix difference up-down

 DOS related values:
   EMIN   =  10.00;   EMAX   =-10.00  energy-range for DOS
   EFERMI =   0.00
   ISMEAR =     0;   SIGMA  =   0.05  broadening in eV -4-tet -1-fermi 0-gaus

 Electronic relaxation 2 (details)
   IALGO  =     38    algorithm
   LDIAG  =      T    sub-space diagonalisation (order eigenvalues)
   LSUBROT=      F    optimize rotation matrix (better conditioning)
   TURBO    =      0    0=normal 1=particle mesh
   IRESTART =      0    0=no restart 2=restart with 2 vectors
   NREBOOT  =      0    no. of reboots
   NMIN     =      0    reboot dimension
   EREF     =   0.00    reference energy to select bands
   IMIX   =      4    mixing-type and parameters
     AMIX     =   0.40;   BMIX     =  1.00
     AMIX_MAG =   1.60;   BMIX_MAG =  1.00
     AMIN     =   0.10
     WC   =   100.;   INIMIX=   1;  MIXPRE=   1;  MAXMIX= -45

 Intra band minimization:
   WEIMIN = 0.0010     energy-eigenvalue tresh-hold
   EBREAK =  0.98E-08  absolut break condition
   DEPER  =   0.30     relativ break condition  

   TIME   =   0.40     timestep for ELM

  volume/ion in A,a.u.               =       9.72        65.61
  Fermi-wavevector in a.u.,A,eV,Ry     =   1.456887  2.753117 28.878624  2.122519
  Thomas-Fermi vector in A             =   2.573753
 
 Write flags
   LWAVE        =      F    write WAVECAR
   LDOWNSAMPLE  =      F    k-point downsampling of WAVECAR
   LCHARG       =      T    write CHGCAR
   LVTOT        =      F    write LOCPOT, total local potential
   LVHAR        =      F    write LOCPOT, Hartree potential only
   LELF         =      F    write electronic localiz. function (ELF)
   LORBIT       =      0    0 simple, 1 ext, 2 COOP (PROOUT), +10 PAW based schemes


 Dipole corrections
   LMONO  =      F    monopole corrections only (constant potential shift)
   LDIPOL =      F    correct potential (dipole corrections)
   IDIPOL =      0    1-x, 2-y, 3-z, 4-all directions 
   EPSILON=  1.0000000 bulk dielectric constant

 Exchange correlation treatment:
   GGA     =    PS    GGA type
   LEXCH   =    14    internal setting for exchange type
   VOSKOWN=      1    Vosko Wilk Nusair interpolation
   LHFCALC =     F    Hartree Fock is set to
   LHFONE  =     F    Hartree Fock one center treatment
   AEXX    =    0.0000 exact exchange contribution

 Linear response parameters
   LEPSILON=     F    determine dielectric tensor
   LRPA    =     F    only Hartree local field effects (RPA)
   LNABLA  =     F    use nabla operator in PAW spheres
   LVEL    =     F    velocity operator in full k-point grid
   LINTERFAST=   F  fast interpolation
   KINTER  =     0    interpolate to denser k-point grid
   CSHIFT  =0.1000    complex shift for real part using Kramers Kronig
   OMEGAMAX=  -1.0    maximum frequency
   DEG_THRESHOLD= 0.2000000E-02 threshold for treating states as degnerate
   RTIME   =   -0.100 relaxation time in fs
  (WPLASMAI=    0.000 imaginary part of plasma frequency in eV, 0.658/RTIME)
   DFIELD  = 0.0000000 0.0000000 0.0000000 field for delta impulse in time
 
 Orbital magnetization related:
   ORBITALMAG=     F  switch on orbital magnetization
   LCHIMAG   =     F  perturbation theory with respect to B field
   DQ        =  0.001000  dq finite difference perturbation B field
   LLRAUG    =     F  two centre corrections for induced B field



--------------------------------------------------------------------------------------------------------


 quasi-Newton-method for relaxation of ions
 charge density and potential will be updated during run
 spin polarized calculation
 Variant of blocked Davidson
 Davidson routine will perform the subspace rotation
 perform sub-space diagonalisation
    after iterative eigenvector-optimisation
 modified Broyden-mixing scheme, WC =      100.0
 initial mixing is a Kerker type mixing with AMIX =  0.4000 and BMIX =      1.0000
 Hartree-type preconditioning will be used
 using additional bands           71
 real space projection scheme for non local part
 use partial core corrections
 calculate Harris-corrections to forces 
   (improved forces if not selfconsistent)
 use gradient corrections 
 use of overlap-Matrix (Vanderbilt PP)
 Gauss-broadening in eV      SIGMA  =   0.05


--------------------------------------------------------------------------------------------------------


  energy-cutoff  :      500.00
  volume of cell :      524.99
      direct lattice vectors                 reciprocal lattice vectors
     0.000000000  5.540817408  0.000000000     0.000000000  0.180478786  0.000000000
    -3.535205241  0.000000000  9.586207584    -0.001225036  0.000000000  0.103864770
     9.841091648  0.000000000  0.116071050     0.101174675  0.000000000  0.037311235

  length of vectors
     5.540817408 10.217291810  9.841776126     0.180478786  0.103871994  0.107835259


 
 k-points in units of 2pi/SCALE and weight: Automatic mesh                          
   0.00000000  0.00000000  0.00000000       1.000
 
 k-points in reciprocal lattice and weights: Automatic mesh                          
   0.00000000  0.00000000  0.00000000       1.000
 
 position of ions in fractional coordinates (direct lattice) 
   0.98043512  0.24978025  0.23315621
   0.98043512  0.75021975  0.76684379
   0.25001916  0.24995339  0.50026831
   0.25001916  0.75004661  0.49973169
   0.51924908  0.25039833  0.76715548
   0.51924908  0.74960167  0.23284452
   0.99991560  0.00000000  0.00000000
   0.24969139  0.99920470  0.24944387
   0.24969139  0.00079530  0.75055613
   0.75034603  0.99617625  0.74842695
   0.75034603  0.00382375  0.25157305
   0.49974274  0.00000000  0.00000000
   0.99819113  0.00000000  0.50000000
   0.50069458  0.00000000  0.50000000
   0.99945127  0.50000000  0.50000000
   0.25027488  0.50090758  0.75054005
   0.25027488  0.49909242  0.24945995
   0.74977875  0.50369593  0.25164851
   0.74977875  0.49630407  0.74835149
   0.50181830  0.50000000  0.50000000
   0.00030190  0.50000000  0.00000000
   0.50017467  0.50000000  0.00000000
   0.00510936  0.40024919  0.63407303
   0.00510936  0.59975081  0.36592697
   0.00569045  0.10645073  0.35783256
   0.00569045  0.89354927  0.64216744
   0.25103774  0.40282602  0.88544847
   0.25103774  0.59717398  0.11455153
   0.74943364  0.59807545  0.11419793
   0.74943364  0.40192455  0.88580207
   0.24895366  0.09733136  0.11442419
   0.24895366  0.90266864  0.88557581
   0.75080963  0.90178886  0.88591127
   0.75080963  0.09821114  0.11408873
   0.49435746  0.39363003  0.64213055
   0.49435746  0.60636997  0.35786945
   0.49505147  0.09975184  0.36594703
   0.49505147  0.90024816  0.63405297
   0.99707505  0.39917939  0.14432688
   0.99707505  0.60082061  0.85567312
   0.99743349  0.09580174  0.86253568
   0.99743349  0.90419826  0.13746432
   0.24927670  0.39929575  0.38759454
   0.24927670  0.60070425  0.61240546
   0.75112298  0.59663000  0.61485514
   0.75112298  0.40337000  0.38514486
   0.25082817  0.10080754  0.61234298
   0.25082817  0.89919246  0.38765702
   0.74890773  0.90325638  0.38521527
   0.74890773  0.09674362  0.61478473
   0.50266742  0.40404225  0.13735401
   0.50266742  0.59595775  0.86264599
   0.50301379  0.10065428  0.85571002
   0.50301379  0.89934572  0.14428998
 
 position of ions in cartesian coordinates  (Angst):
   1.41148718  5.43241198  2.42150801
   4.89439922  5.43241198  7.28077062
   4.03954975  1.38531051  2.45417175
   2.26633665  1.38531051  7.24810688
   6.66443790  2.87706434  2.48941491
  -0.35855149  2.87706434  7.21286372
   0.00000000  5.54034976  0.00000000
  -1.07759371  1.38349440  9.60753688
   7.38348011  1.38349440  0.09474175
   3.84365071  4.15753035  9.63642302
   2.46223570  4.15753035  0.06585561
   0.00000000  2.76898327  0.00000000
   4.92054582  5.53079479  0.05803553
   4.92054582  2.77425725  0.05803553
   3.15294320  5.53777700  4.85113932
   5.61532232  1.38672741  4.88892001
   0.69056409  1.38672741  4.81335862
   0.69582756  4.15438715  4.85774285
   5.61005885  4.15438715  4.84453578
   3.15294320  2.78048357  4.85113932
  -1.76760262  0.00167277  4.79310379
  -1.76760262  2.77137652  4.79310379
   4.82500777  0.02831003  3.91046934
   1.48087864  0.02831003  5.79180929
   3.14513784  0.03152974  1.06199280
   3.16074857  0.03152974  8.64028584
   7.28970689  1.39095428  3.96434878
  -0.98382048  1.39095428  5.73792985
  -0.99048717  4.15247496  5.74653049
   7.29637358  4.15247496  3.95574815
   0.78197261  1.37940677  0.94631996
   5.52391380  1.37940677  8.75595868
   5.53032530  4.16009907  8.74756386
   0.77556111  4.16009907  0.95471477
   4.92770265  2.73914442  3.84795195
   1.37818376  2.73914442  5.85432669
   3.24867503  2.74298980  0.99871770
   3.05721137  2.74298980  8.70356093
   0.00915298  5.52461079  3.84336867
   6.29673343  5.52461079  5.85890997
   8.14961386  5.52659685  1.01849079
  -1.84372746  5.52659685  8.68378785
   2.40276096  1.38119668  3.87272045
   3.90312544  1.38119668  5.82955818
   3.94163628  4.16183528  5.79078591
   2.36425013  4.16183528  3.91149272
   5.66974804  1.38979309  1.03743730
   0.63613836  1.38979309  8.66484134
   0.59774209  4.14956099  8.70351550
   5.70814432  4.14956099  0.99876313
  -0.07665888  2.78518839  3.88917571
   6.38254529  2.78518839  5.81310293
   8.06528719  2.78710756  1.06421598
  -1.75940079  2.78710756  8.63806265
 


--------------------------------------------------------------------------------------------------------


 use serial FFT for orbitals x direction half grid
 k-point  1 :   0.0000 0.0000 0.0000  plane waves:    6650

 maximum and minimum number of plane-waves per node :      6650     6650

 maximum number of plane-waves:      6650
 maximum index in each direction: 
   IXMAX=   10   IYMAX=   18   IZMAX=   17
   IXMIN=    0   IYMIN=  -18   IZMIN=  -17

 The following grids will avoid any aliasing or wrap around errors in the Hartre
 e energy
  - symmetry arguments have not been applied
  - exchange correlation energies might require even more grid points
  - we recommend to set PREC=Normal or Accurate and rely on VASP defaults
 WARNING: aliasing errors must be expected set NGX to    42 to avoid them
 NGY is ok and might be reduce to    80
 NGZ is ok and might be reduce to    70

 serial   3D FFT for wavefunctions
 parallel 3D FFT for charge:
    minimum data exchange during FFTs selected (reduces bandwidth)


 total amount of memory used by VASP MPI-rank0    88462. kBytes
=======================================================================

   base      :      30000. kBytes
   nonlr-proj:      20397. kBytes
   fftplans  :       4884. kBytes
   grid      :      28787. kBytes
   one-center:        839. kBytes
   wavefun   :       3555. kBytes
 
     INWAV:  cpu time    0.0000: real time    0.0000
 Broyden mixing: mesh for mixing (old mesh)
   NGX = 21   NGY = 37   NGZ = 35
  (NGX  = 80   NGY  =160   NGZ  =144)
  gives a total of  27195 points

 initial charge density was supplied:
 charge density of overlapping atoms calculated
 number of electron     370.0000000 magnetization      40.0000000
 keeping initial charge density in first step


--------------------------------------------------------------------------------------------------------


 Maximum index for non-local projection operator         5744
 Maximum index for augmentation-charges         1000 (set IRDMAX)


--------------------------------------------------------------------------------------------------------


 First call to EWALD:  gamma=   0.220
 Maximum number of real-space cells 4x 2x 2
 Maximum number of reciprocal cells 2x 3x 3

    FEWALD:  cpu time    0.0035: real time    0.0035


--------------------------------------- Iteration      1(   1)  ---------------------------------------


    POTLOK:  cpu time    0.1436: real time    0.1634
    SETDIJ:  cpu time    0.0161: real time    0.0162
     EDDAV:  cpu time    1.5243: real time    1.5483
    --------------------------------------------
      LOOP:  cpu time    1.6844: real time    1.7283

 eigenvalue-minimisations  :  1024
 total energy-change (2. order) : 0.6423320E+04  (-0.1619894E+05)
 number of electron     370.0000000 magnetization      40.0000000
 augmentation part      370.0000000 magnetization      40.0000000

 Free energy of the ion-electron system (eV)
  ---------------------------------------------------
  alpha Z        PSCENC =      1129.84551580
  Ewald energy   TEWEN  =    -20893.14156597
  -Hartree energ DENC   =    -12013.38811056
  -exchange      EXHF   =         0.00000000
  -V(xc)+E(xc)   XCENC  =      1502.99145685
  PAW double counting   =     26942.36450242   -28149.39347092
  entropy T*S    EENTRO =        -0.00000000
  eigenvalues    EBANDS =      5684.26550525
  atomic energy  EATOM  =     32219.77639703
  Solvation  Ediel_sol  =         0.00000000
  ---------------------------------------------------
  free energy    TOTEN  =      6423.32022990 eV

  energy without entropy =     6423.32022990  energy(sigma->0) =     6423.32022990


--------------------------------------------------------------------------------------------------------




--------------------------------------- Iteration      1(   2)  ---------------------------------------


     EDDAV:  cpu time    1.2659: real time    1.2689
    --------------------------------------------
      LOOP:  cpu time    1.2658: real time    1.2688

 eigenvalue-minimisations  :  1072
 total energy-change (2. order) :-0.5174617E+04  (-0.4589870E+04)
 number of electron     370.0000000 magnetization      40.0000000
 augmentation part      370.0000000 magnetization      40.0000000

 Free energy of the ion-electron system (eV)
  ---------------------------------------------------
  alpha Z        PSCENC =      1129.84551580
  Ewald energy   TEWEN  =    -20893.14156597
  -Hartree energ DENC   =    -12013.38811056
  -exchange      EXHF   =         0.00000000
  -V(xc)+E(xc)   XCENC  =      1502.99145685
  PAW double counting   =     26942.36450242   -28149.39347092
  entropy T*S    EENTRO =        -0.02705142
  eigenvalues    EBANDS =       509.67600085
  atomic energy  EATOM  =     32219.77639703
  Solvation  Ediel_sol  =         0.00000000
  ---------------------------------------------------
  free energy    TOTEN  =      1248.70367407 eV

  energy without entropy =     1248.73072549  energy(sigma->0) =     1248.71719978


--------------------------------------------------------------------------------------------------------




--------------------------------------- Iteration      1(   3)  ---------------------------------------


     EDDAV:  cpu time    1.3493: real time    1.3525
    --------------------------------------------
      LOOP:  cpu time    1.3493: real time    1.3525

 eigenvalue-minimisations  :  1168
 total energy-change (2. order) :-0.1458450E+04  (-0.1197726E+04)
 number of electron     370.0000000 magnetization      40.0000000
 augmentation part      370.0000000 magnetization      40.0000000

 Free energy of the ion-electron system (eV)
  ---------------------------------------------------
  alpha Z        PSCENC =      1129.84551580
  Ewald energy   TEWEN  =    -20893.14156597
  -Hartree energ DENC   =    -12013.38811056
  -exchange      EXHF   =         0.00000000
  -V(xc)+E(xc)   XCENC  =      1502.99145685
  PAW double counting   =     26942.36450242   -28149.39347092
  entropy T*S    EENTRO =        -0.09859805
  eigenvalues    EBANDS =      -948.70294422
  atomic energy  EATOM  =     32219.77639703
  Solvation  Ediel_sol  =         0.00000000
  ---------------------------------------------------
  free energy    TOTEN  =      -209.74681762 eV

  energy without entropy =     -209.64821958  energy(sigma->0) =     -209.69751860


--------------------------------------------------------------------------------------------------------




--------------------------------------- Iteration      1(   4)  ---------------------------------------


     EDDAV:  cpu time    1.4941: real time    1.4979
    --------------------------------------------
      LOOP:  cpu time    1.4941: real time    1.4979

 eigenvalue-minimisations  :  1264
 total energy-change (2. order) :-0.2243629E+03  (-0.2175035E+03)
 number of electron     370.0000000 magnetization      40.0000000
 augmentation part      370.0000000 magnetization      40.0000000

 Free energy of the ion-electron system (eV)
  ---------------------------------------------------
  alpha Z        PSCENC =      1129.84551580
  Ewald energy   TEWEN  =    -20893.14156597
  -Hartree energ DENC   =    -12013.38811056
  -exchange      EXHF   =         0.00000000
  -V(xc)+E(xc)   XCENC  =      1502.99145685
  PAW double counting   =     26942.36450242   -28149.39347092
  entropy T*S    EENTRO =        -0.16046801
  eigenvalues    EBANDS =     -1173.00392889
  atomic energy  EATOM  =     32219.77639703
  Solvation  Ediel_sol  =         0.00000000
  ---------------------------------------------------
  free energy    TOTEN  =      -434.10967225 eV

  energy without entropy =     -433.94920424  energy(sigma->0) =     -434.02943825


--------------------------------------------------------------------------------------------------------




--------------------------------------- Iteration      1(   5)  ---------------------------------------


     EDDAV:  cpu time    2.2005: real time    2.2057
    CHARGE:  cpu time    0.1345: real time    0.1349
    MIXING:  cpu time    0.0029: real time    0.0030
    --------------------------------------------
      LOOP:  cpu time    2.3377: real time    2.3432

 eigenvalue-minimisations  :  1568
 total energy-change (2. order) :-0.9307323E+01  (-0.9228556E+01)
 number of electron     370.0000147 magnetization      37.2936710
 augmentation part      109.2499323 magnetization      29.3121665

 Broyden mixing:
  rms(total) = 0.11739E+02    rms(broyden)= 0.11737E+02
  rms(prec ) = 0.14295E+02
  weight for this iteration     100.00

 Free energy of the ion-electron system (eV)
  ---------------------------------------------------
  alpha Z        PSCENC =      1129.84551580
  Ewald energy   TEWEN  =    -20893.14156597
  -Hartree energ DENC   =    -12013.38811056
  -exchange      EXHF   =         0.00000000
  -V(xc)+E(xc)   XCENC  =      1502.99145685
  PAW double counting   =     26942.36450242   -28149.39347092
  entropy T*S    EENTRO =        -0.16629362
  eigenvalues    EBANDS =     -1182.30542632
  atomic energy  EATOM  =     32219.77639703
  Solvation  Ediel_sol  =         0.00000000
  ---------------------------------------------------
  free energy    TOTEN  =      -443.41699529 eV

  energy without entropy =     -443.25070167  energy(sigma->0) =     -443.33384848


--------------------------------------------------------------------------------------------------------




--------------------------------------- Iteration      1(   6)  ---------------------------------------


    POTLOK:  cpu time    0.1239: real time    0.1242
    SETDIJ:  cpu time    0.0194: real time    0.0194
     EDDAV:  cpu time    2.2353: real time    2.2406
    CHARGE:  cpu time    0.1296: real time    0.1299
    MIXING:  cpu time    0.0032: real time    0.0032
    --------------------------------------------
      LOOP:  cpu time    2.5113: real time    2.5173

 eigenvalue-minimisations  :  1472
 total energy-change (2. order) :-0.7175585E+02  (-0.1042901E+03)
 number of electron     370.0000198 magnetization      32.9643248
 augmentation part      139.0709523 magnetization      29.0135793

 Broyden mixing:
  rms(total) = 0.20342E+02    rms(broyden)= 0.20341E+02
  rms(prec ) = 0.22653E+02
  weight for this iteration     100.00

 eigenvalues of (default mixing * dielectric matrix)
  average eigenvalue GAMMA=   0.2077
  0.2077

 Free energy of the ion-electron system (eV)
  ---------------------------------------------------
  alpha Z        PSCENC =      1129.84551580
  Ewald energy   TEWEN  =    -20893.14156597
  -Hartree energ DENC   =    -11483.05306529
  -exchange      EXHF   =         0.00000000
  -V(xc)+E(xc)   XCENC  =      1505.42235108
  PAW double counting   =     29857.58037482   -30890.73200238
  entropy T*S    EENTRO =        -0.05733490
  eigenvalues    EBANDS =     -1960.81352005
  atomic energy  EATOM  =     32219.77639703
  Solvation  Ediel_sol  =         0.00000000
  ---------------------------------------------------
  free energy    TOTEN  =      -515.17284986 eV

  energy without entropy =     -515.11551496  energy(sigma->0) =     -515.14418241


--------------------------------------------------------------------------------------------------------




--------------------------------------- Iteration      1(   7)  ---------------------------------------


    POTLOK:  cpu time    0.1282: real time    0.1285
    SETDIJ:  cpu time    0.0185: real time    0.0185
     EDDAV:  cpu time    2.1235: real time    2.1286
    CHARGE:  cpu time    0.1274: real time    0.1277
    MIXING:  cpu time    0.0030: real time    0.0030
    --------------------------------------------
      LOOP:  cpu time    2.4005: real time    2.4062

 eigenvalue-minimisations  :  1392
 total energy-change (2. order) : 0.1428570E+03  (-0.2863306E+02)
 number of electron     370.0000203 magnetization      24.9742413
 augmentation part      131.4218685 magnetization      24.2105326

 Broyden mixing:
  rms(total) = 0.80351E+01    rms(broyden)= 0.80342E+01
  rms(prec ) = 0.95018E+01
  weight for this iteration     100.00

 eigenvalues of (default mixing * dielectric matrix)
  average eigenvalue GAMMA=   0.5034
  0.5034  0.5034

 Free energy of the ion-electron system (eV)
  ---------------------------------------------------
  alpha Z        PSCENC =      1129.84551580
  Ewald energy   TEWEN  =    -20893.14156597
  -Hartree energ DENC   =    -11656.74204723
  -exchange      EXHF   =         0.00000000
  -V(xc)+E(xc)   XCENC  =      1499.69198453
  PAW double counting   =     31044.90261286   -32187.36220947
  entropy T*S    EENTRO =        -0.04693111
  eigenvalues    EBANDS =     -1529.23959313
  atomic energy  EATOM  =     32219.77639703
  Solvation  Ediel_sol  =         0.00000000
  ---------------------------------------------------
  free energy    TOTEN  =      -372.31583671 eV

  energy without entropy =     -372.26890560  energy(sigma->0) =     -372.29237116


--------------------------------------------------------------------------------------------------------




--------------------------------------- Iteration      1(   8)  ---------------------------------------


    POTLOK:  cpu time    0.1289: real time    0.1292
    SETDIJ:  cpu time    0.0198: real time    0.0198
     EDDAV:  cpu time    2.1753: real time    2.1804
    CHARGE:  cpu time    0.1292: real time    0.1296
    MIXING:  cpu time    0.0035: real time    0.0035
    --------------------------------------------
      LOOP:  cpu time    2.4566: real time    2.4625

 eigenvalue-minimisations  :  1424
 total energy-change (2. order) :-0.2381975E+02  (-0.2073723E+02)
 number of electron     370.0000166 magnetization      21.1156461
 augmentation part      119.6178621 magnetization      18.2476575

 Broyden mixing:
  rms(total) = 0.10801E+02    rms(broyden)= 0.10800E+02
  rms(prec ) = 0.15942E+02
  weight for this iteration     100.00

 eigenvalues of (default mixing * dielectric matrix)
  average eigenvalue GAMMA=   0.4811
  0.6098  0.6098  0.2235

 Free energy of the ion-electron system (eV)
  ---------------------------------------------------
  alpha Z        PSCENC =      1129.84551580
  Ewald energy   TEWEN  =    -20893.14156597
  -Hartree energ DENC   =    -11777.94991262
  -exchange      EXHF   =         0.00000000
  -V(xc)+E(xc)   XCENC  =      1494.95337046
  PAW double counting   =     32264.72029903   -33497.07287364
  entropy T*S    EENTRO =        -0.04912704
  eigenvalues    EBANDS =     -1337.21769253
  atomic energy  EATOM  =     32219.77639703
  Solvation  Ediel_sol  =         0.00000000
  ---------------------------------------------------
  free energy    TOTEN  =      -396.13558950 eV

  energy without entropy =     -396.08646246  energy(sigma->0) =     -396.11102598


--------------------------------------------------------------------------------------------------------




--------------------------------------- Iteration      1(   9)  ---------------------------------------


    POTLOK:  cpu time    0.1252: real time    0.1255
    SETDIJ:  cpu time    0.0202: real time    0.0202
     EDDAV:  cpu time    2.0995: real time    2.1045
    CHARGE:  cpu time    0.1293: real time    0.1296
    MIXING:  cpu time    0.0039: real time    0.0039
    --------------------------------------------
      LOOP:  cpu time    2.3781: real time    2.3837

 eigenvalue-minimisations  :  1392
 total energy-change (2. order) : 0.3882134E+02  (-0.1755982E+02)
 number of electron     370.0000172 magnetization      17.6289801
 augmentation part      119.5357231 magnetization      13.0344542

 Broyden mixing:
  rms(total) = 0.76888E+01    rms(broyden)= 0.76882E+01
  rms(prec ) = 0.10313E+02
  weight for this iteration     100.00

 eigenvalues of (default mixing * dielectric matrix)
  average eigenvalue GAMMA=   0.4764
  0.9656  0.3981  0.3981  0.1438

 Free energy of the ion-electron system (eV)
  ---------------------------------------------------
  alpha Z        PSCENC =      1129.84551580
  Ewald energy   TEWEN  =    -20893.14156597
  -Hartree energ DENC   =    -11740.26118116
  -exchange      EXHF   =         0.00000000
  -V(xc)+E(xc)   XCENC  =      1493.00929168
  PAW double counting   =     32846.71658215   -34085.13727237
  entropy T*S    EENTRO =        -0.04189878
  eigenvalues    EBANDS =     -1328.08012183
  atomic energy  EATOM  =     32219.77639703
  Solvation  Ediel_sol  =         0.00000000
  ---------------------------------------------------
  free energy    TOTEN  =      -357.31425348 eV

  energy without entropy =     -357.27235469  energy(sigma->0) =     -357.29330409


--------------------------------------------------------------------------------------------------------




--------------------------------------- Iteration      1(  10)  ---------------------------------------


    POTLOK:  cpu time    0.1252: real time    0.1255
    SETDIJ:  cpu time    0.0187: real time    0.0188
     EDDAV:  cpu time    1.9868: real time    1.9915
    CHARGE:  cpu time    0.1282: real time    0.1285
    MIXING:  cpu time    0.0040: real time    0.0040
    --------------------------------------------
      LOOP:  cpu time    2.2629: real time    2.2683

 eigenvalue-minimisations  :  1312
 total energy-change (2. order) : 0.2468473E+01  (-0.1033805E+02)
 number of electron     370.0000183 magnetization      13.4135785
 augmentation part      119.5441955 magnetization      12.1107253

 Broyden mixing:
  rms(total) = 0.61323E+01    rms(broyden)= 0.61312E+01
  rms(prec ) = 0.82866E+01
  weight for this iteration     100.00

 eigenvalues of (default mixing * dielectric matrix)
  average eigenvalue GAMMA=   0.4900
  1.2587  0.4253  0.4253  0.1836  0.1569

 Free energy of the ion-electron system (eV)
  ---------------------------------------------------
  alpha Z        PSCENC =      1129.84551580
  Ewald energy   TEWEN  =    -20893.14156597
  -Hartree energ DENC   =    -11729.20733841
  -exchange      EXHF   =         0.00000000
  -V(xc)+E(xc)   XCENC  =      1491.92788549
  PAW double counting   =     33677.40480224   -34934.32720104
  entropy T*S    EENTRO =        -0.04308973
  eigenvalues    EBANDS =     -1317.08118593
  atomic energy  EATOM  =     32219.77639703
  Solvation  Ediel_sol  =         0.00000000
  ---------------------------------------------------
  free energy    TOTEN  =      -354.84578053 eV

  energy without entropy =     -354.80269080  energy(sigma->0) =     -354.82423566


--------------------------------------------------------------------------------------------------------




--------------------------------------- Iteration      1(  11)  ---------------------------------------


    POTLOK:  cpu time    0.1275: real time    0.1278
    SETDIJ:  cpu time    0.0196: real time    0.0196
     EDDAV:  cpu time    1.9545: real time    1.9592
    CHARGE:  cpu time    0.1262: real time    0.1265
    MIXING:  cpu time    0.0041: real time    0.0041
    --------------------------------------------
      LOOP:  cpu time    2.2319: real time    2.2372

 eigenvalue-minimisations  :  1280
 total energy-change (2. order) : 0.1816298E+02  (-0.6543629E+01)
 number of electron     370.0000192 magnetization      10.4274593
 augmentation part      122.2396902 magnetization       9.4388127

 Broyden mixing:
  rms(total) = 0.29396E+01    rms(broyden)= 0.29379E+01
  rms(prec ) = 0.36766E+01
  weight for this iteration     100.00

 eigenvalues of (default mixing * dielectric matrix)
  average eigenvalue GAMMA=   0.4905
  1.2430  0.6330  0.3747  0.3747  0.1911  0.1267

 Free energy of the ion-electron system (eV)
  ---------------------------------------------------
  alpha Z        PSCENC =      1129.84551580
  Ewald energy   TEWEN  =    -20893.14156597
  -Hartree energ DENC   =    -11691.47417759
  -exchange      EXHF   =         0.00000000
  -V(xc)+E(xc)   XCENC  =      1490.60414194
  PAW double counting   =     34433.52647863   -35694.98053262
  entropy T*S    EENTRO =        -0.03034304
  eigenvalues    EBANDS =     -1330.80871547
  atomic energy  EATOM  =     32219.77639703
  Solvation  Ediel_sol  =         0.00000000
  ---------------------------------------------------
  free energy    TOTEN  =      -336.68280130 eV

  energy without entropy =     -336.65245826  energy(sigma->0) =     -336.66762978


--------------------------------------------------------------------------------------------------------




--------------------------------------- Iteration      1(  12)  ---------------------------------------


    POTLOK:  cpu time    0.1293: real time    0.1296
    SETDIJ:  cpu time    0.0203: real time    0.0204
     EDDAV:  cpu time    2.0452: real time    2.0501
    CHARGE:  cpu time    0.1270: real time    0.1273
    MIXING:  cpu time    0.0044: real time    0.0044
    --------------------------------------------
      LOOP:  cpu time    2.3262: real time    2.3317

 eigenvalue-minimisations  :  1360
 total energy-change (2. order) :-0.3020786E+01  (-0.4679634E+01)
 number of electron     370.0000190 magnetization       8.8496323
 augmentation part      122.1455596 magnetization       7.5041531

 Broyden mixing:
  rms(total) = 0.36852E+01    rms(broyden)= 0.36844E+01
  rms(prec ) = 0.48929E+01
  weight for this iteration     100.00

 eigenvalues of (default mixing * dielectric matrix)
  average eigenvalue GAMMA=   0.4778
  1.2801  0.7058  0.4039  0.4039  0.2439  0.1776  0.1294

 Free energy of the ion-electron system (eV)
  ---------------------------------------------------
  alpha Z        PSCENC =      1129.84551580
  Ewald energy   TEWEN  =    -20893.14156597
  -Hartree energ DENC   =    -11693.52375484
  -exchange      EXHF   =         0.00000000
  -V(xc)+E(xc)   XCENC  =      1490.30105377
  PAW double counting   =     34782.20720983   -36045.64264387
  entropy T*S    EENTRO =        -0.04271389
  eigenvalues    EBANDS =     -1329.48308509
  atomic energy  EATOM  =     32219.77639703
  Solvation  Ediel_sol  =         0.00000000
  ---------------------------------------------------
  free energy    TOTEN  =      -339.70358723 eV

  energy without entropy =     -339.66087334  energy(sigma->0) =     -339.68223028


--------------------------------------------------------------------------------------------------------




--------------------------------------- Iteration      1(  13)  ---------------------------------------


    POTLOK:  cpu time    0.1279: real time    0.1282
    SETDIJ:  cpu time    0.0201: real time    0.0202
     EDDAV:  cpu time    1.9552: real time    1.9598
    CHARGE:  cpu time    0.1273: real time    0.1276
    MIXING:  cpu time    0.0041: real time    0.0041
    --------------------------------------------
      LOOP:  cpu time    2.2345: real time    2.2398

 eigenvalue-minimisations  :  1280
 total energy-change (2. order) : 0.3793209E+01  (-0.2745073E+01)
 number of electron     370.0000195 magnetization       7.1240892
 augmentation part      122.2146146 magnetization       6.1172191

 Broyden mixing:
  rms(total) = 0.18986E+01    rms(broyden)= 0.18974E+01
  rms(prec ) = 0.23981E+01
  weight for this iteration     100.00

 eigenvalues of (default mixing * dielectric matrix)
  average eigenvalue GAMMA=   0.5040
  1.3991  0.6485  0.6485  0.4358  0.4358  0.1841  0.1567  0.1231

 Free energy of the ion-electron system (eV)
  ---------------------------------------------------
  alpha Z        PSCENC =      1129.84551580
  Ewald energy   TEWEN  =    -20893.14156597
  -Hartree energ DENC   =    -11698.38050946
  -exchange      EXHF   =         0.00000000
  -V(xc)+E(xc)   XCENC  =      1490.20025037
  PAW double counting   =     34963.97296651   -36228.71022885
  entropy T*S    EENTRO =        -0.01493367
  eigenvalues    EBANDS =     -1319.45826982
  atomic energy  EATOM  =     32219.77639703
  Solvation  Ediel_sol  =         0.00000000
  ---------------------------------------------------
  free energy    TOTEN  =      -335.91037807 eV

  energy without entropy =     -335.89544440  energy(sigma->0) =     -335.90291124


--------------------------------------------------------------------------------------------------------




--------------------------------------- Iteration      1(  14)  ---------------------------------------


    POTLOK:  cpu time    0.1295: real time    0.1298
    SETDIJ:  cpu time    0.0199: real time    0.0200
     EDDAV:  cpu time    1.9220: real time    1.9266
    CHARGE:  cpu time    0.1281: real time    0.1284
    MIXING:  cpu time    0.0047: real time    0.0047
    --------------------------------------------
      LOOP:  cpu time    2.2042: real time    2.2095

 eigenvalue-minimisations  :  1248
 total energy-change (2. order) :-0.2200918E+00  (-0.1081584E+01)
 number of electron     370.0000195 magnetization       5.1148528
 augmentation part      122.3520720 magnetization       4.7912787

 Broyden mixing:
  rms(total) = 0.20461E+01    rms(broyden)= 0.20455E+01
  rms(prec ) = 0.27258E+01
  weight for this iteration     100.00

 eigenvalues of (default mixing * dielectric matrix)
  average eigenvalue GAMMA=   0.5147
  1.4664  0.8072  0.8072  0.4261  0.4261  0.2478  0.1728  0.1256  0.1534

 Free energy of the ion-electron system (eV)
  ---------------------------------------------------
  alpha Z        PSCENC =      1129.84551580
  Ewald energy   TEWEN  =    -20893.14156597
  -Hartree energ DENC   =    -11696.04910015
  -exchange      EXHF   =         0.00000000
  -V(xc)+E(xc)   XCENC  =      1489.89249475
  PAW double counting   =     35196.91906992   -36462.99717984
  entropy T*S    EENTRO =        -0.02913928
  eigenvalues    EBANDS =     -1320.34696214
  atomic energy  EATOM  =     32219.77639703
  Solvation  Ediel_sol  =         0.00000000
  ---------------------------------------------------
  free energy    TOTEN  =      -336.13046989 eV

  energy without entropy =     -336.10133060  energy(sigma->0) =     -336.11590025


--------------------------------------------------------------------------------------------------------




--------------------------------------- Iteration      1(  15)  ---------------------------------------


    POTLOK:  cpu time    0.1283: real time    0.1286
    SETDIJ:  cpu time    0.0196: real time    0.0196
     EDDAV:  cpu time    1.8122: real time    1.8165
    CHARGE:  cpu time    0.1275: real time    0.1278
    MIXING:  cpu time    0.0051: real time    0.0051
    --------------------------------------------
      LOOP:  cpu time    2.0927: real time    2.0976

 eigenvalue-minimisations  :  1168
 total energy-change (2. order) : 0.1871167E+00  (-0.2357972E+01)
 number of electron     370.0000194 magnetization       4.4891984
 augmentation part      122.2883445 magnetization       3.5695806

 Broyden mixing:
  rms(total) = 0.17460E+01    rms(broyden)= 0.17450E+01
  rms(prec ) = 0.22881E+01
  weight for this iteration     100.00

 eigenvalues of (default mixing * dielectric matrix)
  average eigenvalue GAMMA=   0.5147
  1.5159  0.8995  0.8995  0.4229  0.4229  0.3940  0.1719  0.1591  0.1250  0.1359

 Free energy of the ion-electron system (eV)
  ---------------------------------------------------
  alpha Z        PSCENC =      1129.84551580
  Ewald energy   TEWEN  =    -20893.14156597
  -Hartree energ DENC   =    -11697.75223375
  -exchange      EXHF   =         0.00000000
  -V(xc)+E(xc)   XCENC  =      1489.69745651
  PAW double counting   =     35438.56686306   -36706.44327704
  entropy T*S    EENTRO =        -0.03182694
  eigenvalues    EBANDS =     -1316.46068187
  atomic energy  EATOM  =     32219.77639703
  Solvation  Ediel_sol  =         0.00000000
  ---------------------------------------------------
  free energy    TOTEN  =      -335.94335319 eV

  energy without entropy =     -335.91152624  energy(sigma->0) =     -335.92743972


--------------------------------------------------------------------------------------------------------




--------------------------------------- Iteration      1(  16)  ---------------------------------------


    POTLOK:  cpu time    0.1280: real time    0.1283
    SETDIJ:  cpu time    0.0196: real time    0.0197
     EDDAV:  cpu time    2.0223: real time    2.0271
    CHARGE:  cpu time    0.1271: real time    0.1274
    MIXING:  cpu time    0.0051: real time    0.0051
    --------------------------------------------
      LOOP:  cpu time    2.3021: real time    2.3076

 eigenvalue-minimisations  :  1328
 total energy-change (2. order) : 0.4739598E+00  (-0.8601457E+00)
 number of electron     370.0000197 magnetization       3.5554526
 augmentation part      122.2714398 magnetization       3.4965344

 Broyden mixing:
  rms(total) = 0.11782E+01    rms(broyden)= 0.11775E+01
  rms(prec ) = 0.13573E+01
  weight for this iteration     100.00

 eigenvalues of (default mixing * dielectric matrix)
  average eigenvalue GAMMA=   0.4959
  1.3802  0.9952  0.9952  0.4967  0.4124  0.4124  0.1894  0.1894  0.1441  0.1257
  0.1142

 Free energy of the ion-electron system (eV)
  ---------------------------------------------------
  alpha Z        PSCENC =      1129.84551580
  Ewald energy   TEWEN  =    -20893.14156597
  -Hartree energ DENC   =    -11700.10281679
  -exchange      EXHF   =         0.00000000
  -V(xc)+E(xc)   XCENC  =      1489.66000618
  PAW double counting   =     35510.99864504   -36779.44180675
  entropy T*S    EENTRO =        -0.00067585
  eigenvalues    EBANDS =     -1313.06309203
  atomic energy  EATOM  =     32219.77639703
  Solvation  Ediel_sol  =         0.00000000
  ---------------------------------------------------
  free energy    TOTEN  =      -335.46939334 eV

  energy without entropy =     -335.46871750  energy(sigma->0) =     -335.46905542


--------------------------------------------------------------------------------------------------------




--------------------------------------- Iteration      1(  17)  ---------------------------------------


    POTLOK:  cpu time    0.1281: real time    0.1284
    SETDIJ:  cpu time    0.0201: real time    0.0202
     EDDAV:  cpu time    1.8542: real time    1.8586
    CHARGE:  cpu time    0.1281: real time    0.1284
    MIXING:  cpu time    0.0051: real time    0.0051
    --------------------------------------------
      LOOP:  cpu time    2.1356: real time    2.1407

 eigenvalue-minimisations  :  1216
 total energy-change (2. order) : 0.3150461E+00  (-0.1706376E+00)
 number of electron     370.0000198 magnetization       3.0304692
 augmentation part      122.3090294 magnetization       2.8669926

 Broyden mixing:
  rms(total) = 0.73534E+00    rms(broyden)= 0.73517E+00
  rms(prec ) = 0.83423E+00
  weight for this iteration     100.00

 eigenvalues of (default mixing * dielectric matrix)
  average eigenvalue GAMMA=   0.5203
  1.2082  1.1767  1.1767  0.5386  0.5386  0.4176  0.4176  0.2015  0.1754  0.1235
  0.1344  0.1344

 Free energy of the ion-electron system (eV)
  ---------------------------------------------------
  alpha Z        PSCENC =      1129.84551580
  Ewald energy   TEWEN  =    -20893.14156597
  -Hartree energ DENC   =    -11701.75845329
  -exchange      EXHF   =         0.00000000
  -V(xc)+E(xc)   XCENC  =      1489.61236463
  PAW double counting   =     35566.99102108   -36834.11479914
  entropy T*S    EENTRO =        -0.01655066
  eigenvalues    EBANDS =     -1312.34827673
  atomic energy  EATOM  =     32219.77639703
  Solvation  Ediel_sol  =         0.00000000
  ---------------------------------------------------
  free energy    TOTEN  =      -335.15434725 eV

  energy without entropy =     -335.13779659  energy(sigma->0) =     -335.14607192


--------------------------------------------------------------------------------------------------------




--------------------------------------- Iteration      1(  18)  ---------------------------------------


    POTLOK:  cpu time    0.1290: real time    0.1294
    SETDIJ:  cpu time    0.0195: real time    0.0196
     EDDAV:  cpu time    2.0928: real time    2.0977
    CHARGE:  cpu time    0.1276: real time    0.1279
    MIXING:  cpu time    0.0050: real time    0.0050
    --------------------------------------------
      LOOP:  cpu time    2.3740: real time    2.3796

 eigenvalue-minimisations  :  1408
 total energy-change (2. order) :-0.1864048E+00  (-0.2643366E+00)
 number of electron     370.0000196 magnetization       2.5621613
 augmentation part      122.1899333 magnetization       2.2390133

 Broyden mixing:
  rms(total) = 0.10104E+01    rms(broyden)= 0.10101E+01
  rms(prec ) = 0.12402E+01
  weight for this iteration     100.00

 eigenvalues of (default mixing * dielectric matrix)
  average eigenvalue GAMMA=   0.5234
  1.3260  1.3260  1.1874  0.6125  0.6125  0.4176  0.4176  0.2100  0.1720  0.1408
  0.1408  0.1267  0.1146

 Free energy of the ion-electron system (eV)
  ---------------------------------------------------
  alpha Z        PSCENC =      1129.84551580
  Ewald energy   TEWEN  =    -20893.14156597
  -Hartree energ DENC   =    -11704.92483517
  -exchange      EXHF   =         0.00000000
  -V(xc)+E(xc)   XCENC  =      1489.64210896
  PAW double counting   =     35593.23509613   -36859.86083106
  entropy T*S    EENTRO =        -0.03398795
  eigenvalues    EBANDS =     -1309.87864977
  atomic energy  EATOM  =     32219.77639703
  Solvation  Ediel_sol  =         0.00000000
  ---------------------------------------------------
  free energy    TOTEN  =      -335.34075200 eV

  energy without entropy =     -335.30676405  energy(sigma->0) =     -335.32375803


--------------------------------------------------------------------------------------------------------




--------------------------------------- Iteration      1(  19)  ---------------------------------------


    POTLOK:  cpu time    0.1292: real time    0.1295
    SETDIJ:  cpu time    0.0197: real time    0.0197
     EDDAV:  cpu time    1.9378: real time    1.9424
    CHARGE:  cpu time    0.1283: real time    0.1286
    MIXING:  cpu time    0.0054: real time    0.0055
    --------------------------------------------
      LOOP:  cpu time    2.2204: real time    2.2257

 eigenvalue-minimisations  :  1280
 total energy-change (2. order) : 0.9399776E-01  (-0.2376918E+00)
 number of electron     370.0000197 magnetization       1.8424959
 augmentation part      122.1235000 magnetization       1.7758515

 Broyden mixing:
  rms(total) = 0.71855E+00    rms(broyden)= 0.71820E+00
  rms(prec ) = 0.87550E+00
  weight for this iteration     100.00

 eigenvalues of (default mixing * dielectric matrix)
  average eigenvalue GAMMA=   0.5539
  1.6283  1.6283  1.0510  0.6830  0.6830  0.4196  0.4196  0.3671  0.1818  0.1818
  0.1359  0.1359  0.1237  0.1162

 Free energy of the ion-electron system (eV)
  ---------------------------------------------------
  alpha Z        PSCENC =      1129.84551580
  Ewald energy   TEWEN  =    -20893.14156597
  -Hartree energ DENC   =    -11708.83462856
  -exchange      EXHF   =         0.00000000
  -V(xc)+E(xc)   XCENC  =      1489.69988370
  PAW double counting   =     35617.22339561   -36883.45567461
  entropy T*S    EENTRO =        -0.00788189
  eigenvalues    EBANDS =     -1306.35219534
  atomic energy  EATOM  =     32219.77639703
  Solvation  Ediel_sol  =         0.00000000
  ---------------------------------------------------
  free energy    TOTEN  =      -335.24675424 eV

  energy without entropy =     -335.23887236  energy(sigma->0) =     -335.24281330


--------------------------------------------------------------------------------------------------------




--------------------------------------- Iteration      1(  20)  ---------------------------------------


    POTLOK:  cpu time    0.1283: real time    0.1286
    SETDIJ:  cpu time    0.0195: real time    0.0195
     EDDAV:  cpu time    1.9321: real time    1.9367
    CHARGE:  cpu time    0.1281: real time    0.1284
    MIXING:  cpu time    0.0060: real time    0.0060
    --------------------------------------------
      LOOP:  cpu time    2.2139: real time    2.2192

 eigenvalue-minimisations  :  1280
 total energy-change (2. order) :-0.1549496E+00  (-0.2708490E+00)
 number of electron     370.0000197 magnetization       0.8598577
 augmentation part      122.1294763 magnetization       0.6582983

 Broyden mixing:
  rms(total) = 0.86839E+00    rms(broyden)= 0.86790E+00
  rms(prec ) = 0.11874E+01
  weight for this iteration     100.00

 eigenvalues of (default mixing * dielectric matrix)
  average eigenvalue GAMMA=   0.5789
  1.8986  1.8986  1.0591  0.7396  0.7396  0.5027  0.4186  0.4186  0.1878  0.1847
  0.1433  0.1339  0.1339  0.1247  0.0992

 Free energy of the ion-electron system (eV)
  ---------------------------------------------------
  alpha Z        PSCENC =      1129.84551580
  Ewald energy   TEWEN  =    -20893.14156597
  -Hartree energ DENC   =    -11710.70987477
  -exchange      EXHF   =         0.00000000
  -V(xc)+E(xc)   XCENC  =      1489.73362559
  PAW double counting   =     35671.84425312   -36937.32953298
  entropy T*S    EENTRO =        -0.02858936
  eigenvalues    EBANDS =     -1305.39193231
  atomic energy  EATOM  =     32219.77639703
  Solvation  Ediel_sol  =         0.00000000
  ---------------------------------------------------
  free energy    TOTEN  =      -335.40170386 eV

  energy without entropy =     -335.37311450  energy(sigma->0) =     -335.38740918


--------------------------------------------------------------------------------------------------------




--------------------------------------- Iteration      1(  21)  ---------------------------------------


    POTLOK:  cpu time    0.1220: real time    0.1223
    SETDIJ:  cpu time    0.0191: real time    0.0192
     EDDAV:  cpu time    1.9351: real time    1.9397
    CHARGE:  cpu time    0.1287: real time    0.1290
    MIXING:  cpu time    0.0060: real time    0.0060
    --------------------------------------------
      LOOP:  cpu time    2.2109: real time    2.2162

 eigenvalue-minimisations  :  1264
 total energy-change (2. order) : 0.7252443E-01  (-0.2246875E+00)
 number of electron     370.0000197 magnetization       0.3814627
 augmentation part      122.1884982 magnetization       0.1866712

 Broyden mixing:
  rms(total) = 0.57438E+00    rms(broyden)= 0.57389E+00
  rms(prec ) = 0.76329E+00
  weight for this iteration     100.00

 eigenvalues of (default mixing * dielectric matrix)
  average eigenvalue GAMMA=   0.5693
  1.8970  1.8970  1.1934  0.7699  0.7699  0.5237  0.4194  0.4194  0.2402  0.1872
  0.1764  0.1336  0.1336  0.1311  0.1221  0.0953

 Free energy of the ion-electron system (eV)
  ---------------------------------------------------
  alpha Z        PSCENC =      1129.84551580
  Ewald energy   TEWEN  =    -20893.14156597
  -Hartree energ DENC   =    -11712.78542505
  -exchange      EXHF   =         0.00000000
  -V(xc)+E(xc)   XCENC  =      1489.79103764
  PAW double counting   =     35759.34333241   -37023.89392340
  entropy T*S    EENTRO =        -0.02809263
  eigenvalues    EBANDS =     -1304.23645526
  atomic energy  EATOM  =     32219.77639703
  Solvation  Ediel_sol  =         0.00000000
  ---------------------------------------------------
  free energy    TOTEN  =      -335.32917943 eV

  energy without entropy =     -335.30108680  energy(sigma->0) =     -335.31513312


--------------------------------------------------------------------------------------------------------




--------------------------------------- Iteration      1(  22)  ---------------------------------------


    POTLOK:  cpu time    0.1274: real time    0.1277
    SETDIJ:  cpu time    0.0183: real time    0.0184
     EDDAV:  cpu time    2.0512: real time    2.0561
    CHARGE:  cpu time    0.1286: real time    0.1289
    MIXING:  cpu time    0.0063: real time    0.0063
    --------------------------------------------
      LOOP:  cpu time    2.3319: real time    2.3375

 eigenvalue-minimisations  :  1360
 total energy-change (2. order) : 0.1048360E+00  (-0.8078495E-01)
 number of electron     370.0000197 magnetization       0.2564049
 augmentation part      122.2297631 magnetization       0.2071344

 Broyden mixing:
  rms(total) = 0.32572E+00    rms(broyden)= 0.32545E+00
  rms(prec ) = 0.43242E+00
  weight for this iteration     100.00

 eigenvalues of (default mixing * dielectric matrix)
  average eigenvalue GAMMA=   0.5517
  1.9343  1.9343  1.1108  0.7892  0.7892  0.5479  0.4194  0.4194  0.2826  0.1937
  0.1747  0.1747  0.1368  0.1368  0.1233  0.1211  0.0907

 Free energy of the ion-electron system (eV)
  ---------------------------------------------------
  alpha Z        PSCENC =      1129.84551580
  Ewald energy   TEWEN  =    -20893.14156597
  -Hartree energ DENC   =    -11713.71471941
  -exchange      EXHF   =         0.00000000
  -V(xc)+E(xc)   XCENC  =      1489.83828320
  PAW double counting   =     35816.57327809   -37081.03969471
  entropy T*S    EENTRO =        -0.01344676
  eigenvalues    EBANDS =     -1303.34839064
  atomic energy  EATOM  =     32219.77639703
  Solvation  Ediel_sol  =         0.00000000
  ---------------------------------------------------
  free energy    TOTEN  =      -335.22434339 eV

  energy without entropy =     -335.21089663  energy(sigma->0) =     -335.21762001


--------------------------------------------------------------------------------------------------------




--------------------------------------- Iteration      1(  23)  ---------------------------------------


    POTLOK:  cpu time    0.1298: real time    0.1301
    SETDIJ:  cpu time    0.0195: real time    0.0195
     EDDAV:  cpu time    2.2405: real time    2.2458
    CHARGE:  cpu time    0.1190: real time    0.1192
    MIXING:  cpu time    0.0062: real time    0.0063
    --------------------------------------------
      LOOP:  cpu time    2.5150: real time    2.5209

 eigenvalue-minimisations  :  1520
 total energy-change (2. order) : 0.2141021E-01  (-0.2224997E-01)
 number of electron     370.0000197 magnetization       0.2100331
 augmentation part      122.2322972 magnetization       0.1445568

 Broyden mixing:
  rms(total) = 0.23237E+00    rms(broyden)= 0.23230E+00
  rms(prec ) = 0.28680E+00
  weight for this iteration     100.00

 eigenvalues of (default mixing * dielectric matrix)
  average eigenvalue GAMMA=   0.5437
  1.9110  1.9110  1.0788  0.8086  0.8086  0.5273  0.4218  0.4218  0.3713  0.3713
  0.1982  0.1829  0.1673  0.1352  0.1352  0.1253  0.1196  0.0925

 Free energy of the ion-electron system (eV)
  ---------------------------------------------------
  alpha Z        PSCENC =      1129.84551580
  Ewald energy   TEWEN  =    -20893.14156597
  -Hartree energ DENC   =    -11714.33056579
  -exchange      EXHF   =         0.00000000
  -V(xc)+E(xc)   XCENC  =      1489.88306797
  PAW double counting   =     35831.28973488   -37095.78825129
  entropy T*S    EENTRO =        -0.02267418
  eigenvalues    EBANDS =     -1302.71459162
  atomic energy  EATOM  =     32219.77639703
  Solvation  Ediel_sol  =         0.00000000
  ---------------------------------------------------
  free energy    TOTEN  =      -335.20293318 eV

  energy without entropy =     -335.18025900  energy(sigma->0) =     -335.19159609


--------------------------------------------------------------------------------------------------------




--------------------------------------- Iteration      1(  24)  ---------------------------------------


    POTLOK:  cpu time    0.1171: real time    0.1174
    SETDIJ:  cpu time    0.0189: real time    0.0189
     EDDAV:  cpu time    1.9747: real time    1.9794
    CHARGE:  cpu time    0.1175: real time    0.1177
    MIXING:  cpu time    0.0065: real time    0.0065
    --------------------------------------------
      LOOP:  cpu time    2.2347: real time    2.2400

 eigenvalue-minimisations  :  1280
 total energy-change (2. order) : 0.3613656E-02  (-0.9382856E-02)
 number of electron     370.0000197 magnetization       0.1653503
 augmentation part      122.2323843 magnetization       0.1486688

 Broyden mixing:
  rms(total) = 0.21892E+00    rms(broyden)= 0.21888E+00
  rms(prec ) = 0.27147E+00
  weight for this iteration     100.00

 eigenvalues of (default mixing * dielectric matrix)
  average eigenvalue GAMMA=   0.5383
  1.8935  1.8935  1.0657  0.8015  0.8015  0.5583  0.5583  0.5243  0.4195  0.4195
  0.2094  0.1820  0.1767  0.1338  0.1338  0.1304  0.1231  0.1123  0.0912

 Free energy of the ion-electron system (eV)
  ---------------------------------------------------
  alpha Z        PSCENC =      1129.84551580
  Ewald energy   TEWEN  =    -20893.14156597
  -Hartree energ DENC   =    -11714.55978485
  -exchange      EXHF   =         0.00000000
  -V(xc)+E(xc)   XCENC  =      1489.90574924
  PAW double counting   =     35840.89088849   -37105.54954373
  entropy T*S    EENTRO =        -0.01200804
  eigenvalues    EBANDS =     -1302.35496748
  atomic energy  EATOM  =     32219.77639703
  Solvation  Ediel_sol  =         0.00000000
  ---------------------------------------------------
  free energy    TOTEN  =      -335.19931952 eV

  energy without entropy =     -335.18731148  energy(sigma->0) =     -335.19331550


--------------------------------------------------------------------------------------------------------




--------------------------------------- Iteration      1(  25)  ---------------------------------------


    POTLOK:  cpu time    0.1257: real time    0.1260
    SETDIJ:  cpu time    0.0198: real time    0.0198
     EDDAV:  cpu time    2.0425: real time    2.0474
    CHARGE:  cpu time    0.1188: real time    0.1191
    MIXING:  cpu time    0.0070: real time    0.0070
    --------------------------------------------
      LOOP:  cpu time    2.3138: real time    2.3193

 eigenvalue-minimisations  :  1328
 total energy-change (2. order) : 0.1823954E-02  (-0.2456771E-02)
 number of electron     370.0000197 magnetization       0.1389691
 augmentation part      122.2378374 magnetization       0.1300776

 Broyden mixing:
  rms(total) = 0.18550E+00    rms(broyden)= 0.18548E+00
  rms(prec ) = 0.23154E+00
  weight for this iteration     100.00

 eigenvalues of (default mixing * dielectric matrix)
  average eigenvalue GAMMA=   0.5768
  1.8774  1.8774  1.1276  0.9841  0.9841  0.7677  0.7677  0.5529  0.4185  0.4185
  0.4292  0.2176  0.1828  0.1828  0.1447  0.1339  0.1339  0.1247  0.1178  0.0919

 Free energy of the ion-electron system (eV)
  ---------------------------------------------------
  alpha Z        PSCENC =      1129.84551580
  Ewald energy   TEWEN  =    -20893.14156597
  -Hartree energ DENC   =    -11714.42022263
  -exchange      EXHF   =         0.00000000
  -V(xc)+E(xc)   XCENC  =      1489.92031327
  PAW double counting   =     35849.32293381   -37114.12879453
  entropy T*S    EENTRO =        -0.00950326
  eigenvalues    EBANDS =     -1302.36256908
  atomic energy  EATOM  =     32219.77639703
  Solvation  Ediel_sol  =         0.00000000
  ---------------------------------------------------
  free energy    TOTEN  =      -335.19749557 eV

  energy without entropy =     -335.18799230  energy(sigma->0) =     -335.19274394


--------------------------------------------------------------------------------------------------------




--------------------------------------- Iteration      1(  26)  ---------------------------------------


    POTLOK:  cpu time    0.1275: real time    0.1278
    SETDIJ:  cpu time    0.0198: real time    0.0199
     EDDAV:  cpu time    2.0792: real time    2.0841
    CHARGE:  cpu time    0.1142: real time    0.1144
    MIXING:  cpu time    0.0070: real time    0.0070
    --------------------------------------------
      LOOP:  cpu time    2.3477: real time    2.3532

 eigenvalue-minimisations  :  1360
 total energy-change (2. order) :-0.2364095E-02  (-0.1123359E-02)
 number of electron     370.0000197 magnetization       0.1251628
 augmentation part      122.2380204 magnetization       0.1224713

 Broyden mixing:
  rms(total) = 0.16904E+00    rms(broyden)= 0.16903E+00
  rms(prec ) = 0.21076E+00
  weight for this iteration     100.00

 eigenvalues of (default mixing * dielectric matrix)
  average eigenvalue GAMMA=   0.5945
  1.9323  1.9323  1.2758  1.2758  1.0766  0.7752  0.7752  0.5649  0.4182  0.4182
  0.4413  0.2797  0.2116  0.1815  0.1815  0.1424  0.1337  0.1337  0.1246  0.1176
  0.0919

 Free energy of the ion-electron system (eV)
  ---------------------------------------------------
  alpha Z        PSCENC =      1129.84551580
  Ewald energy   TEWEN  =    -20893.14156597
  -Hartree energ DENC   =    -11714.40858171
  -exchange      EXHF   =         0.00000000
  -V(xc)+E(xc)   XCENC  =      1489.93286495
  PAW double counting   =     35852.80865422   -37117.68670855
  entropy T*S    EENTRO =        -0.00626026
  eigenvalues    EBANDS =     -1302.32017517
  atomic energy  EATOM  =     32219.77639703
  Solvation  Ediel_sol  =         0.00000000
  ---------------------------------------------------
  free energy    TOTEN  =      -335.19985966 eV

  energy without entropy =     -335.19359940  energy(sigma->0) =     -335.19672953


--------------------------------------------------------------------------------------------------------




--------------------------------------- Iteration      1(  27)  ---------------------------------------


    POTLOK:  cpu time    0.1251: real time    0.1254
    SETDIJ:  cpu time    0.0196: real time    0.0197
     EDDAV:  cpu time    2.0804: real time    2.0853
    CHARGE:  cpu time    0.1285: real time    0.1288
    MIXING:  cpu time    0.0072: real time    0.0072
    --------------------------------------------
      LOOP:  cpu time    2.3607: real time    2.3663

 eigenvalue-minimisations  :  1392
 total energy-change (2. order) :-0.7813717E-03  (-0.1287624E-02)
 number of electron     370.0000197 magnetization       0.1171696
 augmentation part      122.2371010 magnetization       0.1177218

 Broyden mixing:
  rms(total) = 0.14361E+00    rms(broyden)= 0.14359E+00
  rms(prec ) = 0.17802E+00
  weight for this iteration     100.00

 eigenvalues of (default mixing * dielectric matrix)
  average eigenvalue GAMMA=   0.6127
  1.9306  1.9306  1.4806  1.4806  1.1391  0.7905  0.7905  0.5414  0.5414  0.4836
  0.4181  0.4181  0.2124  0.2124  0.1824  0.1824  0.1433  0.1338  0.1338  0.1247
  0.1177  0.0919

 Free energy of the ion-electron system (eV)
  ---------------------------------------------------
  alpha Z        PSCENC =      1129.84551580
  Ewald energy   TEWEN  =    -20893.14156597
  -Hartree energ DENC   =    -11714.44616528
  -exchange      EXHF   =         0.00000000
  -V(xc)+E(xc)   XCENC  =      1489.94728036
  PAW double counting   =     35853.70998604   -37118.62159634
  entropy T*S    EENTRO =        -0.00554586
  eigenvalues    EBANDS =     -1302.26494681
  atomic energy  EATOM  =     32219.77639703
  Solvation  Ediel_sol  =         0.00000000
  ---------------------------------------------------
  free energy    TOTEN  =      -335.20064103 eV

[...]
     9.847729896  0.000000000  0.107826205     0.101140485  0.000000000  0.037057982

  length of vectors
     5.537879838 10.309018580  9.848320192     0.180574521  0.102902095  0.107715791


 FORCES acting on ions
    electron-ion (+dipol)            ewald-force                    non-local-force                 convergence-correction
 -----------------------------------------------------------------------------------------------
   0.105E+02 0.440E+00 -.147E+01   -.111E+02 -.812E+00 0.159E+01   0.650E+00 0.347E+00 -.119E+00   -.839E-02 0.710E-03 0.291E-02
   -.105E+02 0.440E+00 0.147E+01   0.111E+02 -.812E+00 -.159E+01   -.650E+00 0.347E+00 0.119E+00   0.839E-02 0.710E-03 -.291E-02
   -.158E-01 -.408E-01 -.212E-01   0.175E-01 0.367E-01 0.174E-01   -.251E-02 0.433E-02 -.257E-03   0.278E-03 0.167E-03 0.410E-02
   0.158E-01 -.408E-01 0.212E-01   -.175E-01 0.367E-01 -.174E-01   0.251E-02 0.433E-02 0.257E-03   -.278E-03 0.167E-03 -.410E-02
   -.105E+02 -.451E+00 0.149E+01   0.111E+02 0.823E+00 -.161E+01   -.652E+00 -.347E+00 0.120E+00   0.733E-02 -.769E-03 0.504E-02
   0.105E+02 -.451E+00 -.149E+01   -.111E+02 0.823E+00 0.161E+01   0.652E+00 -.347E+00 -.120E+00   -.733E-02 -.769E-03 -.504E-02
   -.479E-05 -.355E+01 0.113E-05   0.711E-14 0.346E+01 0.121E-12   0.000E+00 0.876E-01 0.000E+00   -.104E-10 0.166E-02 0.665E-11
   0.305E+02 -.116E+00 0.479E+02   -.309E+02 0.692E-01 -.483E+02   0.464E+00 0.313E-01 0.396E+00   -.380E-01 0.140E-01 -.110E-01
   -.305E+02 -.116E+00 -.479E+02   0.309E+02 0.692E-01 0.483E+02   -.464E+00 0.313E-01 -.396E+00   0.380E-01 0.140E-01 0.110E-01
   -.134E+02 0.139E+01 0.141E+02   0.136E+02 -.137E+01 -.140E+02   -.172E+00 -.260E-02 -.454E-01   0.372E-01 -.146E-01 0.104E-01
   0.134E+02 0.139E+01 -.141E+02   -.136E+02 -.137E+01 0.140E+02   0.172E+00 -.260E-02 0.454E-01   -.372E-01 -.146E-01 -.104E-01
   -.603E-05 0.193E+01 0.142E-05   -.284E-13 -.176E+01 0.171E-12   0.000E+00 -.165E+00 0.452E-25   -.479E-11 -.223E-02 0.603E-11
   -.150E-04 0.208E+02 0.336E-05   0.497E-13 -.212E+02 0.142E-12   0.000E+00 0.356E+00 0.194E-25   0.741E-11 0.804E-03 0.147E-11
   0.414E-06 -.238E+02 -.930E-07   -.284E-13 0.242E+02 0.224E-12   0.000E+00 -.372E+00 0.129E-25   0.145E-11 -.177E-02 0.165E-11
   0.848E-07 0.238E+02 -.191E-07   0.533E-13 -.242E+02 -.269E-12   0.000E+00 0.371E+00 0.808E-26   -.215E-11 0.375E-02 -.193E-11
   -.306E+02 0.485E-01 -.481E+02   0.310E+02 -.535E-02 0.485E+02   -.464E+00 -.317E-01 -.401E+00   0.334E-01 -.102E-01 0.111E-01
   0.306E+02 0.485E-01 0.481E+02   -.310E+02 -.535E-02 -.485E+02   0.464E+00 -.317E-01 0.401E+00   -.334E-01 -.102E-01 -.111E-01
   0.135E+02 -.135E+01 -.141E+02   -.136E+02 0.134E+01 0.140E+02   0.173E+00 0.279E-02 0.463E-01   -.327E-01 0.108E-01 -.111E-01
   -.135E+02 -.135E+01 0.141E+02   0.136E+02 0.134E+01 -.140E+02   -.173E+00 0.279E-02 -.463E-01   0.327E-01 0.108E-01 0.111E-01
   0.153E-04 -.208E+02 -.343E-05   -.853E-13 0.211E+02 -.186E-12   0.258E-25 -.356E+00 0.000E+00   -.148E-11 -.242E-02 -.147E-11
   0.666E-05 -.191E+01 -.157E-05   -.817E-13 0.174E+01 -.327E-12   0.000E+00 0.163E+00 0.101E-25   0.666E-12 0.449E-02 -.411E-11
   0.546E-05 0.358E+01 -.129E-05   0.320E-13 -.349E+01 -.227E-12   0.000E+00 -.875E-01 -.267E-25   0.368E-11 -.338E-02 -.455E-11
   -.227E+02 0.278E+02 0.369E+03   0.242E+02 -.298E+02 -.390E+03   -.148E+01 0.196E+01 0.210E+02   0.203E-01 0.471E-02 0.135E-01
   0.227E+02 0.278E+02 -.369E+03   -.242E+02 -.298E+02 0.390E+03   0.148E+01 0.196E+01 -.210E+02   -.203E-01 0.471E-02 -.135E-01
   -.385E+02 0.261E+02 -.342E+03   0.433E+02 -.278E+02 0.360E+03   -.477E+01 0.163E+01 -.177E+02   -.193E-01 0.364E-02 0.818E-02
   0.385E+02 0.261E+02 0.342E+03   -.433E+02 -.278E+02 -.360E+03   0.477E+01 0.163E+01 0.177E+02   0.193E-01 0.364E-02 -.818E-02
   -.287E+02 0.367E+02 0.364E+03   0.286E+02 -.391E+02 -.386E+03   0.106E+00 0.247E+01 0.223E+02   0.584E-02 -.120E-01 0.178E-01
   0.287E+02 0.367E+02 -.364E+03   -.286E+02 -.391E+02 0.386E+03   -.106E+00 0.247E+01 -.223E+02   -.584E-02 -.120E-01 -.178E-01
   0.278E+02 -.406E+02 -.360E+03   -.286E+02 0.436E+02 0.381E+03   0.851E+00 -.309E+01 -.209E+02   -.950E-02 0.119E-01 -.146E-01
   -.278E+02 -.406E+02 0.360E+03   0.286E+02 0.436E+02 -.381E+03   -.851E+00 -.309E+01 0.209E+02   0.950E-02 0.119E-01 0.146E-01
   0.288E+02 -.367E+02 -.364E+03   -.287E+02 0.391E+02 0.387E+03   -.100E+00 -.247E+01 -.223E+02   -.174E-01 0.161E-01 -.929E-02
   -.288E+02 -.367E+02 0.364E+03   0.287E+02 0.391E+02 -.387E+03   0.100E+00 -.247E+01 0.223E+02   0.174E-01 0.161E-01 0.929E-02
   -.279E+02 0.405E+02 0.360E+03   0.288E+02 -.436E+02 -.381E+03   -.858E+00 0.309E+01 0.209E+02   0.198E-01 -.158E-01 0.761E-02
   0.279E+02 0.405E+02 -.360E+03   -.288E+02 -.436E+02 0.381E+03   0.858E+00 0.309E+01 -.209E+02   -.198E-01 -.158E-01 -.761E-02
   0.384E+02 -.262E+02 0.343E+03   -.432E+02 0.278E+02 -.360E+03   0.477E+01 -.163E+01 0.178E+02   0.233E-01 -.525E-02 0.992E-02
   -.384E+02 -.262E+02 -.343E+03   0.432E+02 0.278E+02 0.360E+03   -.477E+01 -.163E+01 -.178E+02   -.233E-01 -.525E-02 -.992E-02
   0.225E+02 -.278E+02 -.369E+03   -.240E+02 0.297E+02 0.390E+03   0.147E+01 -.195E+01 -.210E+02   -.129E-01 -.305E-02 0.189E-02
   -.225E+02 -.278E+02 0.369E+03   0.240E+02 0.297E+02 -.390E+03   -.147E+01 -.195E+01 0.210E+02   0.129E-01 -.305E-02 -.189E-02
   0.762E+02 -.730E+00 0.371E+03   -.833E+02 0.405E+00 -.391E+03   0.708E+01 0.320E+00 0.199E+02   -.150E-01 0.571E-02 0.121E-01
   -.762E+02 -.730E+00 -.371E+03   0.833E+02 0.405E+00 0.391E+03   -.708E+01 0.320E+00 -.199E+02   0.150E-01 0.571E-02 -.121E-01
   -.116E+02 0.893E-01 -.408E+03   0.116E+02 -.507E+00 0.433E+03   0.397E-01 0.413E+00 -.254E+02   0.155E-01 0.342E-02 0.101E-01
   0.116E+02 0.893E-01 0.408E+03   -.116E+02 -.507E+00 -.433E+03   -.397E-01 0.413E+00 0.254E+02   -.155E-01 0.342E-02 -.101E-01
   0.331E+02 -.344E+02 0.357E+03   -.362E+02 0.365E+02 -.376E+03   0.310E+01 -.202E+01 0.191E+02   -.231E-01 -.816E-02 -.449E-02
   -.331E+02 -.344E+02 -.357E+03   0.362E+02 0.365E+02 0.376E+03   -.310E+01 -.202E+01 -.191E+02   0.231E-01 -.816E-02 0.449E-02
   -.648E+01 0.353E+02 -.365E+03   0.697E+01 -.374E+02 0.387E+03   -.503E+00 0.210E+01 -.220E+02   0.200E-01 0.841E-02 0.685E-02
   0.648E+01 0.353E+02 0.365E+03   -.697E+01 -.374E+02 -.387E+03   0.503E+00 0.210E+01 0.220E+02   -.200E-01 0.841E-02 -.685E-02
   -.332E+02 0.344E+02 -.357E+03   0.363E+02 -.364E+02 0.376E+03   -.312E+01 0.201E+01 -.191E+02   0.153E-01 0.112E-01 0.163E-01
   0.332E+02 0.344E+02 0.357E+03   -.363E+02 -.364E+02 -.376E+03   0.312E+01 0.201E+01 0.191E+02   -.153E-01 0.112E-01 -.163E-01
   0.653E+01 -.352E+02 0.365E+03   -.703E+01 0.373E+02 -.387E+03   0.511E+00 -.209E+01 0.220E+02   -.132E-01 -.114E-01 -.175E-01
   -.653E+01 -.352E+02 -.365E+03   0.703E+01 0.373E+02 0.387E+03   -.511E+00 -.209E+01 -.220E+02   0.132E-01 -.114E-01 0.175E-01
   0.117E+02 -.632E-01 0.408E+03   -.117E+02 0.481E+00 -.433E+03   -.335E-01 -.412E+00 0.254E+02   -.503E-02 -.536E-02 0.425E-02
   -.117E+02 -.632E-01 -.408E+03   0.117E+02 0.481E+00 0.433E+03   0.335E-01 -.412E+00 -.254E+02   0.503E-02 -.536E-02 -.425E-02
   -.761E+02 0.734E+00 -.371E+03   0.832E+02 -.412E+00 0.391E+03   -.708E+01 -.318E+00 -.198E+02   0.261E-01 -.394E-02 0.184E-02
   0.761E+02 0.734E+00 0.371E+03   -.832E+02 -.412E+00 -.391E+03   0.708E+01 -.318E+00 0.198E+02   -.261E-01 -.394E-02 -.184E-02
 -----------------------------------------------------------------------------------------------
   0.539E-05 -.188E-01 -.775E-06   -.341E-12 -.542E-13 0.171E-12   0.888E-15 0.148E-01 -.178E-13   0.396E-11 0.932E-03 0.767E-11
 
 
 POSITION                                       TOTAL-FORCE (eV/Angst)
 -----------------------------------------------------------------------------------
      1.40462      5.40626      2.43825        -0.004861     -0.024028      0.003115
      4.89645      5.40626      7.34930         0.004861     -0.024028     -0.003115
      4.03856      1.38336      2.47376        -0.000603      0.000458      0.000039
      2.26251      1.38336      7.31379         0.000603      0.000458     -0.000039
      6.67091      2.90038      2.50957         0.004267      0.024421     -0.003570
     -0.36984      2.90038      7.27798        -0.004267      0.024421      0.003570
      0.00000      5.53425     -0.00000         0.000000     -0.001311      0.000000
     -1.08750      1.38345      9.70424         0.000241     -0.001159      0.004213
      7.38857      1.38345      0.08331        -0.000241     -0.001159     -0.004213
      3.83600      4.15651      9.71866         0.000080     -0.001048     -0.004369
      2.46506      4.15651      0.06889        -0.000080     -0.001048      0.004369
      0.00000      2.76435     -0.00000         0.000000     -0.002992      0.000000
      4.92386      5.52506      0.05391         0.000000     -0.003234      0.000000
      4.92386      2.76928      0.05391         0.000000     -0.003102      0.000000
      3.15053      5.53795      4.89378         0.000000      0.002505     -0.000000
      5.61517      1.38595      4.92373         0.002113      0.001299     -0.004500
      0.68589      1.38595      4.86382        -0.002113      0.001299      0.004500
      0.69175      4.15072      4.90833        -0.002125      0.001519      0.003650
      5.60932      4.15072      4.87922         0.002125      0.001519     -0.003650
      3.15053      2.78211      4.89378         0.000000      0.001100      0.000000
     -1.77333      0.00510      4.83986         0.000000      0.001306      0.000000
     -1.77333      2.77311      4.83986         0.000000     -0.000596     -0.000000
      4.79220      0.02907      3.95373         0.002875      0.002210     -0.002257
      1.50886      0.02907      5.83382        -0.002875      0.002210      0.002257
      3.09438      0.03233      1.08577        -0.000910     -0.001428      0.002518
      3.20669      0.03233      8.70178         0.000910     -0.001428     -0.002518
      7.29115      1.38690      4.00697         0.003949      0.001910      0.000112
     -0.99009      1.38690      5.78058        -0.003949      0.001910     -0.000112
     -0.99880      4.15807      5.79131        -0.004658      0.000712      0.000538
      7.29987      4.15807      3.99624         0.004658      0.000712     -0.000538
      0.78313      1.38248      0.94095        -0.006081     -0.001328     -0.000637
      5.51793      1.38248      8.84660         0.006081     -0.001328      0.000637
      5.52665      4.14925      8.83588         0.006048     -0.000632     -0.000465
      0.77442      4.14925      0.95167        -0.006048     -0.000632      0.000465
      4.98010      2.73698      3.86238         0.000362      0.001144     -0.002333
      1.32097      2.73698      5.92517        -0.000362      0.001144      0.002333
      3.28228      2.74030      0.99429        -0.001798     -0.001951      0.002893
      3.01879      2.74030      8.79326         0.001798     -0.001951     -0.002893
      0.04345      5.52109      3.88083        -0.000138      0.000628      0.011920
      6.25762      5.52109      5.90672         0.000138      0.000628     -0.011920
      8.17931      5.52293      1.00308        -0.005203     -0.001362     -0.006466
     -1.87824      5.52293      8.78447         0.005203     -0.001362      0.006466
      2.39747      1.39000      3.92427        -0.000203      0.002335      0.006017
      3.90360      1.39000      5.86328         0.000203      0.002335     -0.006017
      3.94221      4.15688      5.82535         0.000408      0.001819     -0.004326
      2.35886      4.15688      3.96220        -0.000408      0.001819      0.004326
      5.67722      1.37928      1.02321        -0.001154     -0.001400     -0.005388
      0.62385      1.37928      8.76434         0.001154     -0.001400      0.005388
      0.58527      4.15030      8.80225         0.001078     -0.001628      0.003986
      5.71580      4.15030      0.98530        -0.001078     -0.001628     -0.003986
     -0.10510      2.78443      3.94405         0.006897      0.001440      0.008546
      6.40617      2.78443      5.84350        -0.006897      0.001440     -0.008546
      8.03108      2.78620      1.06622         0.000646     -0.000769     -0.009363
     -1.73002      2.78620      8.72133        -0.000646     -0.000769      0.009363
 -----------------------------------------------------------------------------------
    total drift:                                0.000005     -0.003058     -0.000001


--------------------------------------------------------------------------------------------------------



  FREE ENERGIE OF THE ION-ELECTRON SYSTEM (eV)
  ---------------------------------------------------
  free  energy   TOTEN  =      -335.3622059513 eV

  energy  without entropy=     -335.3620698070  energy(sigma->0) =     -335.36213788
 
 d Force = 0.2006995E-03[ 0.196E-03, 0.205E-03]  d Energy = 0.2172498E-03-0.166E-04
 d Force =-0.1404412E+01[-0.140E+01,-0.140E+01]  d Ewald  =-0.2945530E+01 0.154E+01


--------------------------------------------------------------------------------------------------------


    POTLOK:  cpu time    0.1139: real time    0.1142


--------------------------------------------------------------------------------------------------------


 Quasi-Newton relaxation of ions (Broydens 2nd method)
  g(Force)  = 0.198E-03   g(Stress)= 0.116E-04

 retain information from N=  2 steps
 eigenvalues of (default step * inverse Hessian matrix)
  average eigenvalue of G=   1.0740
 eigenvalue spectrum of G is  0.0127  2.1352


--------------------------------------------------------------------------------------------------------


     LOOP+:  cpu time   12.2195: real time   12.2522
    4ORBIT:  cpu time    0.0000: real time    0.0000

volume of typ            1:     8.8 %

volume of typ            2:    19.2 %

volume of typ            3:     9.8 %
 
total charge     
 
# of ion       s       p       d       tot
------------------------------------------
    1        2.070   0.219   0.081   2.370
    2        2.070   0.219   0.081   2.370
    3        2.063   0.194   0.072   2.329
    4        2.063   0.194   0.072   2.329
    5        2.070   0.219   0.081   2.370
    6        2.070   0.219   0.081   2.370
    7        0.300   0.424   7.840   8.564
    8        0.295   0.416   7.846   8.557
    9        0.295   0.416   7.846   8.557
   10        0.293   0.411   7.840   8.544
   11        0.293   0.411   7.840   8.544
   12        0.272   0.364   7.851   8.487
   13        0.271   0.361   7.873   8.504
   14        0.301   0.427   7.845   8.573
   15        0.301   0.427   7.845   8.573
   16        0.295   0.416   7.845   8.556
   17        0.295   0.416   7.845   8.556
   18        0.293   0.411   7.840   8.544
   19        0.293   0.411   7.840   8.544
   20        0.271   0.361   7.873   8.504
   21        0.272   0.364   7.851   8.487
   22        0.300   0.424   7.840   8.565
   23        1.271   2.760   0.007   4.039
   24        1.271   2.760   0.007   4.039
   25        1.266   2.774   0.007   4.046
   26        1.266   2.774   0.007   4.046
   27        1.274   2.753   0.008   4.035
   28        1.274   2.753   0.008   4.035
   29        1.270   2.766   0.008   4.044
   30        1.270   2.766   0.008   4.044
   31        1.274   2.753   0.008   4.035
   32        1.274   2.753   0.008   4.035
   33        1.270   2.766   0.008   4.044
   34        1.270   2.766   0.008   4.044
   35        1.266   2.773   0.007   4.046
   36        1.266   2.773   0.007   4.046
   37        1.271   2.760   0.007   4.039
   38        1.271   2.760   0.007   4.039
   39        1.273   2.761   0.007   4.042
   40        1.273   2.761   0.007   4.042
   41        1.283   2.729   0.008   4.020
   42        1.283   2.729   0.008   4.020
   43        1.267   2.771   0.007   4.044
   44        1.267   2.771   0.007   4.044
   45        1.271   2.761   0.008   4.040
   46        1.271   2.761   0.008   4.040
   47        1.266   2.771   0.007   4.044
   48        1.266   2.771   0.007   4.044
   49        1.271   2.761   0.008   4.040
   50        1.271   2.761   0.008   4.040
   51        1.283   2.729   0.008   4.020
   52        1.283   2.729   0.008   4.020
   53        1.273   2.761   0.007   4.042
   54        1.273   2.761   0.007   4.042
--------------------------------------------------
tot          57.74   96.03  126.26  280.03
 
magnetization (x)
 
# of ion       s       p       d       tot
------------------------------------------
    1        0.001   0.004   0.001   0.006
    2        0.001   0.004   0.001   0.006
    3        0.000  -0.000  -0.000  -0.000
    4        0.000  -0.000  -0.000  -0.000
    5       -0.001  -0.004  -0.001  -0.006
    6       -0.001  -0.004  -0.001  -0.006
    7        0.000  -0.000  -0.013  -0.013
    8       -0.000  -0.000  -0.090  -0.091
    9       -0.000  -0.000  -0.090  -0.091
   10       -0.000  -0.000  -0.079  -0.079
   11       -0.000  -0.000  -0.079  -0.079
   12       -0.002  -0.000  -0.485  -0.488
   13        0.004  -0.000   0.519   0.523
   14        0.000  -0.001   0.002   0.002
   15       -0.000   0.001  -0.002  -0.002
   16        0.000   0.000   0.090   0.091
   17        0.000   0.000   0.090   0.091
   18        0.000   0.000   0.079   0.079
   19        0.000   0.000   0.079   0.079
   20       -0.004   0.000  -0.519  -0.523
   21        0.002   0.000   0.486   0.488
   22       -0.000   0.000   0.013   0.013
   23        0.001   0.008   0.000   0.009
   24        0.001   0.008   0.000   0.009
   25        0.005   0.075   0.000   0.079
   26        0.005   0.075   0.000   0.079
   27        0.002   0.018   0.000   0.020
   28        0.002   0.018   0.000   0.020
   29        0.002   0.016   0.000   0.018
   30        0.002   0.016   0.000   0.018
   31       -0.002  -0.018  -0.000  -0.020
   32       -0.002  -0.018  -0.000  -0.020
   33       -0.002  -0.016  -0.000  -0.018
   34       -0.002  -0.016  -0.000  -0.018
   35       -0.005  -0.074  -0.000  -0.079
   36       -0.005  -0.074  -0.000  -0.079
   37       -0.001  -0.008  -0.000  -0.009
   38       -0.001  -0.008  -0.000  -0.009
   39        0.006   0.067   0.000   0.073
   40        0.006   0.067   0.000   0.073
   41       -0.001  -0.006  -0.000  -0.007
   42       -0.001  -0.006  -0.000  -0.007
   43       -0.000  -0.004   0.000  -0.004
   44       -0.000  -0.004   0.000  -0.004
   45       -0.000  -0.004   0.000  -0.005
   46       -0.000  -0.004   0.000  -0.005
   47        0.000   0.004  -0.000   0.004
   48        0.000   0.004  -0.000   0.004
   49        0.000   0.004  -0.000   0.005
   50        0.000   0.004  -0.000   0.005
   51        0.001   0.006   0.000   0.007
   52        0.001   0.006   0.000   0.007
   53       -0.006  -0.067  -0.000  -0.073
   54       -0.006  -0.067  -0.000  -0.073
--------------------------------------------------
tot          -0.00    0.00   -0.00    0.00
 

 total amount of memory used by VASP MPI-rank0    88462. kBytes
=======================================================================

   base      :      30000. kBytes
   nonlr-proj:      20397. kBytes
   fftplans  :       4884. kBytes
   grid      :      28787. kBytes
   one-center:        839. kBytes
   wavefun   :       3555. kBytes
 
  
  
 General timing and accounting informations for this job:
 ========================================================
  
                  Total CPU time used (sec):      493.303
                            User time (sec):      490.500
                          System time (sec):        2.802
                         Elapsed time (sec):      499.625
  
                   Maximum memory used (kb):      140620.
                   Average memory used (kb):           0.
  
                          Minor page faults:        36697
                          Major page faults:           63
                 Voluntary context switches:         1375
