 vasp.5.4.4.18Apr17-6-g9f103f2a35 (build May 12 2020 05:39:39) gamma-only       
  
 MD_VERSION_INFO: Compiled 2020-05-12T12:39:39-UTC in devlin.sd.materialsdesign.
 com:/home/medea2/data/build/wwolf/vasp-gpu5.4.4/13047/x86_64/src/src/build/gam 
 from svn 13047
 
 This VASP executable licensed from Materials Design, Inc.
 
 executed on                        Lin64 date 2023.03.07  06:04:46
 running on   16 total cores
 distrk:  each k-point on   16 cores,    1 groups
 distr:  one band on NCORES_PER_BAND=   1 cores,   16 groups


--------------------------------------------------------------------------------------------------------


 INCAR:
 POTCAR:    PAW_PBE Li_sv 10Sep2004               
 POTCAR:    PAW_PBE Ni 02Aug2007                  
 POTCAR:    PAW_PBE O 08Apr2002                   

 ----------------------------------------------------------------------------- 
|                                                                             |
|           W    W    AA    RRRRR   N    N  II  N    N   GGGG   !!!           |
|           W    W   A  A   R    R  NN   N  II  NN   N  G    G  !!!           |
|           W    W  A    A  R    R  N N  N  II  N N  N  G       !!!           |
|           W WW W  AAAAAA  RRRRR   N  N N  II  N  N N  G  GGG   !            |
|           WW  WW  A    A  R   R   N   NN  II  N   NN  G    G                |
|           W    W  A    A  R    R  N    N  II  N    N   GGGG   !!!           |
|                                                                             |
|      For optimal performance we recommend to set                            |
|        NCORE= 4 - approx SQRT( number of cores)                             |
|      NCORE specifies how many cores store one orbital (NPAR=cpu/NCORE).     |
|      This setting can  greatly improve the performance of VASP for DFT.     |
|      The default,   NCORE=1            might be grossly inefficient         |
|      on modern multi-core architectures or massively parallel machines.     |
|      Do your own testing !!!!                                               |
|      Unfortunately you need to use the default for GW and RPA calculations. |
|      (for HF NCORE is supported but not extensively tested yet)             |
|                                                                             |
 ----------------------------------------------------------------------------- 

 POTCAR:    PAW_PBE Li_sv 10Sep2004               
  local pseudopotential read in
  atomic valenz-charges read in
  non local Contribution for L=           0  read in
    real space projection operators read in
  non local Contribution for L=           0  read in
    real space projection operators read in
  non local Contribution for L=           1  read in
    real space projection operators read in
    PAW grid and wavefunctions read in
 
   number of l-projection  operators is LMAX  =           3
   number of lm-projection operators is LMMAX =           5
 
 POTCAR:    PAW_PBE Ni 02Aug2007                  
  local pseudopotential read in
  partial core-charges read in
  partial kinetic energy density read in
  atomic valenz-charges read in
  non local Contribution for L=           2  read in
    real space projection operators read in
  non local Contribution for L=           2  read in
    real space projection operators read in
  non local Contribution for L=           0  read in
    real space projection operators read in
  non local Contribution for L=           0  read in
    real space projection operators read in
  non local Contribution for L=           1  read in
    real space projection operators read in
  non local Contribution for L=           1  read in
    real space projection operators read in
    PAW grid and wavefunctions read in
 
   number of l-projection  operators is LMAX  =           6
   number of lm-projection operators is LMMAX =          18
 
 POTCAR:    PAW_PBE O 08Apr2002                   
  local pseudopotential read in
  partial core-charges read in
  partial kinetic energy density read in
  kinetic energy density of atom read in
  atomic valenz-charges read in
  non local Contribution for L=           0  read in
    real space projection operators read in
  non local Contribution for L=           0  read in
    real space projection operators read in
  non local Contribution for L=           1  read in
    real space projection operators read in
  non local Contribution for L=           1  read in
    real space projection operators read in
    PAW grid and wavefunctions read in
 
   number of l-projection  operators is LMAX  =           4
   number of lm-projection operators is LMMAX =           8
 
 Optimization of the real space projectors (new method)

 maximal supplied QI-value         = 22.11
 optimisation between [QCUT,QGAM] = [ 11.28, 22.77] = [ 35.61,145.23] Ry 
 Optimized for a Real-space Cutoff    1.10 Angstroem

   l    n(q)    QCUT    max X(q) W(low)/X(q) W(high)/X(q)  e(spline) 
   0      7    11.276    10.506    0.54E-04    0.58E-04    0.16E-07
   0      7    11.276     8.367    0.11E-03    0.14E-03    0.35E-07
   1      7    11.276     8.983    0.23E-03    0.43E-03    0.86E-07
 Optimization of the real space projectors (new method)

 maximal supplied QI-value         = 16.25
 optimisation between [QCUT,QGAM] = [ 11.38, 22.75] = [ 36.24,144.96] Ry 
 Optimized for a Real-space Cutoff    1.47 Angstroem

   l    n(q)    QCUT    max X(q) W(low)/X(q) W(high)/X(q)  e(spline) 
   2      9    11.376    60.317    0.17E-03    0.16E-04    0.16E-06
   2      9    11.376    55.921    0.17E-03    0.16E-04    0.17E-06
   0     10    11.376    51.690    0.45E-04    0.60E-04    0.21E-06
   0     10    11.376    30.015    0.37E-04    0.55E-04    0.19E-06
   1     10    11.376    18.849    0.83E-04    0.11E-03    0.92E-07
   1     10    11.376    14.624    0.69E-04    0.92E-04    0.82E-07
 Optimization of the real space projectors (new method)

 maximal supplied QI-value         = 24.76
 optimisation between [QCUT,QGAM] = [ 11.39, 22.77] = [ 36.31,145.25] Ry 
 Optimized for a Real-space Cutoff    1.10 Angstroem

   l    n(q)    QCUT    max X(q) W(low)/X(q) W(high)/X(q)  e(spline) 
   0      7    11.387    20.381    0.22E-03    0.48E-03    0.18E-06
   0      7    11.387    15.268    0.22E-03    0.52E-03    0.19E-06
   1      7    11.387     5.964    0.22E-03    0.73E-03    0.24E-06
   1      7    11.387     5.382    0.19E-03    0.60E-03    0.21E-06

 ----------------------------------------------------------------------------- 
|                                                                             |
|  ADVICE TO THIS USER RUNNING 'VASP/VAMP'   (HEAR YOUR MASTER'S VOICE ...):  |
|                                                                             |
|      You enforced a specific xc-type in the INCAR file,                     |
|      a different type was found on the POTCAR file                          |
|          I HOPE YOU KNOW, WHAT YOU ARE  DOING                               |
|                                                                             |
 ----------------------------------------------------------------------------- 

  PAW_PBE Li_sv 10Sep2004               :
 energy of atom  1       EATOM= -202.7858
 kinetic energy error for atom=    0.0143 (will be added to EATOM!!)
  PAW_PBE Ni 02Aug2007                  :
 energy of atom  2       EATOM=-1077.6739
 kinetic energy error for atom=    0.0030 (will be added to EATOM!!)
  PAW_PBE O 08Apr2002                   :
 energy of atom  3       EATOM= -432.3788
 kinetic energy error for atom=    0.0224 (will be added to EATOM!!)
 
 
 POSCAR: ce6797_1                                
  positions in direct lattice
  No initial velocities read in
 exchange correlation table for  LEXCH =       14
   RHO(1)=    0.500       N(1)  =     2000
   RHO(2)=  100.500       N(2)  =     4000
 


--------------------------------------------------------------------------------------------------------


 ion  position               nearest neighbor table
   1  0.974  0.251  0.233-  42 2.00  37 2.01  49 2.12  34 2.15  28 2.23  21 2.76  10 2.83
   2  0.251  0.250  0.501-  50 2.10  46 2.11  26 2.12  38 2.12  28 2.13  40 2.14  19 2.83
   3  0.200  0.751  0.500-  29 2.01  27 2.02  51 2.13  47 2.13  18 2.78  16 2.78
   4  0.752  0.249  0.502-  38 2.10  53 2.11  28 2.11  26 2.12  40 2.13  49 2.17
   5  0.542  0.750  0.750-  48 2.02  36 2.03  55 2.15  41 2.15  22 2.82  13 2.82
   6  0.252  0.250  0.999-  30 2.08  34 2.09  56 2.11  42 2.15  54 2.16  44 2.16
   7  0.203  0.750  1.000-  45 2.03  43 2.04  31 2.12  35 2.14  10 2.78  24 2.81
   8  0.528  0.250  0.766-  56 1.99  33 2.01  53 2.12  30 2.17  38 2.19  13 2.76  25 2.82
   9  0.546  0.750  0.251-  52 2.03  32 2.03  39 2.11  57 2.14  21 2.79  14 2.81
  10  0.998  0.999  0.999-  37 1.84  34 1.84  36 1.85  35 1.87  44 1.94  45 1.95  15 2.75  15 2.78
                             7 2.78  13 2.82   1 2.83  12 2.83  14 2.85  11 2.87
  11  0.250  0.005  0.253-  57 1.84  45 1.85  40 1.86  28 1.86  34 2.04  51 2.04  14 2.76  14 2.77
                            17 2.83  16 2.84  15 2.84  10 2.87
  12  0.248  0.001  0.752-  44 1.83  29 1.83  41 1.84  56 1.85  35 2.03  50 2.04  13 2.75  13 2.78
                            10 2.83  16 2.84  15 2.85  17 2.86
  13  0.750  0.003  0.752-  44 1.85  41 1.86  29 1.86  56 1.87  36 1.96  53 2.01  12 2.75   8 2.76
                            12 2.78  10 2.82   5 2.82  17 2.85  15 2.86  16 2.86
  14  0.750  0.002  0.251-  45 1.86  57 1.86  40 1.86  28 1.88  52 1.95  37 1.95  11 2.76  11 2.77
                             9 2.81  15 2.83  16 2.84  17 2.84  10 2.85
  15  0.500  0.005  0.003-  35 1.84  36 1.84  37 1.84  34 1.87  56 2.03  57 2.04  10 2.75  10 2.78
                            14 2.83  11 2.84  12 2.85  13 2.86
  16  0.001  0.002  0.501-  52 1.85  50 1.85  51 1.86  53 1.87  29 1.96  28 2.03  17 2.76  17 2.77
                             3 2.78  11 2.84  14 2.84  12 2.84  13 2.86
  17  0.501  0.999  0.500-  51 1.84  50 1.84  52 1.85  53 1.85  40 1.97  41 2.00  16 2.76  16 2.77
                            11 2.83  14 2.84  13 2.85  12 2.86
  18  1.000  0.502  0.502-  46 1.84  48 1.85  49 1.86  47 1.86  27 1.95  26 1.97  23 2.76  23 2.77
                             3 2.78  19 2.82  22 2.83  21 2.86  20 2.87
  19  0.250  0.494  0.746-  43 1.84  55 1.84  26 1.85  38 1.87  47 2.05  30 2.05  22 2.76  22 2.77
                            18 2.82   2 2.83  23 2.85  24 2.86  25 2.87
  20  0.251  0.500  0.249-  39 1.84  54 1.84  27 1.84  42 1.84  31 2.03  46 2.04  21 2.76  21 2.77
                            23 2.82  25 2.84  24 2.84  18 2.87
  21  0.750  0.498  0.249-  54 1.85  27 1.85  39 1.86  42 1.87  32 1.94  49 1.99   1 2.76  20 2.76
                            20 2.77   9 2.79  25 2.82  23 2.83  24 2.85  18 2.86
  22  0.751  0.497  0.749-  43 1.85  55 1.86  26 1.86  38 1.87  48 1.94  33 1.94  19 2.76  19 2.77
                             5 2.82  18 2.83  24 2.84  25 2.85  23 2.87
  23  0.500  0.498  0.497-  47 1.83  48 1.84  46 1.85  49 1.86  39 2.03  38 2.08  18 2.76  18 2.77
                            20 2.82  21 2.83  19 2.85  22 2.87
  24  0.001  0.497  0.998-  33 1.84  31 1.86  32 1.86  30 1.87  43 1.97  42 2.00  25 2.76  25 2.77
                             7 2.81  22 2.84  20 2.84  21 2.85  19 2.86
  25  0.502  0.500  0.001-  31 1.84  32 1.84  30 1.84  33 1.84  54 1.97  55 2.02  24 2.76  24 2.77
                             8 2.82  21 2.82  20 2.84  22 2.85  19 2.87
  26  1.000  0.395  0.633-  19 1.85  22 1.86  18 1.97   4 2.12   2 2.12
  27  0.001  0.598  0.362-  20 1.84  21 1.85  18 1.95   3 2.02
  28  0.999  0.110  0.363-  11 1.86  14 1.88  16 2.03   4 2.11   2 2.13   1 2.23
  29  0.001  0.903  0.639-  12 1.83  13 1.86  16 1.96   3 2.01
  30  0.257  0.393  0.893-  25 1.84  24 1.87  19 2.05   6 2.08   8 2.17
  31  0.251  0.603  0.106-  25 1.84  24 1.86  20 2.03   7 2.12
  32  0.752  0.598  0.114-  25 1.84  24 1.86  21 1.94   9 2.03
  33  0.749  0.400  0.887-  25 1.84  24 1.84  22 1.94   8 2.01
  34  0.241  0.107  0.109-  10 1.84  15 1.87  11 2.04   6 2.09   1 2.15
  35  0.257  0.898  0.894-  15 1.84  10 1.87  12 2.03   7 2.14
  36  0.744  0.903  0.889-  15 1.84  10 1.85  13 1.96   5 2.03
  37  0.753  0.101  0.114-  15 1.84  10 1.84  14 1.95   1 2.01
  38  0.503  0.388  0.638-  19 1.87  22 1.87  23 2.08   4 2.10   2 2.12   8 2.19
  39  0.499  0.604  0.356-  20 1.84  21 1.86  23 2.03   9 2.11
  40  0.502  0.104  0.366-  14 1.86  11 1.86  17 1.97   4 2.13   2 2.14
  41  0.499  0.900  0.643-  12 1.84  13 1.86  17 2.00   5 2.15
  42  0.005  0.396  0.139-  20 1.84  21 1.87   1 2.00  24 2.00   6 2.15
  43  0.004  0.596  0.859-  19 1.84  22 1.85  24 1.97   7 2.04
  44  0.002  0.100  0.865-  12 1.83  13 1.85  10 1.94   6 2.16
  45  0.004  0.905  0.139-  11 1.85  14 1.86  10 1.95   7 2.03
  46  0.244  0.395  0.392-  18 1.84  23 1.85  20 2.04   2 2.11
  47  0.257  0.603  0.607-  23 1.83  18 1.86  19 2.05   3 2.13
  48  0.744  0.596  0.613-  23 1.84  18 1.85  22 1.94   5 2.02
  49  0.755  0.397  0.388-  18 1.86  23 1.86  21 1.99   1 2.12   4 2.17
  50  0.253  0.105  0.608-  17 1.84  16 1.85  12 2.04   2 2.10
  51  0.252  0.897  0.392-  17 1.84  16 1.86  11 2.04   3 2.13
  52  0.752  0.902  0.387-  17 1.85  16 1.85  14 1.95   9 2.03
  53  0.747  0.105  0.611-  17 1.85  16 1.87  13 2.01   4 2.11   8 2.12
  54  0.498  0.399  0.138-  20 1.84  21 1.85  25 1.97   6 2.16
  55  0.496  0.599  0.856-  19 1.84  22 1.86  25 2.02   5 2.15
  56  0.496  0.107  0.860-  12 1.85  13 1.87   8 1.99  15 2.03   6 2.11
  57  0.496  0.899  0.145-  11 1.84  14 1.86  15 2.04   9 2.14
 
  LATTYP: Found a triclinic cell.
 ALAT       =    15.0698665570
 B/A-ratio  =     0.3668471492
 C/A-ratio  =     0.7685346953
 COS(alpha) =     0.0017723143
 COS(beta)  =     0.3998809867
 COS(gamma) =     0.7366215105
  
  Lattice vectors:
  
 A1 = (   3.5776202916, -11.0786567897,  -9.5689536957)
 A2 = (   0.0066107494,  -5.5283239809,  -0.0103300761)
 A3 = (  -6.3786785631,  -0.0100908287,  -9.6668757789)


Analysis of symmetry for initial positions (statically):
=====================================================================
 Subroutine PRICEL returns:
 Original cell was already a primitive cell.
 

 Routine SETGRP: Setting up the symmetry group for a 
 triclinic supercell.


 Subroutine GETGRP returns: Found  1 space group operations
 (whereof  1 operations were pure point group operations)
 out of a pool of  2 trial point group operations.


The static configuration has the point symmetry C_1 .


Analysis of symmetry for dynamics (positions and initial velocities):
=====================================================================
 Subroutine PRICEL returns:
 Original cell was already a primitive cell.
 

 Routine SETGRP: Setting up the symmetry group for a 
 triclinic supercell.


 Subroutine GETGRP returns: Found  1 space group operations
 (whereof  1 operations were pure point group operations)
 out of a pool of  2 trial point group operations.


The dynamic configuration has the point symmetry C_1 .


Analysis of structural, dynamic, and magnetic symmetry:
=====================================================================
 Subroutine PRICEL returns:
 Original cell was already a primitive cell.
 

 Routine SETGRP: Setting up the symmetry group for a 
 triclinic supercell.


 Subroutine GETGRP returns: Found  1 space group operations
 (whereof  1 operations were pure point group operations)
 out of a pool of  2 trial point group operations.


The magnetic configuration has the point symmetry C_1 .


 Subroutine INISYM returns: Found  1 space group operations
 (whereof  1 operations are pure point group operations),
 and found     1 'primitive' translations

 
 
 KPOINTS: Automatic mesh                          

Automatic generation of k-mesh.
Space group operators:
 irot       det(A)        alpha          n_x          n_y          n_z        tau_x        tau_y        tau_z
    1     1.000000     0.000001     1.000000     0.000000     0.000000     0.000000     0.000000     0.000000
 
 Subroutine IBZKPT returns following result:
 ===========================================
 
 Found      1 irreducible k-points:
 
 Following reciprocal coordinates:
            Coordinates               Weight
  0.000000  0.000000  0.000000      1.000000
 
 Following cartesian coordinates:
            Coordinates               Weight
  0.000000  0.000000  0.000000      1.000000
 


--------------------------------------------------------------------------------------------------------




 Dimension of arrays:
   k-points           NKPTS =      1   k-points in BZ     NKDIM =      1   number of bands    NBANDS=    256
   number of dos      NEDOS =    301   number of ions     NIONS =     57
   non local maximal  LDIM  =      6   non local SUM 2l+1 LMDIM =     18
   total plane-waves  NPLWV = 256000
   max r-space proj   IRMAX =   6569   max aug-charges    IRDMAX=  15938
   dimension x,y,z NGX =    40 NGY =   80 NGZ =   80
   dimension x,y,z NGXF=    80 NGYF=  160 NGZF=  160
   support grid    NGXF=    80 NGYF=  160 NGZF=  160
   ions per type =               9  16  32
   NGX,Y,Z   is equivalent  to a cutoff of  12.03, 13.05, 13.37 a.u.
   NGXF,Y,Z  is equivalent  to a cutoff of  24.06, 26.10, 26.75 a.u.

 SYSTEM =  unknown system                          
 POSCAR =  ce6797_1                                

 Startparameter for this run:
   NWRITE =      1    write-flag & timer
   PREC   = accura    normal or accurate (medium, high low for compatibility)
   ISTART =      0    job   : 0-new  1-cont  2-samecut
   ICHARG =      2    charge: 1-file 2-atom 10-const
   ISPIN  =      2    spin polarized calculation?
   LNONCOLLINEAR =      F non collinear calculations
   LSORBIT =      F    spin-orbit coupling
   INIWAV =      1    electr: 0-lowe 1-rand  2-diag
   LASPH  =      F    aspherical Exc in radial PAW
   METAGGA=      F    non-selfconsistent MetaGGA calc.

 Electronic Relaxation 1
   ENCUT  =  500.0 eV  36.75 Ry    6.06 a.u.  10.08 18.58 18.13*2*pi/ulx,y,z
   ENINI  =  500.0     initial cutoff
   ENAUG  =  628.9 eV  augmentation charge cutoff
   NELM   =     80;   NELMIN=  2; NELMDL= -5     # of ELM steps 
   EDIFF  = 0.1E-04   stopping-criterion for ELM
   LREAL  =      T    real-space projection
   NLSPLINE    = F    spline interpolate recip. space projectors
   LCOMPAT=      F    compatible to vasp.4.4
   GGA_COMPAT  = T    GGA compatible to vasp.4.4-vasp.4.6
   LMAXPAW     = -100 max onsite density
   LMAXMIX     =    2 max onsite mixed and CHGCAR
   VOSKOWN=      1    Vosko Wilk Nusair interpolation
   ROPT   =   -0.00025  -0.00025  -0.00025
 Ionic relaxation
   EDIFFG = -.2E-01   stopping-criterion for IOM
   NSW    =     20    number of steps for IOM
   NBLOCK =      1;   KBLOCK =     20    inner block; outer block 
   IBRION =      1    ionic relax: 0-MD 1-quasi-New 2-CG
   NFREE  =      0    steps in history (QN), initial steepest desc. (CG)
   ISIF   =      3    stress and relaxation
   IWAVPR =     11    prediction:  0-non 1-charg 2-wave 3-comb
   ISYM   =      2    0-nonsym 1-usesym 2-fastsym
   LCORR  =      T    Harris-Foulkes like correction to forces

   POTIM  = 0.5000    time-step for ionic-motion
   TEIN   =    0.0    initial temperature
   TEBEG  =    0.0;   TEEND  =   0.0 temperature during run
   SMASS  =  -3.00    Nose mass-parameter (am)
   estimated Nose-frequenzy (Omega)   =  0.10E-29 period in steps =****** mass=  -0.698E-27a.u.
   SCALEE = 1.0000    scale energy and forces
   NPACO  =    256;   APACO  = 16.0  distance and # of slots for P.C.
   PSTRESS=    0.0 pullay stress

  Mass of Ions in am
   POMASS =   7.01 58.69 16.00
  Ionic Valenz
   ZVAL   =   3.00 10.00  6.00
  Atomic Wigner-Seitz radii
   RWIGS  =   1.23  1.15  0.73
  virtual crystal weights 
   VCA    =   1.00  1.00  1.00
   NELECT =     379.0000    total number of electrons
   NUPDOWN=      -1.0000    fix difference up-down

 DOS related values:
   EMIN   =  10.00;   EMAX   =-10.00  energy-range for DOS
   EFERMI =   0.00
   ISMEAR =     0;   SIGMA  =   0.05  broadening in eV -4-tet -1-fermi 0-gaus

 Electronic relaxation 2 (details)
   IALGO  =     38    algorithm
   LDIAG  =      T    sub-space diagonalisation (order eigenvalues)
   LSUBROT=      F    optimize rotation matrix (better conditioning)
   TURBO    =      0    0=normal 1=particle mesh
   IRESTART =      0    0=no restart 2=restart with 2 vectors
   NREBOOT  =      0    no. of reboots
   NMIN     =      0    reboot dimension
   EREF     =   0.00    reference energy to select bands
   IMIX   =      4    mixing-type and parameters
     AMIX     =   0.40;   BMIX     =  1.00
     AMIX_MAG =   1.60;   BMIX_MAG =  1.00
     AMIN     =   0.10
     WC   =   100.;   INIMIX=   1;  MIXPRE=   1;  MAXMIX= -45

 Intra band minimization:
   WEIMIN = 0.0010     energy-eigenvalue tresh-hold
   EBREAK =  0.98E-08  absolut break condition
   DEPER  =   0.30     relativ break condition  

   TIME   =   0.40     timestep for ELM

  volume/ion in A,a.u.               =       9.25        62.41
  Fermi-wavevector in a.u.,A,eV,Ry     =   1.466557  2.771390 29.263254  2.150789
  Thomas-Fermi vector in A             =   2.582280
 
 Write flags
   LWAVE        =      F    write WAVECAR
   LDOWNSAMPLE  =      F    k-point downsampling of WAVECAR
   LCHARG       =      T    write CHGCAR
   LVTOT        =      F    write LOCPOT, total local potential
   LVHAR        =      F    write LOCPOT, Hartree potential only
   LELF         =      F    write electronic localiz. function (ELF)
   LORBIT       =      0    0 simple, 1 ext, 2 COOP (PROOUT), +10 PAW based schemes


 Dipole corrections
   LMONO  =      F    monopole corrections only (constant potential shift)
   LDIPOL =      F    correct potential (dipole corrections)
   IDIPOL =      0    1-x, 2-y, 3-z, 4-all directions 
   EPSILON=  1.0000000 bulk dielectric constant

 Exchange correlation treatment:
   GGA     =    PS    GGA type
   LEXCH   =    14    internal setting for exchange type
   VOSKOWN=      1    Vosko Wilk Nusair interpolation
   LHFCALC =     F    Hartree Fock is set to
   LHFONE  =     F    Hartree Fock one center treatment
   AEXX    =    0.0000 exact exchange contribution

 Linear response parameters
   LEPSILON=     F    determine dielectric tensor
   LRPA    =     F    only Hartree local field effects (RPA)
   LNABLA  =     F    use nabla operator in PAW spheres
   LVEL    =     F    velocity operator in full k-point grid
   LINTERFAST=   F  fast interpolation
   KINTER  =     0    interpolate to denser k-point grid
   CSHIFT  =0.1000    complex shift for real part using Kramers Kronig
   OMEGAMAX=  -1.0    maximum frequency
   DEG_THRESHOLD= 0.2000000E-02 threshold for treating states as degnerate
   RTIME   =   -0.100 relaxation time in fs
  (WPLASMAI=    0.000 imaginary part of plasma frequency in eV, 0.658/RTIME)
   DFIELD  = 0.0000000 0.0000000 0.0000000 field for delta impulse in time
 
 Orbital magnetization related:
   ORBITALMAG=     F  switch on orbital magnetization
   LCHIMAG   =     F  perturbation theory with respect to B field
   DQ        =  0.001000  dq finite difference perturbation B field
   LLRAUG    =     F  two centre corrections for induced B field



--------------------------------------------------------------------------------------------------------


 quasi-Newton-method for relaxation of ions
 charge density and potential will be updated during run
 spin polarized calculation
 Variant of blocked Davidson
 Davidson routine will perform the subspace rotation
 perform sub-space diagonalisation
    after iterative eigenvector-optimisation
 modified Broyden-mixing scheme, WC =      100.0
 initial mixing is a Kerker type mixing with AMIX =  0.4000 and BMIX =      1.0000
 Hartree-type preconditioning will be used
 using additional bands           66
 real space projection scheme for non local part
 use partial core corrections
 calculate Harris-corrections to forces 
   (improved forces if not selfconsistent)
 use gradient corrections 
 use of overlap-Matrix (Vanderbilt PP)
 Gauss-broadening in eV      SIGMA  =   0.05


--------------------------------------------------------------------------------------------------------


  energy-cutoff  :      500.00
  volume of cell :      527.19
      direct lattice vectors                 reciprocal lattice vectors
    -0.006610749  5.528323981  0.010330076     0.000220805  0.180887538 -0.000334519
    -3.564398793  0.022008828  9.548293544    -0.001243734 -0.000196318  0.104266920
     9.943077356 -0.011917999  0.118582235     0.100126778  0.000049889  0.037377429

  length of vectors
     5.528337585 10.191924879  9.943791585     0.180887982  0.104274522  0.106875845


 
 k-points in units of 2pi/SCALE and weight: Automatic mesh                          
   0.00000000  0.00000000  0.00000000       1.000
 
 k-points in reciprocal lattice and weights: Automatic mesh                          
   0.00000000  0.00000000  0.00000000       1.000
 
 position of ions in fractional coordinates (direct lattice) 
   0.97434861  0.25106914  0.23327196
   0.25057831  0.25001824  0.50050071
   0.20025009  0.75065648  0.50034250
   0.75165172  0.24929426  0.50150691
   0.54243726  0.74993590  0.74989069
   0.25214138  0.24982703  0.99939445
   0.20324349  0.74993936  0.99978062
   0.52806755  0.24985299  0.76562733
   0.54578236  0.75038455  0.25124848
   0.99776850  0.99929965  0.99892138
   0.25049792  0.00512154  0.25321823
   0.24815920  0.00120887  0.75152219
   0.75034813  0.00273206  0.75207566
   0.75022815  0.00229993  0.25111556
   0.49961038  0.00451030  0.00336656
   0.00063716  0.00157886  0.50073636
   0.50130362  0.99924690  0.49999548
   0.99971731  0.50172792  0.50185416
   0.24981252  0.49405749  0.74605647
   0.25100938  0.50009565  0.24939423
   0.75047013  0.49845254  0.24874840
   0.75139709  0.49694799  0.74873779
   0.50006449  0.49750648  0.49651947
   0.00085598  0.49714342  0.99835261
   0.50244592  0.50017666  0.00079544
   0.99975245  0.39456234  0.63315405
   0.00082597  0.59776957  0.36181851
   0.99906227  0.11041239  0.36306757
   0.00141552  0.90282684  0.63898075
   0.25733518  0.39293971  0.89253005
   0.25066570  0.60294014  0.10612979
   0.75152721  0.59779927  0.11350941
   0.74936240  0.40008486  0.88684182
   0.24112617  0.10685107  0.10889598
   0.25714623  0.89783460  0.89360146
   0.74352329  0.90273635  0.88865481
   0.75273243  0.10062174  0.11367465
   0.50327367  0.38783676  0.63846409
   0.49897175  0.60374384  0.35629825
   0.50244067  0.10429719  0.36620234
   0.49903532  0.90012126  0.64263302
   0.00483694  0.39566344  0.13930498
   0.00439877  0.59551181  0.85912931
   0.00179817  0.09962589  0.86476230
   0.00405406  0.90470080  0.13920904
   0.24419235  0.39546276  0.39185269
   0.25696007  0.60317315  0.60701701
   0.74386275  0.59638431  0.61348618
   0.75497945  0.39658493  0.38760146
   0.25338687  0.10458742  0.60796726
   0.25198357  0.89690140  0.39235272
   0.75212046  0.90231842  0.38703640
   0.74665987  0.10465650  0.61057638
   0.49848809  0.39945273  0.13825625
   0.49553039  0.59938704  0.85552180
   0.49571000  0.10709399  0.86045140
   0.49593029  0.89915108  0.14531597
 
 position of ions in cartesian coordinates  (Angst):
   1.41808943  5.38926039  2.43500885
   4.08369605  1.38481572  2.44918653
   2.29798133  1.11760536  7.22888875
   4.09296886  4.15488394  2.44756920
   4.77956461  3.00633693  7.25513524
   9.04490632  1.38750686  2.50653689
   7.26646950  1.12818576  7.28129689
   6.71862515  2.91570273  2.48191447
  -0.18009474  3.03078241  7.20032353
   6.36385409  5.52607580  9.67036775
   2.49785726  1.38192852  0.08151681
   7.46649386  1.36297442  0.10322333
   7.46324795  4.13926445  0.12302048
   2.48370400  4.14456210  0.05948817
   0.01409466  2.76206719  0.04862590
   4.97322846 -0.00241060  0.07446044
   1.40646530  2.78740213  9.60557181
   3.19500746  5.53182252  4.86048360
   5.65542782  1.38302667  4.80845557
   0.69554643  1.39569541  4.80722674
   0.69167978  4.15684779  4.79662072
   5.66846965  4.15598034  4.84155427
   3.16031420  2.76955053  4.81438200
   8.15467416  0.00377531  4.86526703
  -1.77824151  2.78868265  4.78111820
   4.88251306  5.52809337  3.85280538
   1.46689484  0.01341028  5.75059311
   3.20985059  5.52124291  1.10762366
   3.13539077  0.02008024  8.69624208
   7.47220032  1.42064322  3.86040020
  -1.09551948  1.39776635  5.77222395
  -1.00713031  4.16648995  5.72918644
   7.38692098  4.14095415  3.93303234
   0.70030730  1.33407743  1.03564936
   5.68320795  1.43069802  8.68140991
   5.61333592  4.11971482  8.73265099
   0.76664370  4.16220854  0.98202149
   4.96256594  2.78318652  3.78408859
   1.38741867  2.76751882  5.81212847
   3.26609991  2.77558586  1.04447553
   3.17805970  2.77098064  8.67598195
  -0.02521407  0.03378802  3.79447973
   6.41971853  0.02718524  5.78804448
   8.24328015  0.00182728  1.05382126
  -1.84057499  0.04066447  8.65489841
   2.48502033  1.35400800  3.82498381
   3.88396874  1.42659922  5.83391014
   3.96927154  4.11812847  5.77488518
   2.43537347  4.17787993  3.84047097
   5.67059915  1.39586080  1.07334301
   0.70261338  1.40811050  8.61300692
   0.62713810  4.17321185  8.66926625
   5.69303469  4.12280418  1.07940755
  -0.05241162  2.76294741  3.83563608
   6.36678917  2.74244824  5.82969196
   8.17053213  2.73254763  1.12971983
  -1.76332356  2.75972070  8.60771334
 


--------------------------------------------------------------------------------------------------------


 use serial FFT for orbitals x direction half grid
 k-point  1 :   0.0000 0.0000 0.0000  plane waves:    6681

 maximum and minimum number of plane-waves per node :      6681     6681

 maximum number of plane-waves:      6681
 maximum index in each direction: 
   IXMAX=   10   IYMAX=   18   IZMAX=   18
   IXMIN=    0   IYMIN=  -18   IZMIN=  -18

 The following grids will avoid any aliasing or wrap around errors in the Hartre
 e energy
  - symmetry arguments have not been applied
  - exchange correlation energies might require even more grid points
  - we recommend to set PREC=Normal or Accurate and rely on VASP defaults
 WARNING: aliasing errors must be expected set NGX to    42 to avoid them
 NGY is ok and might be reduce to    80
 NGZ is ok and might be reduce to    80

 serial   3D FFT for wavefunctions
 parallel 3D FFT for charge:
    minimum data exchange during FFTs selected (reduces bandwidth)


 total amount of memory used by VASP MPI-rank0    94794. kBytes
=======================================================================

   base      :      30000. kBytes
   nonlr-proj:      22954. kBytes
   fftplans  :       5418. kBytes
   grid      :      31961. kBytes
   one-center:        886. kBytes
   wavefun   :       3575. kBytes
 
     INWAV:  cpu time    0.0000: real time    0.0000
 Broyden mixing: mesh for mixing (old mesh)
   NGX = 21   NGY = 37   NGZ = 37
  (NGX  = 80   NGY  =160   NGZ  =160)
  gives a total of  28749 points

 initial charge density was supplied:
 charge density of overlapping atoms calculated
 number of electron     379.0000000 magnetization      40.0000000
 keeping initial charge density in first step


--------------------------------------------------------------------------------------------------------


 Maximum index for non-local projection operator         6350
 Maximum index for augmentation-charges         1103 (set IRDMAX)


--------------------------------------------------------------------------------------------------------


 First call to EWALD:  gamma=   0.219
 Maximum number of real-space cells 4x 2x 2
 Maximum number of reciprocal cells 2x 3x 3

    FEWALD:  cpu time    0.0027: real time    0.0027


--------------------------------------- Iteration      1(   1)  ---------------------------------------


    POTLOK:  cpu time    0.1719: real time    0.1778
    SETDIJ:  cpu time    0.0206: real time    0.0206
     EDDAV:  cpu time    1.7788: real time    1.8000
    --------------------------------------------
      LOOP:  cpu time    1.9718: real time    1.9988

 eigenvalue-minimisations  :  1024
 total energy-change (2. order) : 0.6621772E+04  (-0.1666107E+05)
 number of electron     379.0000000 magnetization      40.0000000
 augmentation part      379.0000000 magnetization      40.0000000

 Free energy of the ion-electron system (eV)
  ---------------------------------------------------
  alpha Z        PSCENC =      1169.04204113
  Ewald energy   TEWEN  =    -22148.67069068
  -Hartree energ DENC   =    -11373.01239168
  -exchange      EXHF   =         0.00000000
  -V(xc)+E(xc)   XCENC  =      1542.96195772
  PAW double counting   =     27181.59578623   -28434.31066105
  entropy T*S    EENTRO =        -0.00000003
  eigenvalues    EBANDS =      5861.33764652
  atomic energy  EATOM  =     32822.82841862
  Solvation  Ediel_sol  =         0.00000000
  ---------------------------------------------------
  free energy    TOTEN  =      6621.77210677 eV

  energy without entropy =     6621.77210680  energy(sigma->0) =     6621.77210679


--------------------------------------------------------------------------------------------------------




--------------------------------------- Iteration      1(   2)  ---------------------------------------


     EDDAV:  cpu time    1.8257: real time    1.8301
    --------------------------------------------
      LOOP:  cpu time    1.8256: real time    1.8300

 eigenvalue-minimisations  :  1072
 total energy-change (2. order) :-0.5358393E+04  (-0.4775318E+04)
 number of electron     379.0000000 magnetization      40.0000000
 augmentation part      379.0000000 magnetization      40.0000000

 Free energy of the ion-electron system (eV)
  ---------------------------------------------------
  alpha Z        PSCENC =      1169.04204113
  Ewald energy   TEWEN  =    -22148.67069068
  -Hartree energ DENC   =    -11373.01239168
  -exchange      EXHF   =         0.00000000
  -V(xc)+E(xc)   XCENC  =      1542.96195772
  PAW double counting   =     27181.59578623   -28434.31066105
  entropy T*S    EENTRO =        -0.01990770
  eigenvalues    EBANDS =       502.96427518
  atomic energy  EATOM  =     32822.82841862
  Solvation  Ediel_sol  =         0.00000000
  ---------------------------------------------------
  free energy    TOTEN  =      1263.37882776 eV

  energy without entropy =     1263.39873547  energy(sigma->0) =     1263.38878161


--------------------------------------------------------------------------------------------------------




--------------------------------------- Iteration      1(   3)  ---------------------------------------


     EDDAV:  cpu time    1.9256: real time    1.9301
    --------------------------------------------
      LOOP:  cpu time    1.9256: real time    1.9301

 eigenvalue-minimisations  :  1152
 total energy-change (2. order) :-0.1477132E+04  (-0.1229794E+04)
 number of electron     379.0000000 magnetization      40.0000000
 augmentation part      379.0000000 magnetization      40.0000000

 Free energy of the ion-electron system (eV)
  ---------------------------------------------------
  alpha Z        PSCENC =      1169.04204113
  Ewald energy   TEWEN  =    -22148.67069068
  -Hartree energ DENC   =    -11373.01239168
  -exchange      EXHF   =         0.00000000
  -V(xc)+E(xc)   XCENC  =      1542.96195772
  PAW double counting   =     27181.59578623   -28434.31066105
  entropy T*S    EENTRO =        -0.06388905
  eigenvalues    EBANDS =      -974.12413427
  atomic energy  EATOM  =     32822.82841862
  Solvation  Ediel_sol  =         0.00000000
  ---------------------------------------------------
  free energy    TOTEN  =      -213.75356304 eV

  energy without entropy =     -213.68967398  energy(sigma->0) =     -213.72161851


--------------------------------------------------------------------------------------------------------




--------------------------------------- Iteration      1(   4)  ---------------------------------------


     EDDAV:  cpu time    2.0092: real time    2.0140
    --------------------------------------------
      LOOP:  cpu time    2.0092: real time    2.0140

 eigenvalue-minimisations  :  1216
 total energy-change (2. order) :-0.2327233E+03  (-0.2250979E+03)
 number of electron     379.0000000 magnetization      40.0000000
 augmentation part      379.0000000 magnetization      40.0000000

 Free energy of the ion-electron system (eV)
  ---------------------------------------------------
  alpha Z        PSCENC =      1169.04204113
  Ewald energy   TEWEN  =    -22148.67069068
  -Hartree energ DENC   =    -11373.01239168
  -exchange      EXHF   =         0.00000000
  -V(xc)+E(xc)   XCENC  =      1542.96195772
  PAW double counting   =     27181.59578623   -28434.31066105
  entropy T*S    EENTRO =        -0.17515377
  eigenvalues    EBANDS =     -1206.73619793
  atomic energy  EATOM  =     32822.82841862
  Solvation  Ediel_sol  =         0.00000000
  ---------------------------------------------------
  free energy    TOTEN  =      -446.47689141 eV

  energy without entropy =     -446.30173765  energy(sigma->0) =     -446.38931453


--------------------------------------------------------------------------------------------------------




--------------------------------------- Iteration      1(   5)  ---------------------------------------


     EDDAV:  cpu time    2.5346: real time    2.5406
    CHARGE:  cpu time    0.1154: real time    0.1156
    MIXING:  cpu time    0.0037: real time    0.0077
    --------------------------------------------
      LOOP:  cpu time    2.6534: real time    2.6636

 eigenvalue-minimisations  :  1616
 total energy-change (2. order) :-0.1126768E+02  (-0.1116418E+02)
 number of electron     379.0000093 magnetization      39.1514990
 augmentation part      113.4446596 magnetization      30.1242861

 Broyden mixing:
  rms(total) = 0.11387E+02    rms(broyden)= 0.11386E+02
  rms(prec ) = 0.13908E+02
  weight for this iteration     100.00

 Free energy of the ion-electron system (eV)
  ---------------------------------------------------
  alpha Z        PSCENC =      1169.04204113
  Ewald energy   TEWEN  =    -22148.67069068
  -Hartree energ DENC   =    -11373.01239168
  -exchange      EXHF   =         0.00000000
  -V(xc)+E(xc)   XCENC  =      1542.96195772
  PAW double counting   =     27181.59578623   -28434.31066105
  entropy T*S    EENTRO =        -0.17723244
  eigenvalues    EBANDS =     -1218.00179540
  atomic energy  EATOM  =     32822.82841862
  Solvation  Ediel_sol  =         0.00000000
  ---------------------------------------------------
  free energy    TOTEN  =      -457.74456756 eV

  energy without entropy =     -457.56733511  energy(sigma->0) =     -457.65595133


--------------------------------------------------------------------------------------------------------




--------------------------------------- Iteration      1(   6)  ---------------------------------------


    POTLOK:  cpu time    0.1403: real time    0.1406
    SETDIJ:  cpu time    0.0205: real time    0.0206
     EDDAV:  cpu time    2.1326: real time    2.1376
    CHARGE:  cpu time    0.0962: real time    0.0964
    MIXING:  cpu time    0.0030: real time    0.0031
    --------------------------------------------
      LOOP:  cpu time    2.3926: real time    2.3984

 eigenvalue-minimisations  :  1520
 total energy-change (2. order) :-0.4441690E+02  (-0.1032811E+03)
 number of electron     379.0000131 magnetization      34.4714105
 augmentation part      142.0774631 magnetization      31.7731790

 Broyden mixing:
  rms(total) = 0.20116E+02    rms(broyden)= 0.20116E+02
  rms(prec ) = 0.22266E+02
  weight for this iteration     100.00

 eigenvalues of (default mixing * dielectric matrix)
  average eigenvalue GAMMA=   0.2105
  0.2105

 Free energy of the ion-electron system (eV)
  ---------------------------------------------------
  alpha Z        PSCENC =      1169.04204113
  Ewald energy   TEWEN  =    -22148.67069068
  -Hartree energ DENC   =    -10871.39678568
  -exchange      EXHF   =         0.00000000
  -V(xc)+E(xc)   XCENC  =      1549.25861484
  PAW double counting   =     30037.45135595   -31121.67114568
  entropy T*S    EENTRO =        -0.03839161
  eigenvalues    EBANDS =     -1938.96488401
  atomic energy  EATOM  =     32822.82841862
  Solvation  Ediel_sol  =         0.00000000
  ---------------------------------------------------
  free energy    TOTEN  =      -502.16146713 eV

  energy without entropy =     -502.12307552  energy(sigma->0) =     -502.14227133


--------------------------------------------------------------------------------------------------------




--------------------------------------- Iteration      1(   7)  ---------------------------------------


    POTLOK:  cpu time    0.1260: real time    0.1263
    SETDIJ:  cpu time    0.0198: real time    0.0198
     EDDAV:  cpu time    1.8639: real time    1.8683
    CHARGE:  cpu time    0.0992: real time    0.0994
    MIXING:  cpu time    0.0033: real time    0.0033
    --------------------------------------------
      LOOP:  cpu time    2.1121: real time    2.1172

 eigenvalue-minimisations  :  1392
 total energy-change (2. order) : 0.1246719E+03  (-0.3154651E+02)
 number of electron     379.0000122 magnetization      27.0430660
 augmentation part      133.9416430 magnetization      24.7731050

 Broyden mixing:
  rms(total) = 0.73320E+01    rms(broyden)= 0.73311E+01
  rms(prec ) = 0.87223E+01
  weight for this iteration     100.00

 eigenvalues of (default mixing * dielectric matrix)
  average eigenvalue GAMMA=   0.5142
  0.5142  0.5142

 Free energy of the ion-electron system (eV)
  ---------------------------------------------------
  alpha Z        PSCENC =      1169.04204113
  Ewald energy   TEWEN  =    -22148.67069068
  -Hartree energ DENC   =    -11039.88855473
  -exchange      EXHF   =         0.00000000
  -V(xc)+E(xc)   XCENC  =      1541.67356343
  PAW double counting   =     31197.72060306   -32387.18681833
  entropy T*S    EENTRO =        -0.03087917
  eigenvalues    EBANDS =     -1532.97725754
  atomic energy  EATOM  =     32822.82841862
  Solvation  Ediel_sol  =         0.00000000
  ---------------------------------------------------
  free energy    TOTEN  =      -377.48957423 eV

  energy without entropy =     -377.45869506  energy(sigma->0) =     -377.47413465


--------------------------------------------------------------------------------------------------------




--------------------------------------- Iteration      1(   8)  ---------------------------------------


    POTLOK:  cpu time    0.1307: real time    0.1310
    SETDIJ:  cpu time    0.0209: real time    0.0209
     EDDAV:  cpu time    2.3800: real time    2.3857
    CHARGE:  cpu time    0.1139: real time    0.1142
    MIXING:  cpu time    0.0039: real time    0.0039
    --------------------------------------------
      LOOP:  cpu time    2.6493: real time    2.6556

 eigenvalue-minimisations  :  1488
 total energy-change (2. order) : 0.1714991E+01  (-0.1398414E+02)
 number of electron     379.0000116 magnetization      24.2638602
 augmentation part      122.3235834 magnetization      21.4569745

 Broyden mixing:
  rms(total) = 0.91342E+01    rms(broyden)= 0.91334E+01
  rms(prec ) = 0.13560E+02
  weight for this iteration     100.00

 eigenvalues of (default mixing * dielectric matrix)
  average eigenvalue GAMMA=   0.4642
  0.5873  0.5873  0.2179

 Free energy of the ion-electron system (eV)
  ---------------------------------------------------
  alpha Z        PSCENC =      1169.04204113
  Ewald energy   TEWEN  =    -22148.67069068
  -Hartree energ DENC   =    -11142.42945959
  -exchange      EXHF   =         0.00000000
  -V(xc)+E(xc)   XCENC  =      1535.34307124
  PAW double counting   =     32415.11920694   -33690.88821269
  entropy T*S    EENTRO =        -0.03517870
  eigenvalues    EBANDS =     -1336.08377946
  atomic energy  EATOM  =     32822.82841862
  Solvation  Ediel_sol  =         0.00000000
  ---------------------------------------------------
  free energy    TOTEN  =      -375.77458321 eV

  energy without entropy =     -375.73940451  energy(sigma->0) =     -375.75699386


--------------------------------------------------------------------------------------------------------




--------------------------------------- Iteration      1(   9)  ---------------------------------------


    POTLOK:  cpu time    0.1437: real time    0.1440
    SETDIJ:  cpu time    0.0211: real time    0.0211
     EDDAV:  cpu time    2.2511: real time    2.2564
    CHARGE:  cpu time    0.1148: real time    0.1151
    MIXING:  cpu time    0.0042: real time    0.0042
    --------------------------------------------
      LOOP:  cpu time    2.5348: real time    2.5408

 eigenvalue-minimisations  :  1392
 total energy-change (2. order) : 0.3958477E+01  (-0.2615715E+02)
 number of electron     379.0000116 magnetization      19.0096624
 augmentation part      123.7357412 magnetization      16.8536961

 Broyden mixing:
  rms(total) = 0.61231E+01    rms(broyden)= 0.61224E+01
  rms(prec ) = 0.77676E+01
  weight for this iteration     100.00

 eigenvalues of (default mixing * dielectric matrix)
  average eigenvalue GAMMA=   0.4432
  0.6371  0.6371  0.3718  0.1269

 Free energy of the ion-electron system (eV)
  ---------------------------------------------------
  alpha Z        PSCENC =      1169.04204113
  Ewald energy   TEWEN  =    -22148.67069068
  -Hartree energ DENC   =    -11108.01550642
  -exchange      EXHF   =         0.00000000
  -V(xc)+E(xc)   XCENC  =      1533.40108615
  PAW double counting   =     32867.75099744   -34146.48470967
  entropy T*S    EENTRO =        -0.03760372
  eigenvalues    EBANDS =     -1361.63013865
  atomic energy  EATOM  =     32822.82841862
  Solvation  Ediel_sol  =         0.00000000
  ---------------------------------------------------
  free energy    TOTEN  =      -371.81610582 eV

  energy without entropy =     -371.77850210  energy(sigma->0) =     -371.79730396


--------------------------------------------------------------------------------------------------------




--------------------------------------- Iteration      1(  10)  ---------------------------------------


    POTLOK:  cpu time    0.1432: real time    0.1436
    SETDIJ:  cpu time    0.0216: real time    0.0216
     EDDAV:  cpu time    2.3099: real time    2.3155
    CHARGE:  cpu time    0.1098: real time    0.1101
    MIXING:  cpu time    0.0038: real time    0.0038
    --------------------------------------------
      LOOP:  cpu time    2.5884: real time    2.5946

 eigenvalue-minimisations  :  1440
 total energy-change (2. order) : 0.1237858E+02  (-0.5555963E+01)
 number of electron     379.0000113 magnetization      16.6853482
 augmentation part      124.6706640 magnetization      14.8367591

 Broyden mixing:
  rms(total) = 0.45928E+01    rms(broyden)= 0.45923E+01
  rms(prec ) = 0.58486E+01
  weight for this iteration     100.00

 eigenvalues of (default mixing * dielectric matrix)
  average eigenvalue GAMMA=   0.4454
  0.7126  0.7126  0.3214  0.3214  0.1589

 Free energy of the ion-electron system (eV)
  ---------------------------------------------------
  alpha Z        PSCENC =      1169.04204113
  Ewald energy   TEWEN  =    -22148.67069068
  -Hartree energ DENC   =    -11077.98042934
  -exchange      EXHF   =         0.00000000
  -V(xc)+E(xc)   XCENC  =      1531.54036310
  PAW double counting   =     33762.43703551   -35052.53999287
  entropy T*S    EENTRO =        -0.03596003
  eigenvalues    EBANDS =     -1366.05831303
  atomic energy  EATOM  =     32822.82841862
  Solvation  Ediel_sol  =         0.00000000
  ---------------------------------------------------
  free energy    TOTEN  =      -359.43752759 eV

  energy without entropy =     -359.40156756  energy(sigma->0) =     -359.41954758


--------------------------------------------------------------------------------------------------------




--------------------------------------- Iteration      1(  11)  ---------------------------------------


    POTLOK:  cpu time    0.1402: real time    0.1406
    SETDIJ:  cpu time    0.0206: real time    0.0207
     EDDAV:  cpu time    2.2153: real time    2.2206
    CHARGE:  cpu time    0.1116: real time    0.1119
    MIXING:  cpu time    0.0045: real time    0.0045
    --------------------------------------------
      LOOP:  cpu time    2.4923: real time    2.4983

 eigenvalue-minimisations  :  1360
 total energy-change (2. order) : 0.5240600E+01  (-0.3102339E+01)
 number of electron     379.0000120 magnetization      11.5669179
 augmentation part      125.0639910 magnetization       9.3592381

 Broyden mixing:
  rms(total) = 0.41118E+01    rms(broyden)= 0.41113E+01
  rms(prec ) = 0.58804E+01
  weight for this iteration     100.00

 eigenvalues of (default mixing * dielectric matrix)
  average eigenvalue GAMMA=   0.5108
  1.1685  0.7057  0.4393  0.4393  0.1801  0.1319

 Free energy of the ion-electron system (eV)
  ---------------------------------------------------
  alpha Z        PSCENC =      1169.04204113
  Ewald energy   TEWEN  =    -22148.67069068
  -Hartree energ DENC   =    -11074.57378800
  -exchange      EXHF   =         0.00000000
  -V(xc)+E(xc)   XCENC  =      1531.16675383
  PAW double counting   =     34116.77090437   -35411.37657751
  entropy T*S    EENTRO =        -0.05640644
  eigenvalues    EBANDS =     -1359.32758329
  atomic energy  EATOM  =     32822.82841862
  Solvation  Ediel_sol  =         0.00000000
  ---------------------------------------------------
  free energy    TOTEN  =      -354.19692798 eV

  energy without entropy =     -354.14052154  energy(sigma->0) =     -354.16872476


--------------------------------------------------------------------------------------------------------




--------------------------------------- Iteration      1(  12)  ---------------------------------------


    POTLOK:  cpu time    0.1426: real time    0.1430
    SETDIJ:  cpu time    0.0213: real time    0.0213
     EDDAV:  cpu time    2.2296: real time    2.2349
    CHARGE:  cpu time    0.1121: real time    0.1124
    MIXING:  cpu time    0.0046: real time    0.0046
    --------------------------------------------
      LOOP:  cpu time    2.5102: real time    2.5162

 eigenvalue-minimisations  :  1360
 total energy-change (2. order) : 0.5255610E+00  (-0.5561274E+01)
 number of electron     379.0000117 magnetization       9.5190408
 augmentation part      125.4489469 magnetization       7.9967782

 Broyden mixing:
  rms(total) = 0.33079E+01    rms(broyden)= 0.33074E+01
  rms(prec ) = 0.41515E+01
  weight for this iteration     100.00

 eigenvalues of (default mixing * dielectric matrix)
  average eigenvalue GAMMA=   0.5133
  1.4300  0.6331  0.4604  0.4604  0.3262  0.1598  0.1235

 Free energy of the ion-electron system (eV)
  ---------------------------------------------------
  alpha Z        PSCENC =      1169.04204113
  Ewald energy   TEWEN  =    -22148.67069068
  -Hartree energ DENC   =    -11071.78749563
  -exchange      EXHF   =         0.00000000
  -V(xc)+E(xc)   XCENC  =      1530.88391888
  PAW double counting   =     34896.54124230   -36200.32481248
  entropy T*S    EENTRO =        -0.03505925
  eigenvalues    EBANDS =     -1352.14892989
  atomic energy  EATOM  =     32822.82841862
  Solvation  Ediel_sol  =         0.00000000
  ---------------------------------------------------
  free energy    TOTEN  =      -353.67136701 eV

  energy without entropy =     -353.63630776  energy(sigma->0) =     -353.65383738


--------------------------------------------------------------------------------------------------------




--------------------------------------- Iteration      1(  13)  ---------------------------------------


    POTLOK:  cpu time    0.1418: real time    0.1422
    SETDIJ:  cpu time    0.0207: real time    0.0208
     EDDAV:  cpu time    2.1551: real time    2.1602
    CHARGE:  cpu time    0.1111: real time    0.1114
    MIXING:  cpu time    0.0049: real time    0.0049
    --------------------------------------------
      LOOP:  cpu time    2.4337: real time    2.4395

 eigenvalue-minimisations  :  1328
 total energy-change (2. order) : 0.3237740E+01  (-0.1295975E+01)
 number of electron     379.0000118 magnetization       8.2343520
 augmentation part      125.7286662 magnetization       6.6845691

 Broyden mixing:
  rms(total) = 0.17772E+01    rms(broyden)= 0.17763E+01
  rms(prec ) = 0.23062E+01
  weight for this iteration     100.00

 eigenvalues of (default mixing * dielectric matrix)
  average eigenvalue GAMMA=   0.4990
  1.4817  0.4766  0.4766  0.5370  0.5370  0.1979  0.1595  0.1257

 Free energy of the ion-electron system (eV)
  ---------------------------------------------------
  alpha Z        PSCENC =      1169.04204113
  Ewald energy   TEWEN  =    -22148.67069068
  -Hartree energ DENC   =    -11072.30107460
  -exchange      EXHF   =         0.00000000
  -V(xc)+E(xc)   XCENC  =      1530.79038913
  PAW double counting   =     35195.44408132   -36503.65508778
  entropy T*S    EENTRO =        -0.03403361
  eigenvalues    EBANDS =     -1343.87767048
  atomic energy  EATOM  =     32822.82841862
  Solvation  Ediel_sol  =         0.00000000
  ---------------------------------------------------
  free energy    TOTEN  =      -350.43362695 eV

  energy without entropy =     -350.39959334  energy(sigma->0) =     -350.41661015


--------------------------------------------------------------------------------------------------------




--------------------------------------- Iteration      1(  14)  ---------------------------------------


    POTLOK:  cpu time    0.1413: real time    0.1416
    SETDIJ:  cpu time    0.0213: real time    0.0213
     EDDAV:  cpu time    2.2157: real time    2.2210
    CHARGE:  cpu time    0.0979: real time    0.0981
    MIXING:  cpu time    0.0045: real time    0.0045
    --------------------------------------------
      LOOP:  cpu time    2.4807: real time    2.4866

 eigenvalue-minimisations  :  1440
 total energy-change (2. order) :-0.3123122E-01  (-0.6765660E+00)
 number of electron     379.0000118 magnetization       7.6226475
 augmentation part      125.6793216 magnetization       6.1631392

 Broyden mixing:
  rms(total) = 0.16258E+01    rms(broyden)= 0.16253E+01
  rms(prec ) = 0.20032E+01
  weight for this iteration     100.00

 eigenvalues of (default mixing * dielectric matrix)
  average eigenvalue GAMMA=   0.4872
  1.4979  0.5579  0.5579  0.4809  0.4809  0.3678  0.1276  0.1571  0.1571

 Free energy of the ion-electron system (eV)
  ---------------------------------------------------
  alpha Z        PSCENC =      1169.04204113
  Ewald energy   TEWEN  =    -22148.67069068
  -Hartree energ DENC   =    -11074.44755749
  -exchange      EXHF   =         0.00000000
  -V(xc)+E(xc)   XCENC  =      1530.72562756
  PAW double counting   =     35368.74332184   -36678.46101782
  entropy T*S    EENTRO =        -0.02915118
  eigenvalues    EBANDS =     -1340.19585014
  atomic energy  EATOM  =     32822.82841862
  Solvation  Ediel_sol  =         0.00000000
  ---------------------------------------------------
  free energy    TOTEN  =      -350.46485817 eV

  energy without entropy =     -350.43570699  energy(sigma->0) =     -350.45028258


--------------------------------------------------------------------------------------------------------




--------------------------------------- Iteration      1(  15)  ---------------------------------------


    POTLOK:  cpu time    0.1262: real time    0.1265
    SETDIJ:  cpu time    0.0199: real time    0.0199
     EDDAV:  cpu time    1.8580: real time    1.8624
    CHARGE:  cpu time    0.1101: real time    0.1103
    MIXING:  cpu time    0.0050: real time    0.0050
    --------------------------------------------
      LOOP:  cpu time    2.1191: real time    2.1241

 eigenvalue-minimisations  :  1344
 total energy-change (2. order) : 0.4702848E+00  (-0.3820858E+00)
 number of electron     379.0000119 magnetization       7.2756547
 augmentation part      125.6228710 magnetization       5.4364796

 Broyden mixing:
  rms(total) = 0.12610E+01    rms(broyden)= 0.12605E+01
  rms(prec ) = 0.15390E+01
  weight for this iteration     100.00

 eigenvalues of (default mixing * dielectric matrix)
  average eigenvalue GAMMA=   0.4887
  1.5140  0.6882  0.6882  0.4468  0.4468  0.4605  0.2077  0.1669  0.1429  0.1247

 Free energy of the ion-electron system (eV)
  ---------------------------------------------------
  alpha Z        PSCENC =      1169.04204113
  Ewald energy   TEWEN  =    -22148.67069068
  -Hartree energ DENC   =    -11076.44094166
  -exchange      EXHF   =         0.00000000
  -V(xc)+E(xc)   XCENC  =      1530.74096552
  PAW double counting   =     35451.05667215   -36761.50234127
  entropy T*S    EENTRO =        -0.03513407
  eigenvalues    EBANDS =     -1337.01356310
  atomic energy  EATOM  =     32822.82841862
  Solvation  Ediel_sol  =         0.00000000
  ---------------------------------------------------
  free energy    TOTEN  =      -349.99457336 eV

  energy without entropy =     -349.95943929  energy(sigma->0) =     -349.97700633


--------------------------------------------------------------------------------------------------------




--------------------------------------- Iteration      1(  16)  ---------------------------------------


    POTLOK:  cpu time    0.1402: real time    0.1405
    SETDIJ:  cpu time    0.0212: real time    0.0212
     EDDAV:  cpu time    2.1469: real time    2.1520
    CHARGE:  cpu time    0.1119: real time    0.1122
    MIXING:  cpu time    0.0052: real time    0.0053
    --------------------------------------------
      LOOP:  cpu time    2.4255: real time    2.4313

 eigenvalue-minimisations  :  1312
 total energy-change (2. order) :-0.1667881E+00  (-0.3115010E+00)
 number of electron     379.0000119 magnetization       6.9227372
 augmentation part      125.5895649 magnetization       5.2111978

 Broyden mixing:
  rms(total) = 0.12193E+01    rms(broyden)= 0.12188E+01
  rms(prec ) = 0.15261E+01
  weight for this iteration     100.00

 eigenvalues of (default mixing * dielectric matrix)
  average eigenvalue GAMMA=   0.4997
  1.6153  0.7905  0.7905  0.4674  0.4674  0.3981  0.3981  0.1630  0.1630  0.1260
  0.1174

 Free energy of the ion-electron system (eV)
  ---------------------------------------------------
  alpha Z        PSCENC =      1169.04204113
  Ewald energy   TEWEN  =    -22148.67069068
  -Hartree energ DENC   =    -11077.96744290
  -exchange      EXHF   =         0.00000000
  -V(xc)+E(xc)   XCENC  =      1530.75864237
  PAW double counting   =     35512.96216339   -36823.42967045
  entropy T*S    EENTRO =        -0.01989022
  eigenvalues    EBANDS =     -1335.66493268
  atomic energy  EATOM  =     32822.82841862
  Solvation  Ediel_sol  =         0.00000000
  ---------------------------------------------------
  free energy    TOTEN  =      -350.16136143 eV

  energy without entropy =     -350.14147121  energy(sigma->0) =     -350.15141632


--------------------------------------------------------------------------------------------------------




--------------------------------------- Iteration      1(  17)  ---------------------------------------


    POTLOK:  cpu time    0.1399: real time    0.1402
    SETDIJ:  cpu time    0.0206: real time    0.0207
     EDDAV:  cpu time    2.1491: real time    2.1542
    CHARGE:  cpu time    0.1091: real time    0.1094
    MIXING:  cpu time    0.0056: real time    0.0056
    --------------------------------------------
      LOOP:  cpu time    2.4243: real time    2.4301

 eigenvalue-minimisations  :  1312
 total energy-change (2. order) :-0.2525162E-01  (-0.2026932E+00)
 number of electron     379.0000118 magnetization       6.4509405
 augmentation part      125.5711572 magnetization       4.6686687

 Broyden mixing:
  rms(total) = 0.10736E+01    rms(broyden)= 0.10732E+01
  rms(prec ) = 0.13204E+01
  weight for this iteration     100.00

 eigenvalues of (default mixing * dielectric matrix)
  average eigenvalue GAMMA=   0.5027
  1.7002  0.8786  0.8786  0.4953  0.4953  0.4184  0.4184  0.2077  0.1598  0.1448
  0.1283  0.1066

 Free energy of the ion-electron system (eV)
  ---------------------------------------------------
  alpha Z        PSCENC =      1169.04204113
  Ewald energy   TEWEN  =    -22148.67069068
  -Hartree energ DENC   =    -11078.87106899
  -exchange      EXHF   =         0.00000000
  -V(xc)+E(xc)   XCENC  =      1530.77646497
  PAW double counting   =     35589.54344645   -36900.46212989
  entropy T*S    EENTRO =        -0.02084950
  eigenvalues    EBANDS =     -1334.35224515
  atomic energy  EATOM  =     32822.82841862
  Solvation  Ediel_sol  =         0.00000000
  ---------------------------------------------------
  free energy    TOTEN  =      -350.18661305 eV

  energy without entropy =     -350.16576355  energy(sigma->0) =     -350.17618830


--------------------------------------------------------------------------------------------------------




--------------------------------------- Iteration      1(  18)  ---------------------------------------


    POTLOK:  cpu time    0.1434: real time    0.1437
    SETDIJ:  cpu time    0.0212: real time    0.0213
     EDDAV:  cpu time    2.1591: real time    2.1643
    CHARGE:  cpu time    0.1095: real time    0.1098
    MIXING:  cpu time    0.0056: real time    0.0056
    --------------------------------------------
      LOOP:  cpu time    2.4388: real time    2.4446

 eigenvalue-minimisations  :  1328
 total energy-change (2. order) : 0.1663941E+00  (-0.1096399E+00)
 number of electron     379.0000119 magnetization       6.1319264
 augmentation part      125.5651433 magnetization       4.3895493

 Broyden mixing:
  rms(total) = 0.72158E+00    rms(broyden)= 0.72129E+00
  rms(prec ) = 0.84879E+00
  weight for this iteration     100.00

 eigenvalues of (default mixing * dielectric matrix)
  average eigenvalue GAMMA=   0.5425
  1.7399  1.1214  1.1214  0.5333  0.5333  0.4469  0.4469  0.3923  0.1709  0.1691
  0.1475  0.1264  0.1031

 Free energy of the ion-electron system (eV)
  ---------------------------------------------------
  alpha Z        PSCENC =      1169.04204113
  Ewald energy   TEWEN  =    -22148.67069068
  -Hartree energ DENC   =    -11080.29863277
  -exchange      EXHF   =         0.00000000
  -V(xc)+E(xc)   XCENC  =      1530.82647577
  PAW double counting   =     35702.62200836   -37014.32699660
  entropy T*S    EENTRO =        -0.01525587
  eigenvalues    EBANDS =     -1332.02758686
  atomic energy  EATOM  =     32822.82841862
  Solvation  Ediel_sol  =         0.00000000
  ---------------------------------------------------
  free energy    TOTEN  =      -350.02021891 eV

  energy without entropy =     -350.00496304  energy(sigma->0) =     -350.01259097


--------------------------------------------------------------------------------------------------------




--------------------------------------- Iteration      1(  19)  ---------------------------------------


    POTLOK:  cpu time    0.1394: real time    0.1397
    SETDIJ:  cpu time    0.0207: real time    0.0207
     EDDAV:  cpu time    2.2148: real time    2.2202
    CHARGE:  cpu time    0.1088: real time    0.1090
    MIXING:  cpu time    0.0057: real time    0.0057
    --------------------------------------------
      LOOP:  cpu time    2.4894: real time    2.4954

 eigenvalue-minimisations  :  1376
 total energy-change (2. order) :-0.3021161E+00  (-0.1875631E+00)
 number of electron     379.0000119 magnetization       5.7293773
 augmentation part      125.5764215 magnetization       4.0519353

 Broyden mixing:
  rms(total) = 0.10066E+01    rms(broyden)= 0.10063E+01
  rms(prec ) = 0.12693E+01
  weight for this iteration     100.00

 eigenvalues of (default mixing * dielectric matrix)
  average eigenvalue GAMMA=   0.5324
  1.7640  1.2006  1.2006  0.5535  0.5535  0.4549  0.4549  0.4307  0.1848  0.1654
  0.1511  0.1256  0.1145  0.0990

 Free energy of the ion-electron system (eV)
  ---------------------------------------------------
  alpha Z        PSCENC =      1169.04204113
  Ewald energy   TEWEN  =    -22148.67069068
  -Hartree energ DENC   =    -11081.29305935
  -exchange      EXHF   =         0.00000000
  -V(xc)+E(xc)   XCENC  =      1530.90568036
  PAW double counting   =     35793.49998499   -37105.11339687
  entropy T*S    EENTRO =        -0.02616139
  eigenvalues    EBANDS =     -1331.49515175
  atomic energy  EATOM  =     32822.82841862
  Solvation  Ediel_sol  =         0.00000000
  ---------------------------------------------------
  free energy    TOTEN  =      -350.32233496 eV

  energy without entropy =     -350.29617357  energy(sigma->0) =     -350.30925426


--------------------------------------------------------------------------------------------------------




--------------------------------------- Iteration      1(  20)  ---------------------------------------


    POTLOK:  cpu time    0.1402: real time    0.1405
    SETDIJ:  cpu time    0.0206: real time    0.0206
     EDDAV:  cpu time    2.1707: real time    2.1759
    CHARGE:  cpu time    0.1087: real time    0.1090
    MIXING:  cpu time    0.0059: real time    0.0059
    --------------------------------------------
      LOOP:  cpu time    2.4460: real time    2.4519

 eigenvalue-minimisations  :  1344
 total energy-change (2. order) : 0.2406986E+00  (-0.6211203E-01)
 number of electron     379.0000119 magnetization       5.4287001
 augmentation part      125.6175143 magnetization       3.8060177

 Broyden mixing:
  rms(total) = 0.49005E+00    rms(broyden)= 0.48991E+00
  rms(prec ) = 0.61633E+00
  weight for this iteration     100.00

 eigenvalues of (default mixing * dielectric matrix)
  average eigenvalue GAMMA=   0.5611
  1.7709  1.3222  1.3222  0.6064  0.6064  0.5989  0.4593  0.4593  0.3965  0.1825
  0.1613  0.1613  0.1266  0.1403  0.1019

 Free energy of the ion-electron system (eV)
  ---------------------------------------------------
  alpha Z        PSCENC =      1169.04204113
  Ewald energy   TEWEN  =    -22148.67069068
  -Hartree energ DENC   =    -11083.49050254
  -exchange      EXHF   =         0.00000000
  -V(xc)+E(xc)   XCENC  =      1531.06328227
  PAW double counting   =     35903.54855775   -37215.14333718
  entropy T*S    EENTRO =        -0.02990400
  eigenvalues    EBANDS =     -1329.22950168
  atomic energy  EATOM  =     32822.82841862
  Solvation  Ediel_sol  =         0.00000000
  ---------------------------------------------------
  free energy    TOTEN  =      -350.08163632 eV

  energy without entropy =     -350.05173232  energy(sigma->0) =     -350.06668432


--------------------------------------------------------------------------------------------------------




--------------------------------------- Iteration      1(  21)  ---------------------------------------


    POTLOK:  cpu time    0.1395: real time    0.1399
    SETDIJ:  cpu time    0.0206: real time    0.0206
     EDDAV:  cpu time    2.2234: real time    2.2287
    CHARGE:  cpu time    0.1124: real time    0.1126
    MIXING:  cpu time    0.0059: real time    0.0059
    --------------------------------------------
      LOOP:  cpu time    2.5017: real time    2.5076

 eigenvalue-minimisations  :  1392
 total energy-change (2. order) :-0.2956598E-01  (-0.4793249E-01)
 number of electron     379.0000118 magnetization       5.2523480
 augmentation part      125.6153395 magnetization       3.6841812

 Broyden mixing:
  rms(total) = 0.61400E+00    rms(broyden)= 0.61388E+00
  rms(prec ) = 0.84769E+00
  weight for this iteration     100.00

 eigenvalues of (default mixing * dielectric matrix)
  average eigenvalue GAMMA=   0.5504
  1.8114  1.2226  1.2226  0.9342  0.6050  0.6050  0.4593  0.4593  0.4001  0.2285
  0.1787  0.1683  0.1500  0.1269  0.1327  0.1017

 Free energy of the ion-electron system (eV)
  ---------------------------------------------------
  alpha Z        PSCENC =      1169.04204113
  Ewald energy   TEWEN  =    -22148.67069068
  -Hartree energ DENC   =    -11085.40155880
  -exchange      EXHF   =         0.00000000
  -V(xc)+E(xc)   XCENC  =      1531.19226459
  PAW double counting   =     35978.51713271   -37290.01544079
  entropy T*S    EENTRO =        -0.02633107
  eigenvalues    EBANDS =     -1327.57703800
  atomic energy  EATOM  =     32822.82841862
  Solvation  Ediel_sol  =         0.00000000
  ---------------------------------------------------
  free energy    TOTEN  =      -350.11120230 eV

  energy without entropy =     -350.08487123  energy(sigma->0) =     -350.09803677


--------------------------------------------------------------------------------------------------------




--------------------------------------- Iteration      1(  22)  ---------------------------------------


    POTLOK:  cpu time    0.1397: real time    0.1401
    SETDIJ:  cpu time    0.0203: real time    0.0204
     EDDAV:  cpu time    2.0567: real time    2.0616
    CHARGE:  cpu time    0.0994: real time    0.0997
    MIXING:  cpu time    0.0062: real time    0.0062
    --------------------------------------------
      LOOP:  cpu time    2.3223: real time    2.3279

 eigenvalue-minimisations  :  1360
 total energy-change (2. order) : 0.5849850E-01  (-0.4478166E-01)
 number of electron     379.0000119 magnetization       5.2808240
 augmentation part      125.6332101 magnetization       3.5638791

 Broyden mixing:
  rms(total) = 0.38306E+00    rms(broyden)= 0.38285E+00
  rms(prec ) = 0.46912E+00
  weight for this iteration     100.00

 eigenvalues of (default mixing * dielectric matrix)
  average eigenvalue GAMMA=   0.5442
  1.8052  1.3525  1.3525  0.6985  0.6985  0.5652  0.4707  0.4707  0.4198  0.4198
  0.1766  0.1703  0.1018  0.1530  0.1269  0.1348  0.1348

 Free energy of the ion-electron system (eV)
  ---------------------------------------------------
  alpha Z        PSCENC =      1169.04204113
  Ewald energy   TEWEN  =    -22148.67069068
  -Hartree energ DENC   =    -11086.39050818
  -exchange      EXHF   =         0.00000000
  -V(xc)+E(xc)   XCENC  =      1531.25746346
  PAW double counting   =     36014.53003185   -37326.09771244
  entropy T*S    EENTRO =        -0.03506286
  eigenvalues    EBANDS =     -1326.51668470
  atomic energy  EATOM  =     32822.82841862
  Solvation  Ediel_sol  =         0.00000000
  ---------------------------------------------------
  free energy    TOTEN  =      -350.05270381 eV

  energy without entropy =     -350.01764095  energy(sigma->0) =     -350.03517238


--------------------------------------------------------------------------------------------------------




--------------------------------------- Iteration      1(  23)  ---------------------------------------


    POTLOK:  cpu time    0.1308: real time    0.1311
    SETDIJ:  cpu time    0.0208: real time    0.0208
     EDDAV:  cpu time    1.8661: real time    1.8705
    CHARGE:  cpu time    0.0993: real time    0.0995
    MIXING:  cpu time    0.0065: real time    0.0065
    --------------------------------------------
      LOOP:  cpu time    2.1234: real time    2.1284

 eigenvalue-minimisations  :  1376
 total energy-change (2. order) : 0.2081600E-01  (-0.1527674E-01)
 number of electron     379.0000119 magnetization       5.3222209
 augmentation part      125.6198924 magnetization       3.7021037

 Broyden mixing:
  rms(total) = 0.32733E+00    rms(broyden)= 0.32726E+00
  rms(prec ) = 0.41892E+00
  weight for this iteration     100.00

 eigenvalues of (default mixing * dielectric matrix)
  average eigenvalue GAMMA=   0.5318
  1.7667  1.4076  1.4076  0.7271  0.7271  0.5404  0.4793  0.4793  0.4542  0.4542
  0.1745  0.1745  0.1474  0.1450  0.1450  0.1263  0.1015  0.1146

 Free energy of the ion-electron system (eV)
  ---------------------------------------------------
  alpha Z        PSCENC =      1169.04204113
  Ewald energy   TEWEN  =    -22148.67069068
  -Hartree energ DENC   =    -11086.92463927
  -exchange      EXHF   =         0.00000000
  -V(xc)+E(xc)   XCENC  =      1531.28479077
  PAW double counting   =     36017.82274364   -37329.34753507
  entropy T*S    EENTRO =        -0.03458664
  eigenvalues    EBANDS =     -1326.03243030
  atomic energy  EATOM  =     32822.82841862
  Solvation  Ediel_sol  =         0.00000000
  ---------------------------------------------------
  free energy    TOTEN  =      -350.03188780 eV

  energy without entropy =     -349.99730116  energy(sigma->0) =     -350.01459448


--------------------------------------------------------------------------------------------------------




--------------------------------------- Iteration      1(  24)  ---------------------------------------


    POTLOK:  cpu time    0.1306: real time    0.1309
    SETDIJ:  cpu time    0.0206: real time    0.0206
     EDDAV:  cpu time    2.1952: real time    2.2004
    CHARGE:  cpu time    0.1135: real time    0.1138
    MIXING:  cpu time    0.0068: real time    0.0068
    --------------------------------------------
      LOOP:  cpu time    2.4666: real time    2.4725

 eigenvalue-minimisations  :  1408
 total energy-change (2. order) : 0.6887258E-02  (-0.4449799E-02)
 number of electron     379.0000118 magnetization       5.3571530
 augmentation part      125.6105798 magnetization       3.6014244

 Broyden mixing:
  rms(total) = 0.26340E+00    rms(broyden)= 0.26336E+00
  rms(prec ) = 0.30889E+00
  weight for this iteration     100.00

 eigenvalues of (default mixing * dielectric matrix)
  average eigenvalue GAMMA=   0.5129
  1.7569  1.4252  1.4252  0.7284  0.7284  0.5120  0.4891  0.4891  0.4449  0.4449
  0.1657  0.1657  0.1794  0.1683  0.1513  0.1268  0.1325  0.1019  0.1087

 Free energy of the ion-electron system (eV)
  ---------------------------------------------------
  alpha Z        PSCENC =      1169.04204113
  Ewald energy   TEWEN  =    -22148.67069068
  -Hartree energ DENC   =    -11087.16704446
  -exchange      EXHF   =         0.00000000
  -V(xc)+E(xc)   XCENC  =      1531.29647733
  PAW double counting   =     36014.64897555   -37326.13155543
  entropy T*S    EENTRO =        -0.03681481
  eigenvalues    EBANDS =     -1325.83480778
  atomic energy  EATOM  =     32822.82841862
  Solvation  Ediel_sol  =         0.00000000
  ---------------------------------------------------
  free energy    TOTEN  =      -350.02500055 eV

  energy without entropy =     -349.98818573  energy(sigma->0) =     -350.00659314


--------------------------------------------------------------------------------------------------------




--------------------------------------- Iteration      1(  25)  ---------------------------------------


    POTLOK:  cpu time    0.1397: real time    0.1400
    SETDIJ:  cpu time    0.0204: real time    0.0205
     EDDAV:  cpu time    2.1380: real time    2.1430
    CHARGE:  cpu time    0.1148: real time    0.1150
    MIXING:  cpu time    0.0073: real time    0.0073
    --------------------------------------------
      LOOP:  cpu time    2.4201: real time    2.4259

 eigenvalue-minimisations  :  1312
 total energy-change (2. order) :-0.1882078E-02  (-0.1351168E-02)
 number of electron     379.0000118 magnetization       5.3374263
 augmentation part      125.5995081 magnetization       3.5654035

 Broyden mixing:
  rms(total) = 0.25024E+00    rms(broyden)= 0.25023E+00
  rms(prec ) = 0.29667E+00
  weight for this iteration     100.00

 eigenvalues of (default mixing * dielectric matrix)
  average eigenvalue GAMMA=   0.5124
  1.7880  1.3916  1.3916  0.7733  0.7733  0.5393  0.4769  0.4769  0.4745  0.4745
  0.3364  0.1887  0.1887  0.1861  0.1653  0.1512  0.1266  0.1347  0.1017  0.1079

 Free energy of the ion-electron system (eV)
  ---------------------------------------------------
  alpha Z        PSCENC =      1169.04204113
  Ewald energy   TEWEN  =    -22148.67069068
  -Hartree energ DENC   =    -11087.37259387
  -exchange      EXHF   =         0.00000000
  -V(xc)+E(xc)   XCENC  =      1531.30796831
  PAW double counting   =     36016.06641683   -37327.59230854
  entropy T*S    EENTRO =        -0.03786011
  eigenvalues    EBANDS =     -1325.59827430
  atomic energy  EATOM  =     32822.82841862
  Solvation  Ediel_sol  =         0.00000000
  ---------------------------------------------------
  free energy    TOTEN  =      -350.02688262 eV

  energy without entropy =     -349.98902251  energy(sigma->0) =     -350.00795257


--------------------------------------------------------------------------------------------------------




--------------------------------------- Iteration      1(  26)  ---------------------------------------


    POTLOK:  cpu time    0.1423: real time    0.1427
    SETDIJ:  cpu time    0.0213: real time    0.0214
     EDDAV:  cpu time    2.3133: real time    2.3188
    CHARGE:  cpu time    0.1137: real time    0.1140
    MIXING:  cpu time    0.0078: real time    0.0078
    --------------------------------------------
      LOOP:  cpu time    2.5984: real time    2.6046

 eigenvalue-minimisations  :  1424
 total energy-change (2. order) : 0.1253513E-02  (-0.1794591E-03)
 number of electron     379.0000118 magnetization       5.5050224
 augmentation part      125.5984683 magnetization       3.7251775

 Broyden mixing:
  rms(total) = 0.25695E+00    rms(broyden)= 0.25695E+00
  rms(prec ) = 0.30033E+00
  weight for this iteration     100.00

 eigenvalues of (default mixing * dielectric matrix)
  average eigenvalue GAMMA=   0.5678
  1.9167  1.2129  1.1629  1.1629  1.0072  1.0072  0.6473  0.6473  0.4654  0.4654
  0.4437  0.4437  0.2132  0.1755  0.1736  0.1599  0.1489  0.1266  0.1350  0.1016
  0.1073

 Free energy of the ion-electron system (eV)
  ---------------------------------------------------
  alpha Z        PSCENC =      1169.04204113
  Ewald energy   TEWEN  =    -22148.67069068
  -Hartree energ DENC   =    -11087.41539530
  -exchange      EXHF   =         0.00000000
  -V(xc)+E(xc)   XCENC  =      1531.30742016
  PAW double counting   =     36016.63037205   -37328.15872476
  entropy T*S    EENTRO =        -0.03783338
  eigenvalues    EBANDS =     -1325.55123693
  atomic energy  EATOM  =     32822.82841862
  Solvation  Ediel_sol  =         0.00000000
  ---------------------------------------------------
  free energy    TOTEN  =      -350.02562911 eV

  energy without entropy =     -349.98779573  energy(sigma->0) =     -350.00671242


--------------------------------------------------------------------------------------------------------




--------------------------------------- Iteration      1(  27)  ---------------------------------------


    POTLOK:  cpu time    0.1429: real time    0.1432
    SETDIJ:  cpu time    0.0212: real time    0.0213
     EDDAV:  cpu time    2.3001: real time    2.3056
    CHARGE:  cpu time    0.1124: real time    0.1126
    MIXING:  cpu time    0.0076: real time    0.0076
    --------------------------------------------
      LOOP:  cpu time    2.5842: real time    2.5903

 eigenvalue-minimisations  :  1440
 total energy-change (2. order) :-0.2199054E-01  (-0.5718285E-02)
 number of electron     379.0000118 magnetization       5.6775008
 augmentation part      125.5980182 magnetization       3.6995589

 Broyden mixing:
  rms(total) = 0.28938E+00    rms(broyden)= 0.28931E+00
  rms(prec ) = 0.32948E+00
  weight for this iteration     100.00

 eigenvalues of (default mixing * dielectric matrix)
  average eigenvalue GAMMA=   0.5739
  1.9584  1.2379  1.2379  1.2002  1.2002  0.8849  0.7403  0.7403  0.4702  0.4702
  0.4635  0.4635  0.2174  0.2019  0.1778  0.1778  0.1591  0.1515  0.1265  0.1361
  0.1016  0.1083

 Free energy of the ion-electron system (eV)
  ---------------------------------------------------
  alpha Z        PSCENC =      1169.04204113
[...]
   -.191E+01 -.501E+00 -.337E+01   0.187E+01 0.117E+01 0.329E+01   0.287E-01 -.649E+00 0.830E-01   0.653E-02 0.278E-02 -.364E-02
   -.147E+01 0.415E+00 0.817E+00   0.145E+01 -.355E+00 -.811E+00   0.300E-01 -.502E-01 -.654E-02   0.130E-02 -.155E-02 0.359E-02
   0.166E+01 0.349E+00 -.207E+01   -.158E+01 -.103E+01 0.198E+01   -.832E-01 0.646E+00 0.866E-01   0.265E-02 -.263E-02 -.166E-02
   -.956E+01 -.897E+00 0.265E+01   0.101E+02 0.136E+01 -.266E+01   -.549E+00 -.450E+00 0.283E-02   0.395E-02 0.304E-02 0.819E-02
   0.381E+01 0.369E+00 0.102E+01   -.371E+01 0.407E+00 -.106E+01   -.912E-01 -.745E+00 0.440E-01   -.648E-02 0.364E-02 -.132E-02
   0.215E+02 0.254E+02 0.824E+02   -.218E+02 -.256E+02 -.826E+02   0.238E+00 0.215E+00 0.182E+00   0.275E-01 -.120E-01 0.412E-02
   0.156E+02 0.104E+00 0.380E+02   -.160E+02 -.493E-01 -.385E+02   0.413E+00 -.432E-01 0.527E+00   -.115E-01 -.134E-01 -.446E-02
   -.924E+01 0.213E+02 0.467E+02   0.919E+01 -.214E+02 -.468E+02   0.386E-01 0.122E+00 0.140E+00   0.227E-01 -.131E-01 0.691E-02
   -.391E+01 -.236E+02 0.311E+02   0.405E+01 0.239E+02 -.313E+02   -.159E+00 -.312E+00 0.248E+00   0.234E-01 0.131E-01 0.780E-02
   0.323E+02 -.186E+01 0.716E+02   -.326E+02 0.186E+01 -.721E+02   0.410E+00 -.963E-02 0.573E+00   -.121E-01 0.110E-01 -.202E-02
   -.182E+02 -.219E+02 0.926E+01   0.182E+02 0.221E+02 -.912E+01   0.869E-02 -.176E+00 -.134E+00   0.278E-01 0.111E-01 0.109E-02
   -.129E+02 0.146E+02 0.651E+02   0.137E+02 -.148E+02 -.659E+02   -.770E+00 0.140E+00 0.793E+00   -.187E-01 -.126E-01 0.774E-03
   -.282E+02 -.135E+02 0.991E+02   0.287E+02 0.135E+02 -.998E+02   -.468E+00 -.372E-01 0.686E+00   -.188E-01 0.865E-02 -.144E-02
   -.222E+01 0.146E+02 -.115E+03   0.194E+01 -.147E+02 0.116E+03   0.275E+00 0.129E+00 -.810E+00   -.608E-03 -.137E-01 -.105E-01
   -.703E+01 0.215E+02 -.412E+02   0.732E+01 -.217E+02 0.416E+02   -.314E+00 0.211E+00 -.438E+00   0.231E-01 0.758E-03 0.630E-02
   0.778E+01 0.117E+01 -.469E+02   -.780E+01 -.112E+01 0.472E+02   0.455E-01 -.542E-01 -.237E+00   -.340E-01 0.604E-02 -.981E-02
   0.242E+01 -.174E+01 -.278E+02   -.271E+01 0.173E+01 0.281E+02   0.323E+00 0.223E-01 -.291E+00   -.350E-01 -.366E-02 -.110E-01
   -.255E+02 -.244E+02 -.761E+02   0.258E+02 0.248E+02 0.766E+02   -.329E+00 -.354E+00 -.513E+00   0.247E-01 0.389E-02 0.300E-02
   0.356E+02 -.120E+02 -.470E+02   -.363E+02 0.120E+02 0.478E+02   0.643E+00 0.111E-01 -.765E+00   -.323E-02 0.158E-01 -.705E-02
   -.103E+02 0.254E+02 -.261E+02   0.102E+02 -.257E+02 0.260E+02   0.751E-01 0.315E+00 0.732E-01   -.982E-02 -.162E-01 0.353E-02
   0.197E+01 -.242E+02 -.633E+02   -.155E+01 0.243E+02 0.634E+02   -.429E+00 -.131E+00 -.607E-01   -.574E-02 0.179E-01 0.530E-02
   -.253E+02 -.196E+01 0.293E+03   0.251E+02 0.194E+01 -.310E+03   0.181E+00 0.453E-01 0.172E+02   0.125E-01 -.186E-01 -.302E-02
   0.117E+02 0.285E+02 -.371E+03   -.119E+02 -.309E+02 0.391E+03   0.191E+00 0.238E+01 -.198E+02   -.103E-01 -.185E-01 0.934E-02
   -.308E+01 -.145E+01 -.278E+03   0.528E+01 0.144E+01 0.292E+03   -.220E+01 0.257E-01 -.139E+02   -.547E-02 -.132E-01 -.113E-01
   -.932E+01 0.275E+02 0.367E+03   0.866E+01 -.300E+02 -.387E+03   0.692E+00 0.254E+01 0.195E+02   -.144E-01 -.100E-01 -.993E-02
   0.199E+02 0.290E+02 0.314E+03   -.244E+02 -.310E+02 -.331E+03   0.447E+01 0.204E+01 0.168E+02   0.197E-01 -.849E-02 0.125E-01
   -.306E+02 0.225E+02 -.364E+03   0.358E+02 -.239E+02 0.382E+03   -.519E+01 0.141E+01 -.180E+02   -.214E-01 -.687E-02 -.268E-02
   0.608E+01 -.294E+02 -.367E+03   -.563E+01 0.322E+02 0.387E+03   -.458E+00 -.280E+01 -.195E+02   -.115E-01 0.736E-02 -.116E-01
   -.183E+02 -.331E+02 0.322E+03   0.182E+02 0.354E+02 -.342E+03   0.391E-01 -.240E+01 0.202E+02   0.886E-02 0.862E-02 0.215E-01
   -.229E+02 -.301E+02 -.313E+03   0.276E+02 0.321E+02 0.330E+03   -.464E+01 -.199E+01 -.165E+02   -.443E-02 -.938E-02 -.462E-02
   0.287E+02 0.151E+02 0.365E+03   -.334E+02 -.158E+02 -.383E+03   0.470E+01 0.700E+00 0.177E+02   0.248E-01 -.757E-02 -.496E-02
   -.511E+01 -.231E+02 0.370E+03   0.502E+01 0.245E+02 -.389E+03   0.926E-01 -.136E+01 0.198E+02   0.209E-01 0.882E-02 -.657E-03
   0.157E+02 0.323E+02 -.322E+03   -.157E+02 -.345E+02 0.342E+03   -.872E-01 0.215E+01 -.200E+02   0.537E-02 0.948E-02 -.106E-01
   0.984E+01 0.237E+01 0.278E+03   -.127E+02 -.249E+01 -.292E+03   0.285E+01 0.110E+00 0.132E+02   0.488E-02 0.167E-01 0.346E-02
   -.316E+02 -.195E+02 -.357E+03   0.368E+02 0.209E+02 0.375E+03   -.523E+01 -.143E+01 -.182E+02   -.284E-02 0.181E-01 0.522E-02
   0.309E+02 0.247E+01 -.302E+03   -.307E+02 -.250E+01 0.319E+03   -.152E+00 0.100E-01 -.173E+02   -.195E-01 0.148E-01 -.793E-03
   0.190E+02 -.213E+02 0.365E+03   -.233E+02 0.227E+02 -.383E+03   0.434E+01 -.139E+01 0.183E+02   -.902E-03 0.997E-02 -.204E-01
   0.349E+02 0.255E+02 0.306E+03   -.388E+02 -.274E+02 -.322E+03   0.399E+01 0.196E+01 0.162E+02   -.241E-01 -.193E-01 -.256E-02
   0.755E+00 0.260E+02 -.373E+03   -.228E+00 -.279E+02 0.393E+03   -.568E+00 0.187E+01 -.193E+02   0.272E-01 -.182E-01 -.238E-02
   0.218E+01 0.273E+02 -.331E+03   -.150E+01 -.292E+02 0.353E+03   -.703E+00 0.188E+01 -.220E+02   0.247E-01 -.105E-01 0.148E-01
   -.260E+01 0.224E+02 0.377E+03   0.266E+01 -.238E+02 -.397E+03   -.324E-01 0.148E+01 0.199E+02   -.902E-02 -.137E-01 0.240E-02
   0.521E+02 -.279E+02 0.308E+03   -.575E+02 0.294E+02 -.325E+03   0.541E+01 -.153E+01 0.175E+02   0.336E-02 0.572E-02 -.150E-01
   -.366E+02 0.180E+02 -.372E+03   0.420E+02 -.191E+02 0.390E+03   -.536E+01 0.105E+01 -.180E+02   0.372E-02 0.803E-02 0.899E-02
   0.190E+01 -.224E+02 -.383E+03   -.178E+01 0.241E+02 0.403E+03   -.147E+00 -.168E+01 -.200E+02   0.160E-01 -.718E-02 -.804E-03
   0.459E+02 0.289E+02 0.297E+03   -.492E+02 -.306E+02 -.313E+03   0.330E+01 0.176E+01 0.165E+02   -.845E-02 -.752E-02 -.616E-02
   -.537E+02 0.267E+02 -.308E+03   0.591E+02 -.280E+02 0.325E+03   -.545E+01 0.124E+01 -.172E+02   -.142E-01 -.165E-01 0.121E-01
   0.365E+02 0.217E+02 0.374E+03   -.418E+02 -.232E+02 -.392E+03   0.531E+01 0.157E+01 0.182E+02   -.123E-01 -.154E-01 -.778E-02
   -.218E+01 -.309E+02 0.383E+03   0.210E+01 0.335E+02 -.403E+03   0.115E+00 -.266E+01 0.199E+02   -.223E-01 0.170E-01 -.794E-03
   -.480E+02 -.299E+02 -.295E+03   0.516E+02 0.317E+02 0.311E+03   -.357E+01 -.184E+01 -.159E+02   -.922E-02 0.179E-01 0.872E-02
   -.797E+00 -.268E+02 0.337E+03   -.751E+00 0.286E+02 -.358E+03   0.156E+01 -.185E+01 0.209E+02   -.155E-01 0.193E-01 -.446E-02
   -.298E+02 -.157E+02 -.372E+03   0.341E+02 0.164E+02 0.390E+03   -.435E+01 -.628E+00 -.187E+02   0.193E-01 0.168E-01 0.168E-02
   -.381E+02 -.253E+02 -.309E+03   0.427E+02 0.271E+02 0.325E+03   -.464E+01 -.181E+01 -.158E+02   0.185E-01 0.105E-01 0.207E-01
   0.409E+02 -.178E+02 0.363E+03   -.461E+02 0.188E+02 -.381E+03   0.527E+01 -.922E+00 0.183E+02   -.568E-02 0.139E-01 -.380E-02
 -----------------------------------------------------------------------------------------------
   0.383E+00 -.523E-02 -.193E+00   -.213E-12 -.174E-12 0.341E-12   -.368E+00 -.203E-01 0.213E+00   -.399E-02 0.618E-02 -.113E-01
 
 
 POSITION                                       TOTAL-FORCE (eV/Angst)
 -----------------------------------------------------------------------------------
      1.44854      5.38445      2.46337         0.005683     -0.010995     -0.000829
      4.08619      1.39428      2.48486         0.000838      0.002124      0.000957
      2.31373      1.10545      7.27039        -0.007796     -0.030559     -0.002665
      4.08742      4.15655      2.49120        -0.005389     -0.001869      0.001948
      4.79604      3.02746      7.31247        -0.004436      0.020262      0.001113
      9.04892      1.39845      2.56153         0.005323      0.008242      0.002471
      7.28790      1.11456      7.34364         0.004167     -0.033309      0.000611
      6.70138      2.93409      2.52467        -0.003903      0.012298     -0.001047
     -0.15030      3.06605      7.23953         0.003378      0.034955      0.000495
      6.39749      5.54289      9.75511         0.007253     -0.000573      0.004477
      2.50279      1.38073      0.09400         0.007590     -0.001599      0.003980
      7.46438      1.36657      0.13375         0.008632     -0.000056      0.000887
      7.46326      4.14574      0.15493         0.008698     -0.000759      0.001703
      2.48771      4.14497      0.07889         0.007310     -0.002425      0.006258
      0.02018      2.76451      0.04919         0.007922     -0.001637      0.000558
      4.97361     -0.00441      0.09898         0.008340     -0.002212      0.004795
      1.44678      2.79532      9.66965         0.007487     -0.003499      0.002711
      3.19436      5.54222      4.89766        -0.006858      0.002202     -0.006090
      5.66806      1.39480      4.85728        -0.007021      0.004121     -0.002155
      0.70476      1.40248      4.83565        -0.008462      0.000028     -0.002143
      0.70714      4.16266      4.82673        -0.008376      0.001845     -0.004025
      5.67430      4.16804      4.89066        -0.006688      0.001547     -0.004830
      3.17615      2.77956      4.85130        -0.006664      0.001621     -0.002903
      8.16040      0.01293      4.91817        -0.008793      0.001421     -0.002980
     -1.78102      2.79701      4.80439        -0.009951      0.000444     -0.000508
      4.89678      5.54152      3.90783         0.001633      0.004036     -0.003159
      1.47637      0.01980      5.78218        -0.012075     -0.002439     -0.006776
      3.21085      5.51914      1.12808         0.000202     -0.004507      0.003718
      3.17258      0.03199      8.76450         0.010656     -0.001261      0.004291
      7.46889      1.42566      3.91384        -0.003194      0.002925      0.003004
     -1.09643      1.40591      5.79800        -0.018000     -0.003694     -0.004846
     -1.01079      4.17023      5.75800        -0.016077      0.001408     -0.004204
      7.39461      4.15314      3.98372        -0.002741      0.003257      0.001358
      0.69715      1.33581      1.04183         0.001854     -0.002091     -0.000814
      5.72705      1.44302      8.75221         0.017449     -0.002312      0.004905
      5.64504      4.13496      8.80954         0.015864      0.002029      0.002374
      0.77038      4.16141      0.99153         0.001454     -0.003878      0.000346
      4.97719      2.79437      3.81996         0.001390      0.005437     -0.003060
      1.40164      2.77149      5.84136        -0.015438      0.002289     -0.006879
      3.26504      2.77185      1.06691         0.001556     -0.003753      0.002895
      3.21662      2.78412      8.74476         0.016170      0.002743      0.005519
     -0.01750      0.04102      3.82123        -0.005900      0.001907      0.000522
      6.43431      0.03726      5.83417        -0.013577     -0.001778     -0.005810
      8.23818      0.00433      1.08596         0.003004     -0.003189     -0.000458
     -1.79658      0.05075      8.70429         0.014888     -0.002934      0.008766
      2.49890      1.36709      3.85316        -0.000673      0.004862     -0.002182
      3.89559      1.42972      5.86558        -0.012923     -0.001330     -0.010345
      3.96871      4.12805      5.81928        -0.010532      0.001522     -0.009459
      2.46113      4.18925      3.86517        -0.000402      0.002555     -0.003770
      5.66046      1.39351      1.10170         0.002299     -0.004823     -0.000998
      0.74886      1.41462      8.67373         0.013772     -0.004661      0.009894
      0.66811      4.18131      8.73502         0.012315      0.000598      0.009468
      5.69522      4.12110      1.10412         0.001955     -0.003844      0.000809
     -0.04893      2.77097      3.87314        -0.006658      0.003275      0.000900
      6.36372      2.75731      5.88289        -0.017709      0.005046     -0.007835
      8.16730      2.73368      1.15862         0.004582     -0.001457     -0.000881
     -1.71992      2.77143      8.66462         0.016572      0.002445      0.009919
 -----------------------------------------------------------------------------------
    total drift:                                0.011505     -0.019349      0.009294


--------------------------------------------------------------------------------------------------------



  FREE ENERGIE OF THE ION-ELECTRON SYSTEM (eV)
  ---------------------------------------------------
  free  energy   TOTEN  =      -350.1106181887 eV

  energy  without entropy=     -350.1018708393  energy(sigma->0) =     -350.10624451
 
 d Force = 0.2443040E-03[ 0.236E-03, 0.253E-03]  d Energy = 0.2522722E-03-0.797E-05
 d Force =-0.7564882E+00[-0.757E+00,-0.756E+00]  d Ewald  =-0.1586405E+01 0.830E+00


--------------------------------------------------------------------------------------------------------


    POTLOK:  cpu time    0.1470: real time    0.1474


--------------------------------------------------------------------------------------------------------


 Quasi-Newton relaxation of ions (Broydens 2nd method)
  g(Force)  = 0.505E-03   g(Stress)= 0.119E-03

 retain information from N=  1 steps
 eigenvalues of (default step * inverse Hessian matrix)
  average eigenvalue of G=   0.1697
 eigenvalue spectrum of G is  0.1697


--------------------------------------------------------------------------------------------------------


     LOOP+:  cpu time   13.0924: real time   13.2240
    4ORBIT:  cpu time    0.0000: real time    0.0000

volume of typ            1:    13.2 %

volume of typ            2:    19.2 %

volume of typ            3:     9.8 %
 
total charge     
 
# of ion       s       p       d       tot
------------------------------------------
    1        2.075   0.235   0.087   2.397
    2        2.076   0.237   0.088   2.402
    3        2.066   0.215   0.079   2.360
    4        2.076   0.238   0.088   2.401
    5        2.068   0.208   0.078   2.354
    6        2.072   0.225   0.084   2.381
    7        2.067   0.213   0.078   2.358
    8        2.077   0.240   0.090   2.407
    9        2.067   0.214   0.078   2.359
   10        0.289   0.404   7.850   8.543
   11        0.276   0.373   7.860   8.508
   12        0.283   0.387   7.860   8.531
   13        0.279   0.382   7.847   8.508
   14        0.283   0.390   7.847   8.520
   15        0.278   0.379   7.855   8.511
   16        0.278   0.380   7.856   8.515
   17        0.288   0.400   7.865   8.553
   18        0.286   0.398   7.860   8.544
   19        0.276   0.374   7.859   8.509
   20        0.283   0.386   7.861   8.530
   21        0.279   0.382   7.847   8.508
   22        0.283   0.391   7.847   8.520
   23        0.276   0.374   7.864   8.515
   24        0.279   0.384   7.845   8.507
   25        0.288   0.399   7.861   8.548
   26        1.261   2.786   0.007   4.053
   27        1.267   2.770   0.007   4.045
   28        1.257   2.795   0.006   4.058
   29        1.268   2.767   0.007   4.043
   30        1.264   2.777   0.007   4.048
   31        1.266   2.769   0.007   4.042
   32        1.269   2.764   0.007   4.041
   33        1.268   2.771   0.007   4.046
   34        1.264   2.777   0.007   4.048
   35        1.266   2.770   0.007   4.042
   36        1.269   2.766   0.007   4.042
   37        1.268   2.769   0.007   4.045
   38        1.257   2.796   0.006   4.058
   39        1.265   2.771   0.007   4.043
   40        1.261   2.782   0.007   4.050
   41        1.266   2.770   0.007   4.043
   42        1.261   2.787   0.007   4.055
   43        1.269   2.763   0.007   4.040
   44        1.270   2.762   0.008   4.039
   45        1.269   2.765   0.007   4.041
   46        1.265   2.774   0.007   4.045
   47        1.266   2.769   0.007   4.042
   48        1.267   2.771   0.007   4.045
   49        1.262   2.783   0.007   4.051
   50        1.266   2.773   0.007   4.045
   51        1.266   2.769   0.007   4.042
   52        1.268   2.769   0.007   4.044
   53        1.263   2.782   0.007   4.052
   54        1.271   2.759   0.007   4.037
   55        1.266   2.769   0.007   4.042
   56        1.262   2.786   0.006   4.054
   57        1.268   2.764   0.007   4.039
--------------------------------------------------
tot          63.64   96.95  126.66  287.25
 
magnetization (x)
 
# of ion       s       p       d       tot
------------------------------------------
    1        0.004   0.007  -0.000   0.011
    2        0.005   0.008   0.000   0.014
    3        0.005   0.008   0.000   0.013
    4        0.004   0.007  -0.000   0.011
    5       -0.000   0.000   0.000   0.000
    6        0.005   0.009   0.000   0.014
    7        0.005   0.008   0.001   0.014
    8        0.005   0.010   0.000   0.014
    9        0.004   0.009   0.000   0.013
   10       -0.001   0.000  -0.190  -0.191
   11        0.003  -0.000   0.547   0.550
   12        0.004  -0.000   0.545   0.549
   13        0.001  -0.000   0.316   0.316
   14        0.000  -0.001   0.258   0.257
   15        0.002   0.000   0.460   0.462
   16        0.000   0.000   0.315   0.315
   17       -0.002   0.000  -0.367  -0.369
   18       -0.000  -0.000   0.249   0.249
   19        0.002  -0.000   0.524   0.526
   20        0.004   0.000   0.531   0.535
   21        0.000  -0.000   0.310   0.311
   22       -0.000  -0.000   0.237   0.236
   23        0.003   0.000   0.522   0.525
   24       -0.000  -0.000   0.308   0.308
   25        0.001   0.000   0.355   0.356
   26        0.004   0.024   0.000   0.028
   27        0.004   0.029   0.000   0.034
   28        0.006   0.028   0.000   0.034
   29        0.006   0.062   0.000   0.068
   30        0.007   0.064   0.000   0.071
   31        0.007   0.064   0.000   0.071
   32        0.005   0.046   0.000   0.051
   33        0.004   0.019   0.000   0.023
   34        0.005   0.056   0.000   0.062
   35        0.005   0.061   0.000   0.067
   36        0.004   0.043   0.000   0.047
   37        0.002   0.018   0.000   0.020
   38        0.008   0.061   0.000   0.069
   39        0.007   0.075   0.000   0.082
   40       -0.001  -0.039  -0.000  -0.040
   41       -0.002  -0.027  -0.000  -0.029
   42        0.006   0.031   0.000   0.036
   43        0.006   0.052   0.000   0.059
   44        0.000  -0.015  -0.000  -0.015
   45        0.000  -0.006  -0.000  -0.006
   46        0.007   0.060   0.000   0.067
   47        0.007   0.066   0.000   0.072
   48        0.003   0.024   0.000   0.027
   49        0.005   0.022   0.000   0.027
   50        0.005   0.051   0.000   0.056
   51        0.006   0.058   0.000   0.064
   52        0.002   0.014   0.000   0.016
   53        0.003   0.014   0.000   0.017
   54        0.005   0.054   0.000   0.060
   55        0.005   0.033   0.000   0.039
   56        0.008   0.063   0.000   0.071
   57        0.007   0.061   0.000   0.069
--------------------------------------------------
tot           0.20    1.23    4.93    6.36
 

 total amount of memory used by VASP MPI-rank0    94794. kBytes
=======================================================================

   base      :      30000. kBytes
   nonlr-proj:      22954. kBytes
   fftplans  :       5418. kBytes
   grid      :      31961. kBytes
   one-center:        886. kBytes
   wavefun   :       3575. kBytes
 
  
  
 General timing and accounting informations for this job:
 ========================================================
  
                  Total CPU time used (sec):      493.109
                            User time (sec):      490.054
                          System time (sec):        3.055
                         Elapsed time (sec):      499.883
  
                   Maximum memory used (kb):      144068.
                   Average memory used (kb):           0.
  
                          Minor page faults:        37571
                          Major page faults:           45
                 Voluntary context switches:         1372
