 vasp.5.4.4.18Apr17-6-g9f103f2a35 (build May 12 2020 05:39:39) gamma-only       
  
 MD_VERSION_INFO: Compiled 2020-05-12T12:39:39-UTC in devlin.sd.materialsdesign.
 com:/home/medea2/data/build/wwolf/vasp-gpu5.4.4/13047/x86_64/src/src/build/gam 
 from svn 13047
 
 This VASP executable licensed from Materials Design, Inc.
 
 executed on                        Lin64 date 2023.03.07  06:39:25
 running on   16 total cores
 distrk:  each k-point on   16 cores,    1 groups
 distr:  one band on NCORES_PER_BAND=   1 cores,   16 groups


--------------------------------------------------------------------------------------------------------


 INCAR:
 POTCAR:    PAW_PBE Li_sv 10Sep2004               
 POTCAR:    PAW_PBE Ni 02Aug2007                  
 POTCAR:    PAW_PBE O 08Apr2002                   

 ----------------------------------------------------------------------------- 
|                                                                             |
|           W    W    AA    RRRRR   N    N  II  N    N   GGGG   !!!           |
|           W    W   A  A   R    R  NN   N  II  NN   N  G    G  !!!           |
|           W    W  A    A  R    R  N N  N  II  N N  N  G       !!!           |
|           W WW W  AAAAAA  RRRRR   N  N N  II  N  N N  G  GGG   !            |
|           WW  WW  A    A  R   R   N   NN  II  N   NN  G    G                |
|           W    W  A    A  R    R  N    N  II  N    N   GGGG   !!!           |
|                                                                             |
|      For optimal performance we recommend to set                            |
|        NCORE= 4 - approx SQRT( number of cores)                             |
|      NCORE specifies how many cores store one orbital (NPAR=cpu/NCORE).     |
|      This setting can  greatly improve the performance of VASP for DFT.     |
|      The default,   NCORE=1            might be grossly inefficient         |
|      on modern multi-core architectures or massively parallel machines.     |
|      Do your own testing !!!!                                               |
|      Unfortunately you need to use the default for GW and RPA calculations. |
|      (for HF NCORE is supported but not extensively tested yet)             |
|                                                                             |
 ----------------------------------------------------------------------------- 

 POTCAR:    PAW_PBE Li_sv 10Sep2004               
  local pseudopotential read in
  atomic valenz-charges read in
  non local Contribution for L=           0  read in
    real space projection operators read in
  non local Contribution for L=           0  read in
    real space projection operators read in
  non local Contribution for L=           1  read in
    real space projection operators read in
    PAW grid and wavefunctions read in
 
   number of l-projection  operators is LMAX  =           3
   number of lm-projection operators is LMMAX =           5
 
 POTCAR:    PAW_PBE Ni 02Aug2007                  
  local pseudopotential read in
  partial core-charges read in
  partial kinetic energy density read in
  atomic valenz-charges read in
  non local Contribution for L=           2  read in
    real space projection operators read in
  non local Contribution for L=           2  read in
    real space projection operators read in
  non local Contribution for L=           0  read in
    real space projection operators read in
  non local Contribution for L=           0  read in
    real space projection operators read in
  non local Contribution for L=           1  read in
    real space projection operators read in
  non local Contribution for L=           1  read in
    real space projection operators read in
    PAW grid and wavefunctions read in
 
   number of l-projection  operators is LMAX  =           6
   number of lm-projection operators is LMMAX =          18
 
 POTCAR:    PAW_PBE O 08Apr2002                   
  local pseudopotential read in
  partial core-charges read in
  partial kinetic energy density read in
  kinetic energy density of atom read in
  atomic valenz-charges read in
  non local Contribution for L=           0  read in
    real space projection operators read in
  non local Contribution for L=           0  read in
    real space projection operators read in
  non local Contribution for L=           1  read in
    real space projection operators read in
  non local Contribution for L=           1  read in
    real space projection operators read in
    PAW grid and wavefunctions read in
 
   number of l-projection  operators is LMAX  =           4
   number of lm-projection operators is LMMAX =           8
 
 Optimization of the real space projectors (new method)

 maximal supplied QI-value         = 22.11
 optimisation between [QCUT,QGAM] = [ 11.28, 22.77] = [ 35.61,145.23] Ry 
 Optimized for a Real-space Cutoff    1.10 Angstroem

   l    n(q)    QCUT    max X(q) W(low)/X(q) W(high)/X(q)  e(spline) 
   0      7    11.276    10.506    0.54E-04    0.58E-04    0.16E-07
   0      7    11.276     8.367    0.11E-03    0.14E-03    0.35E-07
   1      7    11.276     8.983    0.23E-03    0.43E-03    0.86E-07
 Optimization of the real space projectors (new method)

 maximal supplied QI-value         = 16.25
 optimisation between [QCUT,QGAM] = [ 11.38, 22.75] = [ 36.24,144.96] Ry 
 Optimized for a Real-space Cutoff    1.47 Angstroem

   l    n(q)    QCUT    max X(q) W(low)/X(q) W(high)/X(q)  e(spline) 
   2      9    11.376    60.317    0.17E-03    0.16E-04    0.16E-06
   2      9    11.376    55.921    0.17E-03    0.16E-04    0.17E-06
   0     10    11.376    51.690    0.45E-04    0.60E-04    0.21E-06
   0     10    11.376    30.015    0.37E-04    0.55E-04    0.19E-06
   1     10    11.376    18.849    0.83E-04    0.11E-03    0.92E-07
   1     10    11.376    14.624    0.69E-04    0.92E-04    0.82E-07
 Optimization of the real space projectors (new method)

 maximal supplied QI-value         = 24.76
 optimisation between [QCUT,QGAM] = [ 11.39, 22.77] = [ 36.31,145.25] Ry 
 Optimized for a Real-space Cutoff    1.10 Angstroem

   l    n(q)    QCUT    max X(q) W(low)/X(q) W(high)/X(q)  e(spline) 
   0      7    11.387    20.381    0.22E-03    0.48E-03    0.18E-06
   0      7    11.387    15.268    0.22E-03    0.52E-03    0.19E-06
   1      7    11.387     5.964    0.22E-03    0.73E-03    0.24E-06
   1      7    11.387     5.382    0.19E-03    0.60E-03    0.21E-06

 ----------------------------------------------------------------------------- 
|                                                                             |
|  ADVICE TO THIS USER RUNNING 'VASP/VAMP'   (HEAR YOUR MASTER'S VOICE ...):  |
|                                                                             |
|      You enforced a specific xc-type in the INCAR file,                     |
|      a different type was found on the POTCAR file                          |
|          I HOPE YOU KNOW, WHAT YOU ARE  DOING                               |
|                                                                             |
 ----------------------------------------------------------------------------- 

  PAW_PBE Li_sv 10Sep2004               :
 energy of atom  1       EATOM= -202.7858
 kinetic energy error for atom=    0.0143 (will be added to EATOM!!)
  PAW_PBE Ni 02Aug2007                  :
 energy of atom  2       EATOM=-1077.6739
 kinetic energy error for atom=    0.0030 (will be added to EATOM!!)
  PAW_PBE O 08Apr2002                   :
 energy of atom  3       EATOM= -432.3788
 kinetic energy error for atom=    0.0224 (will be added to EATOM!!)
 
 
 POSCAR: ce17472_1                               
  positions in direct lattice
  No initial velocities read in
 exchange correlation table for  LEXCH =       14
   RHO(1)=    0.500       N(1)  =     2000
   RHO(2)=  100.500       N(2)  =     4000
 


--------------------------------------------------------------------------------------------------------


 ion  position               nearest neighbor table
   1  0.000  0.249  0.751-  37 2.13  26 2.16  23 2.16  19 2.16  43 2.16  46 2.16
   2  0.000  0.751  0.249-  38 2.13  25 2.16  24 2.16  20 2.16  44 2.16  45 2.16
   3  0.000  0.000  0.000-  27 1.85  28 1.85  29 1.85  30 1.85  37 1.92  38 1.92   8 2.78   8 2.78
                             4 2.80   5 2.80   6 2.80   7 2.80
   4  0.251  0.007  0.252-  33 1.84  50 1.84  38 1.85  21 1.85  27 1.89  44 1.90   7 2.77   7 2.79
                             8 2.79  10 2.80   3 2.80   9 2.80
   5  0.251  0.993  0.748-  34 1.84  49 1.84  37 1.85  22 1.85  28 1.89  43 1.90   6 2.77   6 2.79
                             8 2.79  10 2.80   3 2.80   9 2.80
   6  0.749  0.993  0.748-  34 1.84  49 1.84  37 1.85  22 1.85  29 1.89  46 1.90   5 2.77   5 2.79
                             8 2.79  10 2.80   3 2.80   9 2.80
   7  0.749  0.007  0.252-  33 1.84  50 1.84  38 1.85  21 1.85  30 1.89  45 1.90   4 2.77   4 2.79
                             8 2.79  10 2.80   3 2.80   9 2.80
   8  0.500  0.000  0.000-  27 1.85  28 1.85  29 1.85  30 1.85  49 1.88  50 1.88   3 2.78   3 2.78
                             7 2.79   4 2.79   5 2.79   6 2.79
   9  0.000  0.000  0.500-  43 1.84  44 1.84  45 1.84  46 1.84  21 1.90  22 1.90  10 2.78  10 2.78
                             4 2.80   5 2.80   6 2.80   7 2.80
  10  0.500  0.000  0.500-  43 1.86  44 1.86  45 1.86  46 1.86  33 1.92  34 1.92   9 2.78   9 2.78
                             4 2.80   5 2.80   6 2.80   7 2.80
  11  0.000  0.500  0.500-  39 1.84  40 1.84  41 1.84  42 1.84  19 1.92  20 1.92  16 2.78  16 2.78
                            12 2.80  13 2.80  14 2.80  15 2.80
  12  0.251  0.505  0.752-  48 1.84  31 1.84  19 1.85  36 1.85  40 1.88  23 1.90  15 2.77  15 2.79
                            16 2.79  18 2.80  11 2.80  17 2.80
  13  0.251  0.495  0.248-  47 1.84  32 1.84  20 1.85  35 1.85  39 1.88  24 1.90  14 2.77  14 2.79
                            16 2.79  18 2.80  11 2.80  17 2.80
  14  0.749  0.495  0.248-  47 1.84  32 1.84  20 1.85  35 1.85  42 1.88  25 1.90  13 2.77  13 2.79
                            16 2.79  18 2.80  11 2.80  17 2.80
  15  0.749  0.505  0.752-  48 1.84  31 1.84  19 1.85  36 1.85  41 1.88  26 1.90  12 2.77  12 2.79
                            16 2.79  18 2.80  11 2.80  17 2.80
  16  0.500  0.500  0.500-  39 1.85  40 1.85  41 1.85  42 1.85  31 1.88  32 1.88  11 2.78  11 2.78
                            15 2.79  12 2.79  13 2.79  14 2.79
  17  0.000  0.500  0.000-  23 1.84  24 1.84  25 1.84  26 1.84  35 1.90  36 1.90  18 2.78  18 2.78
                            12 2.80  13 2.80  14 2.80  15 2.80
  18  0.500  0.500  0.000-  23 1.86  24 1.86  25 1.86  26 1.86  47 1.92  48 1.92  17 2.78  17 2.78
                            12 2.80  13 2.80  14 2.80  15 2.80
  19  0.000  0.404  0.641-  12 1.85  15 1.85  11 1.92   1 2.16
  20  0.000  0.596  0.359-  13 1.85  14 1.85  11 1.92   2 2.16
  21  0.000  0.103  0.367-   4 1.85   7 1.85   9 1.90
  22  0.000  0.897  0.633-   5 1.85   6 1.85   9 1.90
  23  0.248  0.403  0.885-  17 1.84  18 1.86  12 1.90   1 2.16
  24  0.248  0.597  0.115-  17 1.84  18 1.86  13 1.90   2 2.16
  25  0.752  0.597  0.115-  17 1.84  18 1.86  14 1.90   2 2.16
  26  0.752  0.403  0.885-  17 1.84  18 1.86  15 1.90   1 2.16
  27  0.250  0.100  0.112-   3 1.85   8 1.85   4 1.89
  28  0.250  0.900  0.888-   3 1.85   8 1.85   5 1.89
  29  0.750  0.900  0.888-   3 1.85   8 1.85   6 1.89
  30  0.750  0.100  0.112-   3 1.85   8 1.85   7 1.89
  31  0.500  0.406  0.639-  12 1.84  15 1.84  16 1.88
  32  0.500  0.594  0.361-  13 1.84  14 1.84  16 1.88
  33  0.500  0.103  0.365-   4 1.84   7 1.84  10 1.92
  34  0.500  0.897  0.635-   5 1.84   6 1.84  10 1.92
  35  0.000  0.398  0.134-  13 1.85  14 1.85  17 1.90
  36  0.000  0.602  0.866-  12 1.85  15 1.85  17 1.90
  37  0.000  0.095  0.858-   5 1.85   6 1.85   3 1.92   1 2.13
  38  0.000  0.905  0.142-   4 1.85   7 1.85   3 1.92   2 2.13
  39  0.250  0.401  0.388-  11 1.84  16 1.85  13 1.88
  40  0.250  0.599  0.612-  11 1.84  16 1.85  12 1.88
  41  0.750  0.599  0.612-  11 1.84  16 1.85  15 1.88
  42  0.750  0.401  0.388-  11 1.84  16 1.85  14 1.88
  43  0.248  0.097  0.615-   9 1.84  10 1.86   5 1.90   1 2.16
  44  0.248  0.903  0.385-   9 1.84  10 1.86   4 1.90   2 2.16
  45  0.752  0.903  0.385-   9 1.84  10 1.86   7 1.90   2 2.16
  46  0.752  0.097  0.615-   9 1.84  10 1.86   6 1.90   1 2.16
  47  0.500  0.398  0.135-  13 1.84  14 1.84  18 1.92
  48  0.500  0.602  0.865-  12 1.84  15 1.84  18 1.92
  49  0.500  0.092  0.860-   5 1.84   6 1.84   8 1.88
  50  0.500  0.908  0.140-   4 1.84   7 1.84   8 1.88
 
  LATTYP: Found a simple monoclinic cell.
 ALAT       =    11.4609043440
 B/A-ratio  =     0.4856118309
 C/A-ratio  =     1.6808958384
 COS(beta)  =    -0.9085052503
  
  Lattice vectors:
  
 A1 = (  -6.2498288243,   0.0000000000,  -9.6068708771)
 A2 = (   0.0000000000,  -5.5655507419,   0.0000000000)
 A3 = (   2.7962477811,   0.0000000000,  19.0605689352)


Analysis of symmetry for initial positions (statically):
=====================================================================
 Subroutine PRICEL returns:
 Original cell was already a primitive cell.
 

 Routine SETGRP: Setting up the symmetry group for a 
 simple monoclinic supercell.


 Subroutine GETGRP returns: Found  4 space group operations
 (whereof  4 operations were pure point group operations)
 out of a pool of  4 trial point group operations.


The static configuration has the point symmetry C_2h.


Analysis of symmetry for dynamics (positions and initial velocities):
=====================================================================
 Subroutine PRICEL returns:
 Original cell was already a primitive cell.
 

 Routine SETGRP: Setting up the symmetry group for a 
 simple monoclinic supercell.


 Subroutine GETGRP returns: Found  4 space group operations
 (whereof  4 operations were pure point group operations)
 out of a pool of  4 trial point group operations.


The dynamic configuration has the point symmetry C_2h.


Analysis of structural, dynamic, and magnetic symmetry:
=====================================================================
 Subroutine PRICEL returns:
 Original cell was already a primitive cell.
 

 Routine SETGRP: Setting up the symmetry group for a 
 simple monoclinic supercell.


 Subroutine GETGRP returns: Found  4 space group operations
 (whereof  4 operations were pure point group operations)
 out of a pool of  4 trial point group operations.


The magnetic configuration has the point symmetry C_2h.


 Subroutine INISYM returns: Found  4 space group operations
 (whereof  4 operations are pure point group operations),
 and found     1 'primitive' translations

 
 
 KPOINTS: Automatic mesh                          

Automatic generation of k-mesh.
Space group operators:
 irot       det(A)        alpha          n_x          n_y          n_z        tau_x        tau_y        tau_z
    1     1.000000     0.000001     1.000000     0.000000     0.000000     0.000000     0.000000     0.000000
    2    -1.000000     0.000001     1.000000     0.000000     0.000000     0.000000     0.000000     0.000000
    3     1.000000   180.000000     0.000000     1.000000     0.000000     0.000000     0.000000     0.000000
    4    -1.000000   180.000000     0.000000     1.000000     0.000000     0.000000     0.000000     0.000000
 
 Subroutine IBZKPT returns following result:
 ===========================================
 
 Found      1 irreducible k-points:
 
 Following reciprocal coordinates:
            Coordinates               Weight
  0.000000  0.000000  0.000000      1.000000
 
 Following cartesian coordinates:
            Coordinates               Weight
  0.000000  0.000000  0.000000      1.000000
 


--------------------------------------------------------------------------------------------------------




 Dimension of arrays:
   k-points           NKPTS =      1   k-points in BZ     NKDIM =      1   number of bands    NBANDS=    240
   number of dos      NEDOS =    301   number of ions     NIONS =     50
   non local maximal  LDIM  =      6   non local SUM 2l+1 LMDIM =     18
   total plane-waves  NPLWV = 241920
   max r-space proj   IRMAX =   6375   max aug-charges    IRDMAX=  15469
   dimension x,y,z NGX =    42 NGY =   80 NGZ =   72
   dimension x,y,z NGXF=    84 NGYF=  160 NGZF=  144
   support grid    NGXF=    84 NGYF=  160 NGZF=  144
   ions per type =               2  16  32
   NGX,Y,Z   is equivalent  to a cutoff of  12.55, 13.21, 12.33 a.u.
   NGXF,Y,Z  is equivalent  to a cutoff of  25.09, 26.43, 24.67 a.u.

 SYSTEM =  unknown system                          
 POSCAR =  ce17472_1                               

 Startparameter for this run:
   NWRITE =      1    write-flag & timer
   PREC   = accura    normal or accurate (medium, high low for compatibility)
   ISTART =      0    job   : 0-new  1-cont  2-samecut
   ICHARG =      2    charge: 1-file 2-atom 10-const
   ISPIN  =      2    spin polarized calculation?
   LNONCOLLINEAR =      F non collinear calculations
   LSORBIT =      F    spin-orbit coupling
   INIWAV =      1    electr: 0-lowe 1-rand  2-diag
   LASPH  =      F    aspherical Exc in radial PAW
   METAGGA=      F    non-selfconsistent MetaGGA calc.

 Electronic Relaxation 1
   ENCUT  =  500.0 eV  36.75 Ry    6.06 a.u.  10.15 18.35 17.69*2*pi/ulx,y,z
   ENINI  =  500.0     initial cutoff
   ENAUG  =  628.9 eV  augmentation charge cutoff
   NELM   =     80;   NELMIN=  2; NELMDL= -5     # of ELM steps 
   EDIFF  = 0.1E-04   stopping-criterion for ELM
   LREAL  =      T    real-space projection
   NLSPLINE    = F    spline interpolate recip. space projectors
   LCOMPAT=      F    compatible to vasp.4.4
   GGA_COMPAT  = T    GGA compatible to vasp.4.4-vasp.4.6
   LMAXPAW     = -100 max onsite density
   LMAXMIX     =    2 max onsite mixed and CHGCAR
   VOSKOWN=      1    Vosko Wilk Nusair interpolation
   ROPT   =   -0.00025  -0.00025  -0.00025
 Ionic relaxation
   EDIFFG = -.2E-01   stopping-criterion for IOM
   NSW    =     20    number of steps for IOM
   NBLOCK =      1;   KBLOCK =     20    inner block; outer block 
   IBRION =      1    ionic relax: 0-MD 1-quasi-New 2-CG
   NFREE  =      0    steps in history (QN), initial steepest desc. (CG)
   ISIF   =      3    stress and relaxation
   IWAVPR =     11    prediction:  0-non 1-charg 2-wave 3-comb
   ISYM   =      2    0-nonsym 1-usesym 2-fastsym
   LCORR  =      T    Harris-Foulkes like correction to forces

   POTIM  = 0.5000    time-step for ionic-motion
   TEIN   =    0.0    initial temperature
   TEBEG  =    0.0;   TEEND  =   0.0 temperature during run
   SMASS  =  -3.00    Nose mass-parameter (am)
   estimated Nose-frequenzy (Omega)   =  0.10E-29 period in steps =****** mass=  -0.708E-27a.u.
   SCALEE = 1.0000    scale energy and forces
   NPACO  =    256;   APACO  = 16.0  distance and # of slots for P.C.
   PSTRESS=    0.0 pullay stress

  Mass of Ions in am
   POMASS =   7.01 58.69 16.00
  Ionic Valenz
   ZVAL   =   3.00 10.00  6.00
  Atomic Wigner-Seitz radii
   RWIGS  =   1.23  1.15  0.73
  virtual crystal weights 
   VCA    =   1.00  1.00  1.00
   NELECT =     358.0000    total number of electrons
   NUPDOWN=      -1.0000    fix difference up-down

 DOS related values:
   EMIN   =  10.00;   EMAX   =-10.00  energy-range for DOS
   EFERMI =   0.00
   ISMEAR =     0;   SIGMA  =   0.05  broadening in eV -4-tet -1-fermi 0-gaus

 Electronic relaxation 2 (details)
   IALGO  =     38    algorithm
   LDIAG  =      T    sub-space diagonalisation (order eigenvalues)
   LSUBROT=      F    optimize rotation matrix (better conditioning)
   TURBO    =      0    0=normal 1=particle mesh
   IRESTART =      0    0=no restart 2=restart with 2 vectors
   NREBOOT  =      0    no. of reboots
   NMIN     =      0    reboot dimension
   EREF     =   0.00    reference energy to select bands
   IMIX   =      4    mixing-type and parameters
     AMIX     =   0.40;   BMIX     =  1.00
     AMIX_MAG =   1.60;   BMIX_MAG =  1.00
     AMIN     =   0.10
     WC   =   100.;   INIMIX=   1;  MIXPRE=   1;  MAXMIX= -45

 Intra band minimization:
   WEIMIN = 0.0010     energy-eigenvalue tresh-hold
   EBREAK =  0.10E-07  absolut break condition
   DEPER  =   0.30     relativ break condition  

   TIME   =   0.40     timestep for ELM

  volume/ion in A,a.u.               =      10.27        69.30
  Fermi-wavevector in a.u.,A,eV,Ry     =   1.451639  2.743200 28.670962  2.107256
  Thomas-Fermi vector in A             =   2.569113
 
 Write flags
   LWAVE        =      F    write WAVECAR
   LDOWNSAMPLE  =      F    k-point downsampling of WAVECAR
   LCHARG       =      T    write CHGCAR
   LVTOT        =      F    write LOCPOT, total local potential
   LVHAR        =      F    write LOCPOT, Hartree potential only
   LELF         =      F    write electronic localiz. function (ELF)
   LORBIT       =      0    0 simple, 1 ext, 2 COOP (PROOUT), +10 PAW based schemes


 Dipole corrections
   LMONO  =      F    monopole corrections only (constant potential shift)
   LDIPOL =      F    correct potential (dipole corrections)
   IDIPOL =      0    1-x, 2-y, 3-z, 4-all directions 
   EPSILON=  1.0000000 bulk dielectric constant

 Exchange correlation treatment:
   GGA     =    PS    GGA type
   LEXCH   =    14    internal setting for exchange type
   VOSKOWN=      1    Vosko Wilk Nusair interpolation
   LHFCALC =     F    Hartree Fock is set to
   LHFONE  =     F    Hartree Fock one center treatment
   AEXX    =    0.0000 exact exchange contribution

 Linear response parameters
   LEPSILON=     F    determine dielectric tensor
   LRPA    =     F    only Hartree local field effects (RPA)
   LNABLA  =     F    use nabla operator in PAW spheres
   LVEL    =     F    velocity operator in full k-point grid
   LINTERFAST=   F  fast interpolation
   KINTER  =     0    interpolate to denser k-point grid
   CSHIFT  =0.1000    complex shift for real part using Kramers Kronig
   OMEGAMAX=  -1.0    maximum frequency
   DEG_THRESHOLD= 0.2000000E-02 threshold for treating states as degnerate
   RTIME   =   -0.100 relaxation time in fs
  (WPLASMAI=    0.000 imaginary part of plasma frequency in eV, 0.658/RTIME)
   DFIELD  = 0.0000000 0.0000000 0.0000000 field for delta impulse in time
 
 Orbital magnetization related:
   ORBITALMAG=     F  switch on orbital magnetization
   LCHIMAG   =     F  perturbation theory with respect to B field
   DQ        =  0.001000  dq finite difference perturbation B field
   LLRAUG    =     F  two centre corrections for induced B field



--------------------------------------------------------------------------------------------------------


 quasi-Newton-method for relaxation of ions
 charge density and potential will be updated during run
 spin polarized calculation
 Variant of blocked Davidson
 Davidson routine will perform the subspace rotation
 perform sub-space diagonalisation
    after iterative eigenvector-optimisation
 modified Broyden-mixing scheme, WC =      100.0
 initial mixing is a Kerker type mixing with AMIX =  0.4000 and BMIX =      1.0000
 Hartree-type preconditioning will be used
 using additional bands           61
 real space projection scheme for non local part
 use partial core corrections
 calculate Harris-corrections to forces 
   (improved forces if not selfconsistent)
 use gradient corrections 
 use of overlap-Matrix (Vanderbilt PP)
 Gauss-broadening in eV      SIGMA  =   0.05


--------------------------------------------------------------------------------------------------------


  energy-cutoff  :      500.00
  volume of cell :      513.49
      direct lattice vectors                 reciprocal lattice vectors
     0.000000000  5.565550742  0.000000000     0.000000000  0.179676738  0.000000000
    -3.453581043  0.000000000  9.453698058    -0.001660192  0.000000000  0.105172218
     9.703409868  0.000000000  0.153172819     0.102465670  0.000000000  0.037432282

  length of vectors
     5.565550742 10.064771681  9.704618744     0.179676738  0.105185320  0.109088905


 
 k-points in units of 2pi/SCALE and weight: Automatic mesh                          
   0.00000000  0.00000000  0.00000000       1.000
 
 k-points in reciprocal lattice and weights: Automatic mesh                          
   0.00000000  0.00000000  0.00000000       1.000
 
 position of ions in fractional coordinates (direct lattice) 
   0.00000000  0.24906664  0.75136852
   0.00000000  0.75093336  0.24863148
   0.00000000  0.00000000  0.00000000
   0.25093920  0.00663927  0.25209226
   0.25093920  0.99336073  0.74790774
   0.74906080  0.99336073  0.74790774
   0.74906080  0.00663927  0.25209226
   0.50000000  0.00000000  0.00000000
   0.00000000  0.00000000  0.50000000
   0.50000000  0.00000000  0.50000000
   0.00000000  0.50000000  0.50000000
   0.25089414  0.50528026  0.75163835
   0.25089414  0.49471974  0.24836165
   0.74910586  0.49471974  0.24836165
   0.74910586  0.50528026  0.75163835
   0.50000000  0.50000000  0.50000000
   0.00000000  0.50000000  0.00000000
   0.50000000  0.50000000  0.00000000
   0.00000000  0.40401011  0.64136691
   0.00000000  0.59598989  0.35863309
   0.00000000  0.10277497  0.36703156
   0.00000000  0.89722503  0.63296844
   0.24804062  0.40280757  0.88482023
   0.24804062  0.59719243  0.11517977
   0.75195938  0.59719243  0.11517977
   0.75195938  0.40280757  0.88482023
   0.24993405  0.09962976  0.11200310
   0.24993405  0.90037024  0.88799690
   0.75006595  0.90037024  0.88799690
   0.75006595  0.09962976  0.11200310
   0.50000000  0.40649205  0.63883342
   0.50000000  0.59350795  0.36116658
   0.50000000  0.10323236  0.36520858
   0.50000000  0.89676764  0.63479142
   0.00000000  0.39836321  0.13363286
   0.00000000  0.60163679  0.86636714
   0.00000000  0.09481998  0.85804385
   0.00000000  0.90518002  0.14195615
   0.24991959  0.40102455  0.38757528
   0.24991959  0.59897545  0.61242472
   0.75008041  0.59897545  0.61242472
   0.75008041  0.40102455  0.38757528
   0.24808500  0.09655417  0.61542647
   0.24808500  0.90344583  0.38457353
   0.75191500  0.90344583  0.38457353
   0.75191500  0.09655417  0.61542647
   0.50000000  0.39793945  0.13541476
   0.50000000  0.60206055  0.86458524
   0.50000000  0.09244934  0.86040663
   0.50000000  0.90755066  0.13959337
 
 position of ions in cartesian coordinates  (Angst):
   6.43066488  0.00000000  2.46969005
  -0.18083606  0.00000000  7.13718083
   0.00000000  0.00000000  0.00000000
   2.42322527  1.39661485  0.10137934
   3.82660356  1.39661485  9.50549154
   3.82660356  4.16893589  9.50549154
   2.42322527  4.16893589  0.10137934
   0.00000000  2.78277537  0.00000000
   4.85170493  0.00000000  0.07658641
   4.85170493  2.78277537  0.07658641
   3.12491441  0.00000000  4.80343544
   5.54842865  1.39636407  4.89189758
   0.70140017  1.39636407  4.71497330
   0.70140017  4.16918667  4.71497330
   5.54842865  4.16918667  4.89189758
   3.12491441  2.78277537  4.80343544
  -1.72679052  0.00000000  4.72684903
  -1.72679052  2.78277537  4.72684903
   4.82816435  0.00000000  3.91762957
   1.42166448  0.00000000  5.68924131
   3.20651597  0.00000000  1.02782279
   3.04331285  0.00000000  8.57904808
   7.19464476  1.38048266  3.94355155
  -0.94481594  1.38048266  5.66331933
  -0.94481594  4.18506809  5.66331933
   7.19464476  4.18506809  3.94355155
   0.74273254  1.39102064  0.95902550
   5.50709629  1.39102064  8.64784538
   5.50709629  4.17453010  8.64784538
   0.74273254  4.17453010  0.95902550
   4.79500927  2.78277537  3.94070502
   1.45481955  2.78277537  5.66616586
   3.18724722  2.78277537  1.03186759
   3.06258161  2.78277537  8.57500329
  -0.07908522  0.00000000  3.78647443
   6.32891404  0.00000000  5.82039645
   7.99848268  0.00000000  1.02782846
  -1.74865385  0.00000000  8.57904242
   2.37583101  1.39094016  3.85053101
   3.87399781  1.39094016  5.75633987
   3.87399781  4.17461058  5.75633987
   2.37583101  4.17461058  3.85053101
   5.63827763  1.38072966  1.00706058
   0.61155119  1.38072966  8.59981030
   0.61155119  4.18482109  8.59981030
   5.63827763  4.18482109  1.00706058
  -0.06033122  2.78277537  3.78274127
   6.31016005  2.78277537  5.82412961
   8.02959690  2.78277537  1.00577906
  -1.77976807  2.78277537  8.60109182
 


--------------------------------------------------------------------------------------------------------


 use serial FFT for orbitals x direction half grid
 k-point  1 :   0.0000 0.0000 0.0000  plane waves:    6507

 maximum and minimum number of plane-waves per node :      6507     6507

 maximum number of plane-waves:      6507
 maximum index in each direction: 
   IXMAX=   10   IYMAX=   18   IZMAX=   17
   IXMIN=    0   IYMIN=  -18   IZMIN=  -17

 The following grids will avoid any aliasing or wrap around errors in the Hartre
 e energy
  - symmetry arguments have not been applied
  - exchange correlation energies might require even more grid points
  - we recommend to set PREC=Normal or Accurate and rely on VASP defaults
 NGX is ok and might be reduce to    42
 NGY is ok and might be reduce to    80
 NGZ is ok and might be reduce to    70

 serial   3D FFT for wavefunctions
 parallel 3D FFT for charge:
    minimum data exchange during FFTs selected (reduces bandwidth)


 total amount of memory used by VASP MPI-rank0    92861. kBytes
=======================================================================

   base      :      30000. kBytes
   nonlr-proj:      21516. kBytes
   fftplans  :       5544. kBytes
   grid      :      31764. kBytes
   one-center:        777. kBytes
   wavefun   :       3260. kBytes
 
     INWAV:  cpu time    0.0000: real time    0.0000
 Broyden mixing: mesh for mixing (old mesh)
   NGX = 21   NGY = 37   NGZ = 35
  (NGX  = 84   NGY  =160   NGZ  =144)
  gives a total of  27195 points

 initial charge density was supplied:
 charge density of overlapping atoms calculated
 number of electron     358.0000000 magnetization      40.0000000
 keeping initial charge density in first step


--------------------------------------------------------------------------------------------------------


 Maximum index for non-local projection operator         6173
 Maximum index for augmentation-charges         1444 (set IRDMAX)


--------------------------------------------------------------------------------------------------------


 First call to EWALD:  gamma=   0.221
 Maximum number of real-space cells 4x 2x 2
 Maximum number of reciprocal cells 2x 3x 3

    FEWALD:  cpu time    0.0022: real time    0.0023


--------------------------------------- Iteration      1(   1)  ---------------------------------------


    POTLOK:  cpu time    0.1636: real time    0.1664
    SETDIJ:  cpu time    0.0199: real time    0.0199
     EDDAV:  cpu time    1.5382: real time    1.5419
    --------------------------------------------
      LOOP:  cpu time    1.7222: real time    1.7288

 eigenvalue-minimisations  :   960
 total energy-change (2. order) : 0.6345840E+04  (-0.1600516E+05)
 number of electron     358.0000000 magnetization      40.0000000
 augmentation part      358.0000000 magnetization      40.0000000

 Free energy of the ion-electron system (eV)
  ---------------------------------------------------
  alpha Z        PSCENC =      1096.28165702
  Ewald energy   TEWEN  =    -19786.77961367
  -Hartree energ DENC   =    -12388.82103178
  -exchange      EXHF   =         0.00000000
  -V(xc)+E(xc)   XCENC  =      1450.12204761
  PAW double counting   =     26623.38945734   -27769.50388409
  entropy T*S    EENTRO =        -0.00220905
  eigenvalues    EBANDS =      5705.44676462
  atomic energy  EATOM  =     31415.70703490
  Solvation  Ediel_sol  =         0.00000000
  ---------------------------------------------------
  free energy    TOTEN  =      6345.84022290 eV

  energy without entropy =     6345.84243195  energy(sigma->0) =     6345.84132742


--------------------------------------------------------------------------------------------------------




--------------------------------------- Iteration      1(   2)  ---------------------------------------


     EDDAV:  cpu time    1.6154: real time    1.6193
    --------------------------------------------
      LOOP:  cpu time    1.6152: real time    1.6190

 eigenvalue-minimisations  :  1008
 total energy-change (2. order) :-0.5097867E+04  (-0.4581455E+04)
 number of electron     358.0000000 magnetization      40.0000000
 augmentation part      358.0000000 magnetization      40.0000000

 Free energy of the ion-electron system (eV)
  ---------------------------------------------------
  alpha Z        PSCENC =      1096.28165702
  Ewald energy   TEWEN  =    -19786.77961367
  -Hartree energ DENC   =    -12388.82103178
  -exchange      EXHF   =         0.00000000
  -V(xc)+E(xc)   XCENC  =      1450.12204761
  PAW double counting   =     26623.38945734   -27769.50388409
  entropy T*S    EENTRO =        -0.01658492
  eigenvalues    EBANDS =       607.59441748
  atomic energy  EATOM  =     31415.70703490
  Solvation  Ediel_sol  =         0.00000000
  ---------------------------------------------------
  free energy    TOTEN  =      1247.97349989 eV

  energy without entropy =     1247.99008481  energy(sigma->0) =     1247.98179235


--------------------------------------------------------------------------------------------------------




--------------------------------------- Iteration      1(   3)  ---------------------------------------


     EDDAV:  cpu time    1.7716: real time    1.7758
    --------------------------------------------
      LOOP:  cpu time    1.7716: real time    1.7759

 eigenvalue-minimisations  :  1120
 total energy-change (2. order) :-0.1448007E+04  (-0.1186274E+04)
 number of electron     358.0000000 magnetization      40.0000000
 augmentation part      358.0000000 magnetization      40.0000000

 Free energy of the ion-electron system (eV)
  ---------------------------------------------------
  alpha Z        PSCENC =      1096.28165702
  Ewald energy   TEWEN  =    -19786.77961367
  -Hartree energ DENC   =    -12388.82103178
  -exchange      EXHF   =         0.00000000
  -V(xc)+E(xc)   XCENC  =      1450.12204761
  PAW double counting   =     26623.38945734   -27769.50388409
  entropy T*S    EENTRO =        -0.06870756
  eigenvalues    EBANDS =      -840.36075216
  atomic energy  EATOM  =     31415.70703490
  Solvation  Ediel_sol  =         0.00000000
  ---------------------------------------------------
  free energy    TOTEN  =      -200.03379240 eV

  energy without entropy =     -199.96508484  energy(sigma->0) =     -199.99943862


--------------------------------------------------------------------------------------------------------




--------------------------------------- Iteration      1(   4)  ---------------------------------------


     EDDAV:  cpu time    1.7972: real time    1.8015
    --------------------------------------------
      LOOP:  cpu time    1.7972: real time    1.8014

 eigenvalue-minimisations  :  1184
 total energy-change (2. order) :-0.2156836E+03  (-0.2089621E+03)
 number of electron     358.0000000 magnetization      40.0000000
 augmentation part      358.0000000 magnetization      40.0000000

 Free energy of the ion-electron system (eV)
  ---------------------------------------------------
  alpha Z        PSCENC =      1096.28165702
  Ewald energy   TEWEN  =    -19786.77961367
  -Hartree energ DENC   =    -12388.82103178
  -exchange      EXHF   =         0.00000000
  -V(xc)+E(xc)   XCENC  =      1450.12204761
  PAW double counting   =     26623.38945734   -27769.50388409
  entropy T*S    EENTRO =        -0.16695831
  eigenvalues    EBANDS =     -1055.94612078
  atomic energy  EATOM  =     31415.70703490
  Solvation  Ediel_sol  =         0.00000000
  ---------------------------------------------------
  free energy    TOTEN  =      -415.71741176 eV

  energy without entropy =     -415.55045345  energy(sigma->0) =     -415.63393260


--------------------------------------------------------------------------------------------------------




--------------------------------------- Iteration      1(   5)  ---------------------------------------


     EDDAV:  cpu time    1.9423: real time    1.9470
    CHARGE:  cpu time    0.1373: real time    0.1376
    MIXING:  cpu time    0.0030: real time    0.0031
    --------------------------------------------
      LOOP:  cpu time    2.0824: real time    2.0874

 eigenvalue-minimisations  :  1264
 total energy-change (2. order) :-0.6907350E+01  (-0.6858955E+01)
 number of electron     357.9999840 magnetization      35.3027602
 augmentation part      103.4693542 magnetization      28.4102527

 Broyden mixing:
  rms(total) = 0.12128E+02    rms(broyden)= 0.12126E+02
  rms(prec ) = 0.14785E+02
  weight for this iteration     100.00

 Free energy of the ion-electron system (eV)
  ---------------------------------------------------
  alpha Z        PSCENC =      1096.28165702
  Ewald energy   TEWEN  =    -19786.77961367
  -Hartree energ DENC   =    -12388.82103178
  -exchange      EXHF   =         0.00000000
  -V(xc)+E(xc)   XCENC  =      1450.12204761
  PAW double counting   =     26623.38945734   -27769.50388409
  entropy T*S    EENTRO =        -0.17095829
  eigenvalues    EBANDS =     -1062.84947049
  atomic energy  EATOM  =     31415.70703490
  Solvation  Ediel_sol  =         0.00000000
  ---------------------------------------------------
  free energy    TOTEN  =      -422.62476145 eV

  energy without entropy =     -422.45380316  energy(sigma->0) =     -422.53928230


--------------------------------------------------------------------------------------------------------




--------------------------------------- Iteration      1(   6)  ---------------------------------------


    POTLOK:  cpu time    0.1404: real time    0.1407
    SETDIJ:  cpu time    0.0203: real time    0.0203
     EDDAV:  cpu time    2.0487: real time    2.0535
    CHARGE:  cpu time    0.1297: real time    0.1300
    MIXING:  cpu time    0.0037: real time    0.0037
    --------------------------------------------
      LOOP:  cpu time    2.3427: real time    2.3483

 eigenvalue-minimisations  :  1408
 total energy-change (2. order) :-0.1011895E+03  (-0.1184219E+03)
 number of electron     357.9999905 magnetization      31.4212573
 augmentation part      135.4408215 magnetization      27.5925686

 Broyden mixing:
  rms(total) = 0.22121E+02    rms(broyden)= 0.22120E+02
  rms(prec ) = 0.24669E+02
  weight for this iteration     100.00

 eigenvalues of (default mixing * dielectric matrix)
  average eigenvalue GAMMA=   0.1760
  0.1760

 Free energy of the ion-electron system (eV)
  ---------------------------------------------------
  alpha Z        PSCENC =      1096.28165702
  Ewald energy   TEWEN  =    -19786.77961367
  -Hartree energ DENC   =    -11800.60437533
  -exchange      EXHF   =         0.00000000
  -V(xc)+E(xc)   XCENC  =      1447.69698102
  PAW double counting   =     29586.46179065   -30549.55865462
  entropy T*S    EENTRO =        -0.06985825
  eigenvalues    EBANDS =     -1932.94922911
  atomic energy  EATOM  =     31415.70703490
  Solvation  Ediel_sol  =         0.00000000
  ---------------------------------------------------
  free energy    TOTEN  =      -523.81426740 eV

  energy without entropy =     -523.74440915  energy(sigma->0) =     -523.77933828


--------------------------------------------------------------------------------------------------------




--------------------------------------- Iteration      1(   7)  ---------------------------------------


    POTLOK:  cpu time    0.1439: real time    0.1443
    SETDIJ:  cpu time    0.0208: real time    0.0208
     EDDAV:  cpu time    1.9683: real time    1.9730
    CHARGE:  cpu time    0.1235: real time    0.1238
    MIXING:  cpu time    0.0033: real time    0.0033
    --------------------------------------------
      LOOP:  cpu time    2.2599: real time    2.2652

 eigenvalue-minimisations  :  1312
 total energy-change (2. order) : 0.1572487E+03  (-0.3128095E+02)
 number of electron     357.9999871 magnetization      24.6835002
 augmentation part      129.5278487 magnetization      22.9254544

 Broyden mixing:
  rms(total) = 0.91250E+01    rms(broyden)= 0.91236E+01
  rms(prec ) = 0.11095E+02
  weight for this iteration     100.00

 eigenvalues of (default mixing * dielectric matrix)
  average eigenvalue GAMMA=   0.4857
  0.4857  0.4857

 Free energy of the ion-electron system (eV)
  ---------------------------------------------------
  alpha Z        PSCENC =      1096.28165702
  Ewald energy   TEWEN  =    -19786.77961367
  -Hartree energ DENC   =    -11975.59635836
  -exchange      EXHF   =         0.00000000
  -V(xc)+E(xc)   XCENC  =      1444.27274814
  PAW double counting   =     30727.28209151   -31796.60033380
  entropy T*S    EENTRO =        -0.03689906
  eigenvalues    EBANDS =     -1491.09593062
  atomic energy  EATOM  =     31415.70703490
  Solvation  Ediel_sol  =         0.00000000
  ---------------------------------------------------
  free energy    TOTEN  =      -366.56560394 eV

  energy without entropy =     -366.52870488  energy(sigma->0) =     -366.54715441


--------------------------------------------------------------------------------------------------------




--------------------------------------- Iteration      1(   8)  ---------------------------------------


    POTLOK:  cpu time    0.1405: real time    0.1408
    SETDIJ:  cpu time    0.0207: real time    0.0207
     EDDAV:  cpu time    2.1289: real time    2.1339
    CHARGE:  cpu time    0.1320: real time    0.1323
    MIXING:  cpu time    0.0035: real time    0.0035
    --------------------------------------------
      LOOP:  cpu time    2.4255: real time    2.4312

 eigenvalue-minimisations  :  1456
 total energy-change (2. order) :-0.1815087E+02  (-0.3152150E+02)
 number of electron     357.9999899 magnetization      19.9914472
 augmentation part      115.6493175 magnetization      19.8424472

 Broyden mixing:
  rms(total) = 0.11580E+02    rms(broyden)= 0.11579E+02
  rms(prec ) = 0.17419E+02
  weight for this iteration     100.00

 eigenvalues of (default mixing * dielectric matrix)
  average eigenvalue GAMMA=   0.4805
  0.6101  0.6101  0.2214

 Free energy of the ion-electron system (eV)
  ---------------------------------------------------
  alpha Z        PSCENC =      1096.28165702
  Ewald energy   TEWEN  =    -19786.77961367
  -Hartree energ DENC   =    -12144.95386790
  -exchange      EXHF   =         0.00000000
  -V(xc)+E(xc)   XCENC  =      1441.25481504
  PAW double counting   =     31942.41068249   -33116.70513878
  entropy T*S    EENTRO =        -0.01032874
  eigenvalues    EBANDS =     -1231.92171857
  atomic energy  EATOM  =     31415.70703490
  Solvation  Ediel_sol  =         0.00000000
  ---------------------------------------------------
  free energy    TOTEN  =      -384.71647822 eV

  energy without entropy =     -384.70614948  energy(sigma->0) =     -384.71131385


--------------------------------------------------------------------------------------------------------




--------------------------------------- Iteration      1(   9)  ---------------------------------------


    POTLOK:  cpu time    0.1388: real time    0.1391
    SETDIJ:  cpu time    0.0207: real time    0.0207
     EDDAV:  cpu time    1.9643: real time    1.9690
    CHARGE:  cpu time    0.1391: real time    0.1394
    MIXING:  cpu time    0.0036: real time    0.0036
    --------------------------------------------
      LOOP:  cpu time    2.2665: real time    2.2719

 eigenvalue-minimisations  :  1264
 total energy-change (2. order) : 0.1710431E+02  (-0.1492292E+02)
 number of electron     357.9999872 magnetization      15.9036183
 augmentation part      113.3918571 magnetization      11.9438927

 Broyden mixing:
  rms(total) = 0.11767E+02    rms(broyden)= 0.11767E+02
  rms(prec ) = 0.15920E+02
  weight for this iteration     100.00

 eigenvalues of (default mixing * dielectric matrix)
  average eigenvalue GAMMA=   0.4381
  0.8478  0.4326  0.3535  0.1184

 Free energy of the ion-electron system (eV)
  ---------------------------------------------------
  alpha Z        PSCENC =      1096.28165702
  Ewald energy   TEWEN  =    -19786.77961367
  -Hartree energ DENC   =    -12105.50680875
  -exchange      EXHF   =         0.00000000
  -V(xc)+E(xc)   XCENC  =      1439.68088645
  PAW double counting   =     32547.77190550   -33725.49616343
  entropy T*S    EENTRO =        -0.04783818
  eigenvalues    EBANDS =     -1249.22323035
  atomic energy  EATOM  =     31415.70703490
  Solvation  Ediel_sol  =         0.00000000
  ---------------------------------------------------
  free energy    TOTEN  =      -367.61217052 eV

  energy without entropy =     -367.56433234  energy(sigma->0) =     -367.58825143


--------------------------------------------------------------------------------------------------------




--------------------------------------- Iteration      1(  10)  ---------------------------------------


    POTLOK:  cpu time    0.1449: real time    0.1452
    SETDIJ:  cpu time    0.0206: real time    0.0207
     EDDAV:  cpu time    1.9521: real time    1.9567
    CHARGE:  cpu time    0.1390: real time    0.1394
    MIXING:  cpu time    0.0037: real time    0.0037
    --------------------------------------------
      LOOP:  cpu time    2.2602: real time    2.2656

 eigenvalue-minimisations  :  1232
 total energy-change (2. order) : 0.2028416E+02  (-0.1720217E+02)
 number of electron     357.9999883 magnetization      13.4577337
 augmentation part      113.8738938 magnetization      11.8237332

 Broyden mixing:
  rms(total) = 0.75769E+01    rms(broyden)= 0.75760E+01
  rms(prec ) = 0.98765E+01
  weight for this iteration     100.00

 eigenvalues of (default mixing * dielectric matrix)
  average eigenvalue GAMMA=   0.4049
  0.9675  0.3823  0.3823  0.1463  0.1463

 Free energy of the ion-electron system (eV)
  ---------------------------------------------------
  alpha Z        PSCENC =      1096.28165702
  Ewald energy   TEWEN  =    -19786.77961367
  -Hartree energ DENC   =    -12090.12897047
  -exchange      EXHF   =         0.00000000
  -V(xc)+E(xc)   XCENC  =      1438.62489107
  PAW double counting   =     33421.43020268   -34618.92141558
  entropy T*S    EENTRO =        -0.03617963
  eigenvalues    EBANDS =     -1223.50562095
  atomic energy  EATOM  =     31415.70703490
  Solvation  Ediel_sol  =         0.00000000
  ---------------------------------------------------
  free energy    TOTEN  =      -347.32801464 eV

  energy without entropy =     -347.29183501  energy(sigma->0) =     -347.30992482


--------------------------------------------------------------------------------------------------------




--------------------------------------- Iteration      1(  11)  ---------------------------------------


    POTLOK:  cpu time    0.1460: real time    0.1464
    SETDIJ:  cpu time    0.0213: real time    0.0213
     EDDAV:  cpu time    2.0125: real time    2.0173
    CHARGE:  cpu time    0.1379: real time    0.1382
    MIXING:  cpu time    0.0040: real time    0.0040
    --------------------------------------------
      LOOP:  cpu time    2.3217: real time    2.3272

 eigenvalue-minimisations  :  1264
 total energy-change (2. order) : 0.2426071E+02  (-0.3455148E+01)
 number of electron     357.9999887 magnetization      11.0598165
 augmentation part      116.2644608 magnetization       9.9246660

 Broyden mixing:
  rms(total) = 0.36657E+01    rms(broyden)= 0.36649E+01
  rms(prec ) = 0.47472E+01
  weight for this iteration     100.00

 eigenvalues of (default mixing * dielectric matrix)
  average eigenvalue GAMMA=   0.4492
  0.9747  0.6783  0.3551  0.3551  0.2154  0.1163

 Free energy of the ion-electron system (eV)
  ---------------------------------------------------
  alpha Z        PSCENC =      1096.28165702
  Ewald energy   TEWEN  =    -19786.77961367
  -Hartree energ DENC   =    -12068.14876878
  -exchange      EXHF   =         0.00000000
  -V(xc)+E(xc)   XCENC  =      1437.76868634
  PAW double counting   =     33870.57823367   -35073.47031443
  entropy T*S    EENTRO =        -0.01253569
  eigenvalues    EBANDS =     -1214.99168889
  atomic energy  EATOM  =     31415.70703490
  Solvation  Ediel_sol  =         0.00000000
  ---------------------------------------------------
  free energy    TOTEN  =      -323.06730953 eV

  energy without entropy =     -323.05477384  energy(sigma->0) =     -323.06104168


--------------------------------------------------------------------------------------------------------




--------------------------------------- Iteration      1(  12)  ---------------------------------------


    POTLOK:  cpu time    0.1463: real time    0.1467
    SETDIJ:  cpu time    0.0215: real time    0.0215
     EDDAV:  cpu time    1.8775: real time    1.8820
    CHARGE:  cpu time    0.1379: real time    0.1382
    MIXING:  cpu time    0.0046: real time    0.0046
    --------------------------------------------
      LOOP:  cpu time    2.1878: real time    2.1930

 eigenvalue-minimisations  :  1168
 total energy-change (2. order) : 0.3499241E+01  (-0.3317075E+01)
 number of electron     357.9999872 magnetization       9.2011849
 augmentation part      115.4986759 magnetization       8.0123900

 Broyden mixing:
  rms(total) = 0.53502E+01    rms(broyden)= 0.53495E+01
  rms(prec ) = 0.69546E+01
  weight for this iteration     100.00

 eigenvalues of (default mixing * dielectric matrix)
  average eigenvalue GAMMA=   0.4301
  1.1248  0.5850  0.3657  0.3657  0.2889  0.1559  0.1244

 Free energy of the ion-electron system (eV)
  ---------------------------------------------------
  alpha Z        PSCENC =      1096.28165702
  Ewald energy   TEWEN  =    -19786.77961367
  -Hartree energ DENC   =    -12076.11145624
  -exchange      EXHF   =         0.00000000
  -V(xc)+E(xc)   XCENC  =      1437.42496655
  PAW double counting   =     34080.65364732   -35283.66402966
  entropy T*S    EENTRO =        -0.02738455
  eigenvalues    EBANDS =     -1203.05289020
  atomic energy  EATOM  =     31415.70703490
  Solvation  Ediel_sol  =         0.00000000
  ---------------------------------------------------
  free energy    TOTEN  =      -319.56806854 eV

  energy without entropy =     -319.54068399  energy(sigma->0) =     -319.55437627


--------------------------------------------------------------------------------------------------------




--------------------------------------- Iteration      1(  13)  ---------------------------------------


    POTLOK:  cpu time    0.1454: real time    0.1458
    SETDIJ:  cpu time    0.0211: real time    0.0211
     EDDAV:  cpu time    2.0744: real time    2.0793
    CHARGE:  cpu time    0.1391: real time    0.1394
    MIXING:  cpu time    0.0042: real time    0.0042
    --------------------------------------------
      LOOP:  cpu time    2.3842: real time    2.3898

 eigenvalue-minimisations  :  1312
 total energy-change (2. order) : 0.6141600E+01  (-0.8048134E+01)
 number of electron     357.9999878 magnetization       7.1735697
 augmentation part      116.6764594 magnetization       6.7002748

 Broyden mixing:
  rms(total) = 0.18504E+01    rms(broyden)= 0.18498E+01
  rms(prec ) = 0.23109E+01
  weight for this iteration     100.00

 eigenvalues of (default mixing * dielectric matrix)
  average eigenvalue GAMMA=   0.4237
  0.8683  0.7132  0.4470  0.4470  0.4105  0.2227  0.1213  0.1601

 Free energy of the ion-electron system (eV)
  ---------------------------------------------------
  alpha Z        PSCENC =      1096.28165702
  Ewald energy   TEWEN  =    -19786.77961367
  -Hartree energ DENC   =    -12068.80803922
  -exchange      EXHF   =         0.00000000
  -V(xc)+E(xc)   XCENC  =      1437.03867223
  PAW double counting   =     34323.92731570   -35526.12517243
  entropy T*S    EENTRO =        -0.00898058
  eigenvalues    EBANDS =     -1204.65934227
  atomic energy  EATOM  =     31415.70703490
  Solvation  Ediel_sol  =         0.00000000
  ---------------------------------------------------
  free energy    TOTEN  =      -313.42646832 eV

  energy without entropy =     -313.41748774  energy(sigma->0) =     -313.42197803


--------------------------------------------------------------------------------------------------------




--------------------------------------- Iteration      1(  14)  ---------------------------------------


    POTLOK:  cpu time    0.1461: real time    0.1465
    SETDIJ:  cpu time    0.0215: real time    0.0216
     EDDAV:  cpu time    1.9862: real time    1.9909
    CHARGE:  cpu time    0.1399: real time    0.1402
    MIXING:  cpu time    0.0048: real time    0.0048
    --------------------------------------------
      LOOP:  cpu time    2.2985: real time    2.3040

 eigenvalue-minimisations  :  1232
 total energy-change (2. order) :-0.4113453E+00  (-0.1921915E+01)
 number of electron     357.9999878 magnetization       5.5309907
 augmentation part      117.2310245 magnetization       4.9435484

 Broyden mixing:
  rms(total) = 0.18502E+01    rms(broyden)= 0.18499E+01
  rms(prec ) = 0.22284E+01
  weight for this iteration     100.00

 eigenvalues of (default mixing * dielectric matrix)
  average eigenvalue GAMMA=   0.4381
  0.9380  0.5963  0.5963  0.6325  0.3541  0.3541  0.1973  0.1233  0.1509

 Free energy of the ion-electron system (eV)
  ---------------------------------------------------
  alpha Z        PSCENC =      1096.28165702
  Ewald energy   TEWEN  =    -19786.77961367
  -Hartree energ DENC   =    -12059.69323034
  -exchange      EXHF   =         0.00000000
  -V(xc)+E(xc)   XCENC  =      1436.46763347
  PAW double counting   =     34587.49275927   -35789.55877471
  entropy T*S    EENTRO =        -0.02132722
  eigenvalues    EBANDS =     -1213.73395235
  atomic energy  EATOM  =     31415.70703490
  Solvation  Ediel_sol  =         0.00000000
  ---------------------------------------------------
  free energy    TOTEN  =      -313.83781364 eV

  energy without entropy =     -313.81648642  energy(sigma->0) =     -313.82715003


--------------------------------------------------------------------------------------------------------




--------------------------------------- Iteration      1(  15)  ---------------------------------------


    POTLOK:  cpu time    0.1448: real time    0.1452
    SETDIJ:  cpu time    0.0214: real time    0.0215
     EDDAV:  cpu time    1.9659: real time    1.9705
    CHARGE:  cpu time    0.1362: real time    0.1365
    MIXING:  cpu time    0.0046: real time    0.0046
    --------------------------------------------
      LOOP:  cpu time    2.2730: real time    2.2783

 eigenvalue-minimisations  :  1184
 total energy-change (2. order) : 0.2221566E+00  (-0.5957451E+00)
 number of electron     357.9999879 magnetization       4.0880850
 augmentation part      117.3303640 magnetization       3.5953351

 Broyden mixing:
  rms(total) = 0.11496E+01    rms(broyden)= 0.11493E+01
  rms(prec ) = 0.13770E+01
  weight for this iteration     100.00

 eigenvalues of (default mixing * dielectric matrix)
  average eigenvalue GAMMA=   0.5011
  1.2823  0.8461  0.8461  0.5420  0.3923  0.3923  0.2452  0.1228  0.1855  0.1562

 Free energy of the ion-electron system (eV)
  ---------------------------------------------------
  alpha Z        PSCENC =      1096.28165702
  Ewald energy   TEWEN  =    -19786.77961367
  -Hartree energ DENC   =    -12055.54542820
  -exchange      EXHF   =         0.00000000
  -V(xc)+E(xc)   XCENC  =      1436.01239417
  PAW double counting   =     34815.79544968   -36018.43045523
  entropy T*S    EENTRO =        -0.01965248
  eigenvalues    EBANDS =     -1216.63704325
  atomic energy  EATOM  =     31415.70703490
  Solvation  Ediel_sol  =         0.00000000
  ---------------------------------------------------
  free energy    TOTEN  =      -313.61565706 eV

  energy without entropy =     -313.59600458  energy(sigma->0) =     -313.60583082


--------------------------------------------------------------------------------------------------------




--------------------------------------- Iteration      1(  16)  ---------------------------------------


    POTLOK:  cpu time    0.1407: real time    0.1410
    SETDIJ:  cpu time    0.0208: real time    0.0209
     EDDAV:  cpu time    1.8032: real time    1.8075
    CHARGE:  cpu time    0.1386: real time    0.1389
    MIXING:  cpu time    0.0050: real time    0.0050
    --------------------------------------------
      LOOP:  cpu time    2.1083: real time    2.1132

 eigenvalue-minimisations  :  1056
 total energy-change (2. order) :-0.5854782E+00  (-0.4501759E+00)
 number of electron     357.9999878 magnetization       3.0016114
 augmentation part      117.3141641 magnetization       2.2802377

 Broyden mixing:
  rms(total) = 0.10766E+01    rms(broyden)= 0.10764E+01
  rms(prec ) = 0.13459E+01
  weight for this iteration     100.00

 eigenvalues of (default mixing * dielectric matrix)
  average eigenvalue GAMMA=   0.5261
  1.4420  0.9803  0.9803  0.4649  0.4649  0.3951  0.3951  0.1228  0.2084  0.1599
  0.1729

 Free energy of the ion-electron system (eV)
  ---------------------------------------------------
  alpha Z        PSCENC =      1096.28165702
  Ewald energy   TEWEN  =    -19786.77961367
  -Hartree energ DENC   =    -12054.13693011
  -exchange      EXHF   =         0.00000000
  -V(xc)+E(xc)   XCENC  =      1435.62190069
  PAW double counting   =     35023.88483983   -36227.51463695
  entropy T*S    EENTRO =        -0.03633328
  eigenvalues    EBANDS =     -1217.22905371
  atomic energy  EATOM  =     31415.70703490
  Solvation  Ediel_sol  =         0.00000000
  ---------------------------------------------------
  free energy    TOTEN  =      -314.20113529 eV

  energy without entropy =     -314.16480200  energy(sigma->0) =     -314.18296865


--------------------------------------------------------------------------------------------------------




--------------------------------------- Iteration      1(  17)  ---------------------------------------


    POTLOK:  cpu time    0.1435: real time    0.1438
    SETDIJ:  cpu time    0.0215: real time    0.0216
     EDDAV:  cpu time    1.7770: real time    1.7812
    CHARGE:  cpu time    0.1378: real time    0.1382
    MIXING:  cpu time    0.0055: real time    0.0055
    --------------------------------------------
      LOOP:  cpu time    2.0853: real time    2.0903

 eigenvalue-minimisations  :  1072
 total energy-change (2. order) :-0.2450746E-02  (-0.2262871E+00)
 number of electron     357.9999878 magnetization       2.2778652
 augmentation part      117.5150281 magnetization       1.5228909

 Broyden mixing:
  rms(total) = 0.94808E+00    rms(broyden)= 0.94794E+00
  rms(prec ) = 0.11774E+01
  weight for this iteration     100.00

 eigenvalues of (default mixing * dielectric matrix)
  average eigenvalue GAMMA=   0.5445
  1.5051  1.1267  1.1267  0.5515  0.5515  0.3872  0.3872  0.1228  0.2203  0.2203
  0.1601  0.1743

 Free energy of the ion-electron system (eV)
  ---------------------------------------------------
  alpha Z        PSCENC =      1096.28165702
  Ewald energy   TEWEN  =    -19786.77961367
  -Hartree energ DENC   =    -12049.64848645
  -exchange      EXHF   =         0.00000000
  -V(xc)+E(xc)   XCENC  =      1435.30279804
  PAW double counting   =     35221.42313493   -36425.13671045
  entropy T*S    EENTRO =        -0.02068799
  eigenvalues    EBANDS =     -1221.33271236
  atomic energy  EATOM  =     31415.70703490
  Solvation  Ediel_sol  =         0.00000000
  ---------------------------------------------------
  free energy    TOTEN  =      -314.20358603 eV

  energy without entropy =     -314.18289804  energy(sigma->0) =     -314.19324204


--------------------------------------------------------------------------------------------------------




--------------------------------------- Iteration      1(  18)  ---------------------------------------


    POTLOK:  cpu time    0.1459: real time    0.1462
    SETDIJ:  cpu time    0.0213: real time    0.0214
     EDDAV:  cpu time    1.9887: real time    1.9934
    CHARGE:  cpu time    0.1297: real time    0.1300
    MIXING:  cpu time    0.0049: real time    0.0049
    --------------------------------------------
      LOOP:  cpu time    2.2903: real time    2.2958

 eigenvalue-minimisations  :  1280
 total energy-change (2. order) : 0.2852697E+00  (-0.1185808E+00)
 number of electron     357.9999878 magnetization       1.9213266
 augmentation part      117.6099914 magnetization       1.2584157

 Broyden mixing:
  rms(total) = 0.51406E+00    rms(broyden)= 0.51392E+00
  rms(prec ) = 0.58730E+00
  weight for this iteration     100.00

 eigenvalues of (default mixing * dielectric matrix)
  average eigenvalue GAMMA=   0.5759
  1.6095  1.2638  1.2638  0.6387  0.6387  0.3911  0.3911  0.4015  0.1228  0.2312
  0.1597  0.1733  0.2016

 Free energy of the ion-electron system (eV)
  ---------------------------------------------------
  alpha Z        PSCENC =      1096.28165702
  Ewald energy   TEWEN  =    -19786.77961367
  -Hartree energ DENC   =    -12048.01242622
  -exchange      EXHF   =         0.00000000
  -V(xc)+E(xc)   XCENC  =      1435.17182084
  PAW double counting   =     35404.69393772   -36608.81650455
  entropy T*S    EENTRO =        -0.01448604
  eigenvalues    EBANDS =     -1222.14973629
  atomic energy  EATOM  =     31415.70703490
  Solvation  Ediel_sol  =         0.00000000
  ---------------------------------------------------
  free energy    TOTEN  =      -313.91831629 eV

  energy without entropy =     -313.90383025  energy(sigma->0) =     -313.91107327


--------------------------------------------------------------------------------------------------------




--------------------------------------- Iteration      1(  19)  ---------------------------------------


    POTLOK:  cpu time    0.1373: real time    0.1376
    SETDIJ:  cpu time    0.0203: real time    0.0203
     EDDAV:  cpu time    1.9637: real time    1.9683
    CHARGE:  cpu time    0.1363: real time    0.1366
    MIXING:  cpu time    0.0053: real time    0.0053
    --------------------------------------------
      LOOP:  cpu time    2.2629: real time    2.2682

 eigenvalue-minimisations  :  1312
 total energy-change (2. order) :-0.7124796E-04  (-0.7628943E-01)
 number of electron     357.9999878 magnetization       1.7970959
 augmentation part      117.6791545 magnetization       1.2678508

 Broyden mixing:
  rms(total) = 0.42265E+00    rms(broyden)= 0.42256E+00
  rms(prec ) = 0.49970E+00
  weight for this iteration     100.00

 eigenvalues of (default mixing * dielectric matrix)
  average eigenvalue GAMMA=   0.5607
  1.7293  1.2320  1.2320  0.6577  0.6577  0.3958  0.3958  0.3939  0.2888  0.1228
  0.1596  0.2149  0.1764  0.1932

 Free energy of the ion-electron system (eV)
  ---------------------------------------------------
  alpha Z        PSCENC =      1096.28165702
  Ewald energy   TEWEN  =    -19786.77961367
  -Hartree energ DENC   =    -12048.64108665
  -exchange      EXHF   =         0.00000000
  -V(xc)+E(xc)   XCENC  =      1435.20818044
  PAW double counting   =     35536.49746905   -36740.57935382
  entropy T*S    EENTRO =        -0.01509365
  eigenvalues    EBANDS =     -1221.59758115
  atomic energy  EATOM  =     31415.70703490
  Solvation  Ediel_sol  =         0.00000000
  ---------------------------------------------------
  free energy    TOTEN  =      -313.91838754 eV

  energy without entropy =     -313.90329388  energy(sigma->0) =     -313.91084071


--------------------------------------------------------------------------------------------------------




--------------------------------------- Iteration      1(  20)  ---------------------------------------


    POTLOK:  cpu time    0.1361: real time    0.1365
    SETDIJ:  cpu time    0.0200: real time    0.0201
     EDDAV:  cpu time    1.8467: real time    1.8511
    CHARGE:  cpu time    0.1200: real time    0.1203
    MIXING:  cpu time    0.0052: real time    0.0052
    --------------------------------------------
      LOOP:  cpu time    2.1280: real time    2.1331

 eigenvalue-minimisations  :  1216
 total energy-change (2. order) : 0.4287972E-01  (-0.2871112E-01)
 number of electron     357.9999878 magnetization       1.7440761
 augmentation part      117.7071232 magnetization       1.2041630

 Broyden mixing:
  rms(total) = 0.24010E+00    rms(broyden)= 0.24005E+00
  rms(prec ) = 0.26878E+00
  weight for this iteration     100.00

 eigenvalues of (default mixing * dielectric matrix)
  average eigenvalue GAMMA=   0.5687
  1.8623  1.2274  1.2274  0.6877  0.6877  0.4821  0.4821  0.3855  0.3855  0.1228
  0.2340  0.1599  0.1728  0.2143  0.1985

 Free energy of the ion-electron system (eV)
  ---------------------------------------------------
  alpha Z        PSCENC =      1096.28165702
  Ewald energy   TEWEN  =    -19786.77961367
  -Hartree energ DENC   =    -12049.42882961
  -exchange      EXHF   =         0.00000000
  -V(xc)+E(xc)   XCENC  =      1435.25372305
  PAW double counting   =     35581.64913812   -36785.58863960
  entropy T*S    EENTRO =        -0.00955183
  eigenvalues    EBANDS =     -1220.96042620
  atomic energy  EATOM  =     31415.70703490
  Solvation  Ediel_sol  =         0.00000000
  ---------------------------------------------------
  free energy    TOTEN  =      -313.87550782 eV

  energy without entropy =     -313.86595598  energy(sigma->0) =     -313.87073190


--------------------------------------------------------------------------------------------------------




--------------------------------------- Iteration      1(  21)  ---------------------------------------


    POTLOK:  cpu time    0.1432: real time    0.1436
    SETDIJ:  cpu time    0.0212: real time    0.0213
     EDDAV:  cpu time    1.7504: real time    1.7546
    CHARGE:  cpu time    0.1376: real time    0.1379
    MIXING:  cpu time    0.0060: real time    0.0060
    --------------------------------------------
      LOOP:  cpu time    2.0585: real time    2.0633

 eigenvalue-minimisations  :  1120
 total energy-change (2. order) :-0.5956950E-02  (-0.1613611E-01)
 number of electron     357.9999878 magnetization       1.6948684
 augmentation part      117.7234298 magnetization       1.1539360

 Broyden mixing:
  rms(total) = 0.23986E+00    rms(broyden)= 0.23983E+00
  rms(prec ) = 0.28136E+00
  weight for this iteration     100.00

 eigenvalues of (default mixing * dielectric matrix)
  average eigenvalue GAMMA=   0.5969
  2.2779  1.1814  1.1814  0.8257  0.8257  0.5867  0.5867  0.3888  0.3888  0.1228
  0.2430  0.2133  0.2133  0.1599  0.1774  0.1774

 Free energy of the ion-electron system (eV)
  ---------------------------------------------------
  alpha Z        PSCENC =      1096.28165702
  Ewald energy   TEWEN  =    -19786.77961367
  -Hartree energ DENC   =    -12049.85711698
  -exchange      EXHF   =         0.00000000
  -V(xc)+E(xc)   XCENC  =      1435.27701479
  PAW double counting   =     35601.94974831   -36805.81741183
  entropy T*S    EENTRO =        -0.00894829
  eigenvalues    EBANDS =     -1220.63382902
  atomic energy  EATOM  =     31415.70703490
  Solvation  Ediel_sol  =         0.00000000
  ---------------------------------------------------
  free energy    TOTEN  =      -313.88146477 eV

  energy without entropy =     -313.87251648  energy(sigma->0) =     -313.87699062


--------------------------------------------------------------------------------------------------------




--------------------------------------- Iteration      1(  22)  ---------------------------------------


    POTLOK:  cpu time    0.1389: real time    0.1392
    SETDIJ:  cpu time    0.0203: real time    0.0203
     EDDAV:  cpu time    1.9890: real time    1.9937
    CHARGE:  cpu time    0.1329: real time    0.1332
    MIXING:  cpu time    0.0055: real time    0.0056
    --------------------------------------------
      LOOP:  cpu time    2.2865: real time    2.2919

 eigenvalue-minimisations  :  1360
 total energy-change (2. order) : 0.3317988E-02  (-0.5802114E-02)
 number of electron     357.9999878 magnetization       1.7046081
 augmentation part      117.7428598 magnetization       1.1915297

 Broyden mixing:
  rms(total) = 0.13932E+00    rms(broyden)= 0.13930E+00
  rms(prec ) = 0.16039E+00
  weight for this iteration     100.00

 eigenvalues of (default mixing * dielectric matrix)
  average eigenvalue GAMMA=   0.6229
  2.4841  1.1433  1.1024  1.1024  0.7587  0.6720  0.6720  0.5418  0.3921  0.3921
  0.2660  0.1228  0.2267  0.2032  0.1599  0.1750  0.1750

 Free energy of the ion-electron system (eV)
  ---------------------------------------------------
  alpha Z        PSCENC =      1096.28165702
  Ewald energy   TEWEN  =    -19786.77961367
  -Hartree energ DENC   =    -12051.18685935
  -exchange      EXHF   =         0.00000000
  -V(xc)+E(xc)   XCENC  =      1435.34054010
  PAW double counting   =     35640.27480145   -36843.98298004
  entropy T*S    EENTRO =        -0.01273856
  eigenvalues    EBANDS =     -1219.51998862
  atomic energy  EATOM  =     31415.70703490
  Solvation  Ediel_sol  =         0.00000000
  ---------------------------------------------------
  free energy    TOTEN  =      -313.87814678 eV

  energy without entropy =     -313.86540822  energy(sigma->0) =     -313.87177750


--------------------------------------------------------------------------------------------------------




--------------------------------------- Iteration      1(  23)  ---------------------------------------


    POTLOK:  cpu time    0.1343: real time    0.1346
    SETDIJ:  cpu time    0.0200: real time    0.0201
     EDDAV:  cpu time    1.9218: real time    1.9264
    CHARGE:  cpu time    0.1278: real time    0.1281
    MIXING:  cpu time    0.0065: real time    0.0065
    --------------------------------------------
      LOOP:  cpu time    2.2104: real time    2.2157

 eigenvalue-minimisations  :  1264
 total energy-change (2. order) :-0.5293228E-03  (-0.1660329E-02)
 number of electron     357.9999878 magnetization       1.7316470
 augmentation part      117.7365538 magnetization       1.2095320

 Broyden mixing:
  rms(total) = 0.11605E+00    rms(broyden)= 0.11605E+00
  rms(prec ) = 0.14291E+00
  weight for this iteration     100.00

 eigenvalues of (default mixing * dielectric matrix)
  average eigenvalue GAMMA=   0.6390
  2.5866  1.3923  1.1941  1.1941  0.7064  0.7064  0.5848  0.5224  0.5224  0.3917
  0.3917  0.1228  0.2504  0.2246  0.2026  0.1599  0.1741  0.1741

 Free energy of the ion-electron system (eV)
  ---------------------------------------------------
  alpha Z        PSCENC =      1096.28165702
  Ewald energy   TEWEN  =    -19786.77961367
  -Hartree energ DENC   =    -12052.35861667
  -exchange      EXHF   =         0.00000000
  -V(xc)+E(xc)   XCENC  =      1435.38524305
  PAW double counting   =     35647.24436855   -36850.76367853
  entropy T*S    EENTRO =        -0.01289064
  eigenvalues    EBANDS =     -1218.58218009
  atomic energy  EATOM  =     31415.70703490
  Solvation  Ediel_sol  =         0.00000000
  ---------------------------------------------------
  free energy    TOTEN  =      -313.87867610 eV

  energy without entropy =     -313.86578546  energy(sigma->0) =     -313.87223078


--------------------------------------------------------------------------------------------------------




--------------------------------------- Iteration      1(  24)  ---------------------------------------


    POTLOK:  cpu time    0.1364: real time    0.1367
    SETDIJ:  cpu time    0.0205: real time    0.0206
     EDDAV:  cpu time    1.8252: real time    1.8295
    CHARGE:  cpu time    0.1285: real time    0.1288
    MIXING:  cpu time    0.0059: real time    0.0059
    --------------------------------------------
      LOOP:  cpu time    2.1165: real time    2.1215

 eigenvalue-minimisations  :  1168
 total energy-change (2. order) : 0.1867583E-02  (-0.1210020E-02)
 number of electron     357.9999878 magnetization       1.7407718
 augmentation part      117.7223349 magnetization       1.2308699

 Broyden mixing:
  rms(total) = 0.84516E-01    rms(broyden)= 0.84506E-01
  rms(prec ) = 0.10264E+00
  weight for this iteration     100.00

 eigenvalues of (default mixing * dielectric matrix)
  average eigenvalue GAMMA=   0.6532
  2.6188  1.5706  1.2875  1.2875  0.7481  0.7481  0.5664  0.5664  0.5838  0.3900
  0.3900  0.3460  0.1228  0.2508  0.2237  0.2027  0.1599  0.1734  0.1734

 Free energy of the ion-electron system (eV)
  ---------------------------------------------------
  alpha Z        PSCENC =      1096.28165702
  Ewald energy   TEWEN  =    -19786.77961367
  -Hartree energ DENC   =    -12053.15894526
  -exchange      EXHF   =         0.00000000
  -V(xc)+E(xc)   XCENC  =      1435.40976652
  PAW double counting   =     35645.08905417   -36848.50417720
  entropy T*S    EENTRO =        -0.01472044
  eigenvalues    EBANDS =     -1217.90686454
  atomic energy  EATOM  =     31415.70703490
  Solvation  Ediel_sol  =         0.00000000
  ---------------------------------------------------
  free energy    TOTEN  =      -313.87680852 eV

  energy without entropy =     -313.86208807  energy(sigma->0) =     -313.86944829


--------------------------------------------------------------------------------------------------------




--------------------------------------- Iteration      1(  25)  ---------------------------------------


    POTLOK:  cpu time    0.1309: real time    0.1312
    SETDIJ:  cpu time    0.0197: real time    0.0197
     EDDAV:  cpu time    1.9040: real time    1.9085
    CHARGE:  cpu time    0.1375: real time    0.1379
    MIXING:  cpu time    0.0072: real time    0.0072
    --------------------------------------------
      LOOP:  cpu time    2.1993: real time    2.2045

 eigenvalue-minimisations  :  1232
 total energy-change (2. order) : 0.1460716E-02  (-0.5965731E-03)
 number of electron     357.9999878 magnetization       1.7482100
 augmentation part      117.7119267 magnetization       1.2297772

 Broyden mixing:
  rms(total) = 0.66858E-01    rms(broyden)= 0.66851E-01
  rms(prec ) = 0.80678E-01
  weight for this iteration     100.00

 eigenvalues of (default mixing * dielectric matrix)
  average eigenvalue GAMMA=   0.6620
  2.5585  1.6968  1.3497  1.3497  0.7909  0.7909  0.6108  0.6108  0.5746  0.5746
  0.3910  0.3910  0.1228  0.2567  0.2353  0.2253  0.2027  0.1599  0.1737  0.1737

 Free energy of the ion-electron system (eV)
  ---------------------------------------------------
  alpha Z        PSCENC =      1096.28165702
  Ewald energy   TEWEN  =    -19786.77961367
  -Hartree energ DENC   =    -12053.58550440
  -exchange      EXHF   =         0.00000000
  -V(xc)+E(xc)   XCENC  =      1435.41906863
  PAW double counting   =     35641.66307950   -36845.00441712
  entropy T*S    EENTRO =        -0.01440714
  eigenvalues    EBANDS =     -1217.56224551
  atomic energy  EATOM  =     31415.70703490
  Solvation  Ediel_sol  =         0.00000000
  ---------------------------------------------------
  free energy    TOTEN  =      -313.87534780 eV

  energy without entropy =     -313.86094066  energy(sigma->0) =     -313.86814423


--------------------------------------------------------------------------------------------------------




--------------------------------------- Iteration      1(  26)  ---------------------------------------


    POTLOK:  cpu time    0.1366: real time    0.1370
    SETDIJ:  cpu time    0.0203: real time    0.0203
     EDDAV:  cpu time    2.0238: real time    2.0286
    CHARGE:  cpu time    0.1314: real time    0.1317
    MIXING:  cpu time    0.0067: real time    0.0067
    --------------------------------------------
      LOOP:  cpu time    2.3188: real time    2.3243

 eigenvalue-minimisations  :  1392
 total energy-change (2. order) : 0.1142256E-02  (-0.1510684E-03)
 number of electron     357.9999878 magnetization       1.7630003
 augmentation part      117.7004240 magnetization       1.2371644

 Broyden mixing:
  rms(total) = 0.48347E-01    rms(broyden)= 0.48345E-01
  rms(prec ) = 0.56972E-01
  weight for this iteration     100.00

 eigenvalues of (default mixing * dielectric matrix)
  average eigenvalue GAMMA=   0.6760
  2.5535  1.8963  1.3748  1.3748  0.8529  0.8529  0.6575  0.6575  0.5933  0.5933
  0.3914  0.3914  0.4535  0.1228  0.2506  0.2450  0.2239  0.2027  0.1599  0.1736
  0.1736

 Free energy of the ion-electron system (eV)
  ---------------------------------------------------
  alpha Z        PSCENC =      1096.28165702
  Ewald energy   TEWEN  =    -19786.77961367
  -Hartree energ DENC   =    -12053.80311943
  -exchange      EXHF   =         0.00000000
  -V(xc)+E(xc)   XCENC  =      1435.41958707
  PAW double counting   =     35637.41566964   -36840.72180057
  entropy T*S    EENTRO =        -0.01390315
  eigenvalues    EBANDS =     -1217.37971736
  atomic energy  EATOM  =     31415.70703490
  Solvation  Ediel_sol  =         0.00000000
  ---------------------------------------------------
  free energy    TOTEN  =      -313.87420555 eV

  energy without entropy =     -313.86030240  energy(sigma->0) =     -313.86725397


--------------------------------------------------------------------------------------------------------




--------------------------------------- Iteration      1(  27)  ---------------------------------------


    POTLOK:  cpu time    0.1397: real time    0.1400
    SETDIJ:  cpu time    0.0204: real time    0.0204
     EDDAV:  cpu time    2.0336: real time    2.0384
    CHARGE:  cpu time    0.1299: real time    0.1302
    MIXING:  cpu time    0.0070: real time    0.0070
    --------------------------------------------
      LOOP:  cpu time    2.3305: real time    2.3360

 eigenvalue-minimisations  :  1376
 total energy-change (2. order) : 0.3847605E-03  (-0.1220900E-03)
 number of electron     357.9999878 magnetization       1.7801683
 augmentation part      117.6915863 magnetization       1.2512039

 Broyden mixing:
  rms(total) = 0.36956E-01    rms(broyden)= 0.36954E-01
  rms(prec ) = 0.43744E-01
  weight for this iteration     100.00

 eigenvalues of (default mixing * dielectric matrix)
  average eigenvalue GAMMA=   0.6889
  2.4078  2.4078  1.4295  1.4295  0.8647  0.8647  0.6861  0.6861  0.6117  0.5883
  0.5883  0.3911  0.3911  0.1228  0.2604  0.2604  0.1599  0.1737  0.1737  0.2026
  0.2233  0.2318

 Free energy of the ion-electron system (eV)
  ---------------------------------------------------
  alpha Z        PSCENC =      1096.28165702
  Ewald energy   TEWEN  =    -19786.77961367
  -Hartree energ DENC   =    -12054.03084676
  -exchange      EXHF   =         0.00000000
  -V(xc)+E(xc)   XCENC  =      1435.42272290
  PAW double counting   =     35634.47363435   -36837.73925910
  entropy T*S    EENTRO =        -0.01356587
  eigenvalues    EBANDS =     -1217.19558455
  atomic energy  EATOM  =     31415.70703490
  Solvation  Ediel_sol  =         0.00000000
  ---------------------------------------------------
  free energy    TOTEN  =      -313.87382078 eV

  energy without entropy =     -313.86025491  energy(sigma->0) =     -313.86703785


--------------------------------------------------------------------------------------------------------




--------------------------------------- Iteration      1(  28)  ---------------------------------------


    POTLOK:  cpu time    0.1365: real time    0.1368
    SETDIJ:  cpu time    0.0203: real time    0.0204
     EDDAV:  cpu time    2.1118: real time    2.1168
    CHARGE:  cpu time    0.1302: real time    0.1306
    MIXING:  cpu time    0.0074: real time    0.0074
    --------------------------------------------
      LOOP:  cpu time    2.4062: real time    2.4119

 eigenvalue-minimisations  :  1424
[...]
  n-local  -805.58725  -788.14603  -824.99325    -0.00000     0.00000     7.77235
  augment  3026.35107  2989.27853  3087.35183    -0.00000    -0.00000   -17.32317
  Kinetic  5434.80068  5385.49476  5610.55169    -0.00000    -0.00000   -26.51121
  Fock        0.00000     0.00000     0.00000     0.00000     0.00000     0.00000
  -------------------------------------------------------------------------------------
  Total        0.2218343      0.3082147      0.7071380      0.0000000      0.0000000      0.0596873
  in kB        0.6918722      0.9612816      2.2054715      0.0000000      0.0000000      0.1861569
  external PRESSURE =       1.2862084 kB  Pullay stress =       0.0000000 kB


 VOLUME and BASIS-vectors are now :
 -----------------------------------------------------------------------------
  energy-cutoff  :      500.00
  volume of cell :      513.70
      direct lattice vectors                 reciprocal lattice vectors
     0.000000000  5.566173318  0.000000000     0.000000000  0.179656641  0.000000000
    -3.449993430  0.000000000  9.462464731    -0.001675519  0.000000000  0.105069820
     9.696937521  0.000000000  0.154634375     0.102529223  0.000000000  0.037381925

  length of vectors
     5.566173318 10.071777075  9.698170398     0.179656641  0.105083179  0.109131342


 FORCES acting on ions
    electron-ion (+dipol)            ewald-force                    non-local-force                 convergence-correction
 -----------------------------------------------------------------------------------------------
   0.308E-01 0.204E-14 -.139E+01   0.156E-01 0.462E-14 0.138E+01   -.526E-01 0.165E-23 0.328E-01   -.293E-02 0.539E-13 -.325E-02
   -.308E-01 -.997E-15 0.139E+01   -.156E-01 -.288E-13 -.138E+01   0.526E-01 -.331E-23 -.328E-01   0.293E-02 0.970E-13 0.325E-02
   -.259E-12 -.422E-13 0.431E-13   0.114E-12 0.219E-13 -.213E-13   0.000E+00 0.000E+00 -.129E-23   0.560E-12 -.176E-11 -.175E-11
   0.154E+02 -.991E+01 -.474E+02   -.158E+02 0.101E+02 0.486E+02   0.449E+00 -.182E+00 -.116E+01   0.284E-01 -.339E-02 0.157E-01
   -.154E+02 -.991E+01 0.474E+02   0.158E+02 0.101E+02 -.486E+02   -.449E+00 -.182E+00 0.116E+01   -.284E-01 -.339E-02 -.157E-01
   -.154E+02 0.991E+01 0.474E+02   0.158E+02 -.101E+02 -.486E+02   -.449E+00 0.182E+00 0.116E+01   -.284E-01 0.339E-02 -.157E-01
   0.154E+02 0.991E+01 -.474E+02   -.158E+02 -.101E+02 0.486E+02   0.449E+00 0.182E+00 -.116E+01   0.284E-01 0.339E-02 0.157E-01
   -.141E-10 0.974E-12 -.194E-11   0.000E+00 -.940E-13 0.142E-13   0.000E+00 0.000E+00 0.711E-24   0.100E-11 0.178E-11 -.222E-11
   0.150E-11 -.265E-13 0.975E-13   -.568E-13 0.838E-13 0.568E-13   0.000E+00 0.000E+00 -.388E-24   -.247E-12 0.137E-11 -.819E-12
   0.901E-12 0.969E-12 -.192E-11   0.284E-13 0.142E-12 -.817E-13   0.000E+00 0.000E+00 0.607E-24   -.407E-12 -.140E-11 -.110E-11
   0.153E-11 -.107E-13 -.908E-13   0.480E-13 -.848E-13 0.229E-13   -.827E-24 0.000E+00 -.194E-24   0.650E-12 -.233E-13 -.695E-13
   0.135E+02 -.101E+02 -.431E+02   -.140E+02 0.103E+02 0.442E+02   0.448E+00 -.179E+00 -.110E+01   0.101E-01 -.319E-03 -.164E-02
   -.135E+02 -.101E+02 0.431E+02   0.140E+02 0.103E+02 -.442E+02   -.448E+00 -.179E+00 0.110E+01   -.101E-01 -.319E-03 0.164E-02
   -.135E+02 0.101E+02 0.431E+02   0.140E+02 -.103E+02 -.442E+02   -.448E+00 0.179E+00 0.110E+01   -.101E-01 0.319E-03 0.164E-02
   0.135E+02 0.101E+02 -.431E+02   -.140E+02 -.103E+02 0.442E+02   0.448E+00 0.179E+00 -.110E+01   0.101E-01 0.319E-03 -.164E-02
   -.145E-11 0.948E-12 0.181E-11   -.107E-12 0.115E-12 -.306E-13   0.000E+00 0.000E+00 0.401E-24   0.537E-12 -.196E-13 0.264E-12
   -.246E-12 0.445E-15 -.104E-12   0.790E-13 -.537E-14 0.142E-13   -.165E-23 0.000E+00 0.000E+00   -.157E-11 0.394E-12 0.988E-12
   -.164E-11 0.963E-12 -.340E-11   0.586E-13 -.187E-12 0.497E-13   0.000E+00 0.000E+00 0.142E-24   -.169E-11 -.412E-12 0.116E-11
   0.342E+02 -.359E-13 0.364E+03   -.369E+02 -.425E-13 -.386E+03   0.266E+01 -.165E-23 0.223E+02   -.201E-02 0.866E-13 -.526E-02
   -.342E+02 -.184E-13 -.364E+03   0.369E+02 -.307E-13 0.386E+03   -.266E+01 0.165E-23 -.223E+02   0.201E-02 -.260E-12 0.526E-02
   0.323E+01 -.271E-13 -.399E+03   -.306E+01 0.426E-13 0.426E+03   -.205E+00 0.000E+00 -.267E+02   0.245E-01 0.406E-12 -.689E-02
   -.323E+01 -.695E-13 0.399E+03   0.306E+01 0.226E-13 -.426E+03   0.205E+00 0.000E+00 0.267E+02   -.245E-01 -.391E-12 0.689E-02
   -.811E+01 -.321E+02 0.368E+03   0.856E+01 0.346E+02 -.391E+03   -.457E+00 -.256E+01 0.228E+02   0.999E-02 0.646E-02 0.964E-02
   0.811E+01 -.321E+02 -.368E+03   -.856E+01 0.346E+02 0.391E+03   0.457E+00 -.256E+01 -.228E+02   -.999E-02 0.646E-02 -.964E-02
   0.811E+01 0.321E+02 -.368E+03   -.856E+01 -.346E+02 0.391E+03   0.457E+00 0.256E+01 -.228E+02   -.999E-02 -.646E-02 -.964E-02
   -.811E+01 0.321E+02 0.368E+03   0.856E+01 -.346E+02 -.391E+03   -.457E+00 0.256E+01 0.228E+02   0.999E-02 -.646E-02 0.964E-02
   0.860E+01 0.113E+01 -.389E+03   -.974E+01 -.125E+01 0.416E+03   0.115E+01 0.137E+00 -.269E+02   -.387E-02 -.155E-01 -.346E-02
   -.860E+01 0.113E+01 0.389E+03   0.974E+01 -.125E+01 -.416E+03   -.115E+01 0.137E+00 0.269E+02   0.387E-02 -.155E-01 0.346E-02
   -.860E+01 -.113E+01 0.389E+03   0.974E+01 0.125E+01 -.416E+03   -.115E+01 -.137E+00 0.269E+02   0.387E-02 0.155E-01 0.346E-02
   0.860E+01 -.113E+01 -.389E+03   -.974E+01 0.125E+01 0.416E+03   0.115E+01 -.137E+00 -.269E+02   -.387E-02 0.155E-01 -.346E-02
   0.428E+01 0.681E-13 0.387E+03   -.376E+01 0.498E-14 -.414E+03   -.535E+00 0.000E+00 0.266E+02   0.112E-01 -.316E-13 -.107E-01
   -.428E+01 0.194E-12 -.387E+03   0.376E+01 0.125E-13 0.414E+03   0.535E+00 0.000E+00 -.266E+02   -.112E-01 0.162E-12 0.107E-01
   -.108E+02 0.188E-12 -.395E+03   0.122E+02 0.361E-14 0.422E+03   -.136E+01 -.106E-21 -.270E+02   0.264E-01 -.485E-12 -.661E-02
   0.108E+02 0.150E-12 0.395E+03   -.122E+02 0.210E-13 -.422E+03   0.136E+01 0.106E-21 0.270E+02   -.264E-01 0.463E-12 0.661E-02
   -.400E+01 -.877E-13 0.400E+03   0.398E+01 0.117E-12 -.426E+03   0.262E-01 -.529E-22 0.267E+02   -.732E-02 0.364E-12 0.189E-02
   0.400E+01 0.376E-13 -.400E+03   -.398E+01 0.102E-12 0.426E+03   -.262E-01 0.529E-22 -.267E+02   0.732E-02 -.312E-12 -.189E-02
   -.341E+02 -.241E-13 -.363E+03   0.366E+02 0.723E-13 0.385E+03   -.255E+01 0.662E-23 -.221E+02   0.977E-02 -.709E-12 -.591E-02
   0.341E+02 -.936E-13 0.363E+03   -.366E+02 0.271E-13 -.385E+03   0.255E+01 -.662E-23 0.221E+02   -.977E-02 0.394E-13 0.591E-02
   -.683E+01 0.117E+01 0.389E+03   0.786E+01 -.130E+01 -.416E+03   -.103E+01 0.137E+00 0.269E+02   -.610E-03 -.120E-01 -.766E-02
   0.683E+01 0.117E+01 -.389E+03   -.786E+01 -.130E+01 0.416E+03   0.103E+01 0.137E+00 -.269E+02   0.610E-03 -.120E-01 0.766E-02
   0.683E+01 -.117E+01 -.389E+03   -.786E+01 0.130E+01 0.416E+03   0.103E+01 -.137E+00 -.269E+02   0.610E-03 0.120E-01 0.766E-02
   -.683E+01 -.117E+01 0.389E+03   0.786E+01 0.130E+01 -.416E+03   -.103E+01 -.137E+00 0.269E+02   -.610E-03 0.120E-01 -.766E-02
   0.639E+01 -.318E+02 -.368E+03   -.673E+01 0.344E+02 0.391E+03   0.352E+00 -.254E+01 -.229E+02   -.251E-01 -.467E-03 -.227E-01
   -.639E+01 -.318E+02 0.368E+03   0.673E+01 0.344E+02 -.391E+03   -.352E+00 -.254E+01 0.229E+02   0.251E-01 -.467E-03 0.227E-01
   -.639E+01 0.318E+02 0.368E+03   0.673E+01 -.344E+02 -.391E+03   -.352E+00 0.254E+01 0.229E+02   0.251E-01 0.467E-03 0.227E-01
   0.639E+01 0.318E+02 -.368E+03   -.673E+01 -.344E+02 0.391E+03   0.352E+00 0.254E+01 -.229E+02   -.251E-01 0.467E-03 -.227E-01
   0.100E+02 0.154E-12 0.395E+03   -.112E+02 -.181E-13 -.423E+03   0.117E+01 0.000E+00 0.271E+02   -.147E-01 -.317E-12 0.664E-02
   -.100E+02 0.139E-12 -.395E+03   0.112E+02 0.868E-15 0.423E+03   -.117E+01 0.000E+00 -.271E+02   0.147E-01 0.232E-12 -.664E-02
   -.386E+01 0.203E-12 -.387E+03   0.318E+01 -.534E-13 0.414E+03   0.696E+00 -.662E-23 -.266E+02   -.598E-02 0.647E-12 0.161E-02
   0.386E+01 0.128E-12 0.387E+03   -.318E+01 -.102E-13 -.414E+03   -.696E+00 0.662E-23 0.266E+02   0.598E-02 0.418E-13 -.161E-02
 -----------------------------------------------------------------------------------------------
   -.111E-10 0.117E-10 0.909E-11   0.121E-12 -.109E-12 0.114E-12   0.178E-14 0.000E+00 -.711E-14   0.644E-12 0.202E-13 -.357E-11
 
 
 POSITION                                       TOTAL-FORCE (eV/Angst)
 -----------------------------------------------------------------------------------
      6.42587      0.00000      2.47450        -0.009176      0.000000      0.013760
     -0.17893      0.00000      7.14260         0.009176      0.000000     -0.013760
     -0.00000      0.00000      0.00000         0.000000      0.000000     -0.000000
      2.42170      1.39679      0.10049         0.011599     -0.001559     -0.014362
      3.82524      1.39679      9.51661        -0.011599     -0.001559      0.014362
      3.82524      4.16938      9.51661        -0.011599      0.001559      0.014362
      2.42170      4.16938      0.10049         0.011599      0.001559     -0.014362
     -0.00000      2.78309      0.00000         0.000000      0.000000     -0.000000
      4.84847      0.00000      0.07732         0.000000      0.000000     -0.000000
      4.84847      2.78309      0.07732         0.000000      0.000000     -0.000000
      3.12347      0.00000      4.80855         0.000000      0.000000     -0.000000
      5.54537      1.39654      4.89725         0.005931      0.001482      0.003239
      0.70158      1.39654      4.71985        -0.005931      0.001482     -0.003239
      0.70158      4.16964      4.71985        -0.005931     -0.001482     -0.003239
      5.54537      4.16964      4.89725         0.005931     -0.001482      0.003239
      3.12347      2.78309      4.80855         0.000000      0.000000     -0.000000
     -1.72500      0.00000      4.73123         0.000000      0.000000     -0.000000
     -1.72500      2.78309      4.73123         0.000000      0.000000     -0.000000
      4.82570      0.00000      3.92272         0.001108      0.000000     -0.001459
      1.42125      0.00000      5.69438        -0.001108      0.000000      0.001459
      3.20447      0.00000      1.02738        -0.006330      0.000000     -0.013305
      3.04247      0.00000      8.58972         0.006330      0.000000      0.013305
      7.19088      1.38072      3.94890         0.003040      0.000098      0.002762
     -0.94394      1.38072      5.66820        -0.003040      0.000098     -0.002762
     -0.94394      4.18546      5.66820        -0.003040     -0.000098     -0.002762
      7.19088      4.18546      3.94890         0.003040     -0.000098      0.002762
      0.74303      1.39127      0.95882         0.000667     -0.000763     -0.006105
      5.50391      1.39127      8.65828        -0.000667     -0.000763      0.006105
      5.50391      4.17491      8.65828        -0.000667      0.000763      0.006105
      0.74303      4.17491      0.95882         0.000667      0.000763     -0.006105
      4.79285      2.78309      3.94557         0.000658      0.000000     -0.001943
      1.45409      2.78309      5.67153        -0.000658      0.000000      0.001943
      3.18449      2.78309      1.03188        -0.005162      0.000000     -0.012439
      3.06246      2.78309      8.58522         0.005162      0.000000      0.012439
     -0.07819      0.00000      3.79078         0.004461      0.000000      0.007187
      6.32514      0.00000      5.82632        -0.004461      0.000000     -0.007187
      7.99358      0.00000      1.03006         0.003690      0.000000      0.009054
     -1.74664      0.00000      8.58704        -0.003690      0.000000     -0.009054
      2.37484      1.39110      3.85514         0.002618     -0.000171      0.002946
      3.87210      1.39110      5.76195        -0.002618     -0.000171     -0.002946
      3.87210      4.17507      5.76195        -0.002618      0.000171     -0.002946
      2.37484      4.17507      3.85514         0.002618      0.000171      0.002946
      5.63428      1.38087      1.00885        -0.005346      0.000170      0.002224
      0.61266      1.38087      8.60825         0.005346      0.000170     -0.002224
      0.61266      4.18530      8.60825         0.005346     -0.000170     -0.002224
      5.63428      4.18530      1.00885        -0.005346     -0.000170      0.002224
     -0.05889      2.78309      3.78695         0.006205      0.000000      0.006496
      6.30583      2.78309      5.83015        -0.006205      0.000000     -0.006496
      8.02478      2.78309      1.00775         0.005118      0.000000      0.009008
     -1.77784      2.78309      8.60935        -0.005118      0.000000     -0.009008
 -----------------------------------------------------------------------------------
    total drift:                               -0.000000      0.000000      0.000000


--------------------------------------------------------------------------------------------------------



  FREE ENERGIE OF THE ION-ELECTRON SYSTEM (eV)
  ---------------------------------------------------
  free  energy   TOTEN  =      -313.8745061782 eV

  energy  without entropy=     -313.8607457805  energy(sigma->0) =     -313.86762598
 
 d Force = 0.2715957E-03[ 0.124E-03, 0.420E-03]  d Energy = 0.4256966E-03-0.154E-03
 d Force =-0.6135822E+01[-0.614E+01,-0.613E+01]  d Ewald  =-0.1069507E+02 0.456E+01


--------------------------------------------------------------------------------------------------------


    POTLOK:  cpu time    0.1571: real time    0.1574


--------------------------------------------------------------------------------------------------------


 Quasi-Newton relaxation of ions (Broydens 2nd method)
  g(Force)  = 0.195E-03   g(Stress)= 0.628E-03

 retain information from N=  2 steps
 eigenvalues of (default step * inverse Hessian matrix)
  average eigenvalue of G=   0.6357
 eigenvalue spectrum of G is  1.0640  0.2074


--------------------------------------------------------------------------------------------------------


  
 reached required accuracy - stopping structural energy minimisation
     LOOP+:  cpu time   16.8105: real time   16.9354
    4ORBIT:  cpu time    0.0000: real time    0.0000

volume of typ            1:     3.0 %

volume of typ            2:    19.8 %

volume of typ            3:    10.2 %
 
total charge     
 
# of ion       s       p       d       tot
------------------------------------------
    1        2.060   0.188   0.072   2.320
    2        2.060   0.188   0.072   2.320
    3        0.294   0.415   7.827   8.536
    4        0.302   0.429   7.833   8.564
    5        0.302   0.429   7.833   8.564
    6        0.302   0.429   7.833   8.564
    7        0.302   0.429   7.833   8.564
    8        0.304   0.432   7.825   8.560
    9        0.304   0.431   7.838   8.573
   10        0.288   0.399   7.826   8.513
   11        0.293   0.414   7.828   8.535
   12        0.302   0.429   7.833   8.565
   13        0.302   0.429   7.833   8.565
   14        0.302   0.429   7.833   8.565
   15        0.302   0.429   7.833   8.565
   16        0.303   0.431   7.826   8.560
   17        0.304   0.431   7.839   8.574
   18        0.288   0.400   7.826   8.514
   19        1.273   2.757   0.008   4.038
   20        1.273   2.757   0.008   4.038
   21        1.284   2.726   0.008   4.019
   22        1.284   2.726   0.008   4.019
   23        1.273   2.759   0.008   4.039
   24        1.273   2.759   0.008   4.039
   25        1.273   2.759   0.008   4.039
   26        1.273   2.759   0.008   4.039
   27        1.285   2.727   0.008   4.020
   28        1.285   2.727   0.008   4.020
   29        1.285   2.727   0.008   4.020
   30        1.285   2.727   0.008   4.020
   31        1.283   2.735   0.008   4.026
   32        1.283   2.735   0.008   4.026
   33        1.285   2.724   0.008   4.018
   34        1.285   2.724   0.008   4.018
   35        1.284   2.727   0.008   4.019
   36        1.284   2.727   0.008   4.019
   37        1.273   2.759   0.008   4.040
   38        1.273   2.759   0.008   4.040
   39        1.285   2.727   0.008   4.020
   40        1.285   2.727   0.008   4.020
   41        1.285   2.727   0.008   4.020
   42        1.285   2.727   0.008   4.020
   43        1.273   2.759   0.008   4.039
   44        1.273   2.759   0.008   4.039
   45        1.273   2.759   0.008   4.039
   46        1.273   2.759   0.008   4.039
   47        1.285   2.725   0.008   4.019
   48        1.285   2.725   0.008   4.019
   49        1.282   2.736   0.008   4.027
   50        1.282   2.736   0.008   4.027
--------------------------------------------------
tot          49.87   94.83  125.70  270.40
 
magnetization (x)
 
# of ion       s       p       d       tot
------------------------------------------
    1        0.004   0.000   0.000   0.004
    2        0.004   0.000   0.000   0.004
    3        0.000   0.001   0.123   0.124
    4       -0.000   0.000   0.082   0.083
    5       -0.000   0.000   0.082   0.083
    6       -0.000   0.000   0.082   0.083
    7       -0.000   0.000   0.082   0.083
    8       -0.000   0.001   0.031   0.031
    9       -0.000   0.001   0.046   0.047
   10       -0.000   0.000   0.127   0.127
   11        0.000   0.001   0.129   0.129
   12       -0.000   0.000   0.080   0.081
   13       -0.000   0.000   0.080   0.081
   14       -0.000   0.000   0.080   0.081
   15       -0.000   0.000   0.080   0.081
   16       -0.000   0.001   0.032   0.032
   17       -0.000   0.001   0.046   0.046
   18       -0.000   0.000   0.126   0.126
   19        0.003   0.009   0.000   0.012
   20        0.003   0.009   0.000   0.012
   21        0.002   0.004   0.000   0.005
   22        0.002   0.004   0.000   0.005
   23        0.002   0.005   0.000   0.007
   24        0.002   0.005   0.000   0.007
   25        0.002   0.005   0.000   0.007
   26        0.002   0.005   0.000   0.007
   27        0.002   0.007   0.000   0.009
   28        0.002   0.007   0.000   0.009
   29        0.002   0.007   0.000   0.009
   30        0.002   0.007   0.000   0.009
   31        0.001   0.002   0.000   0.003
   32        0.001   0.002   0.000   0.003
   33        0.002   0.012   0.000   0.014
   34        0.002   0.012   0.000   0.014
   35        0.002   0.004   0.000   0.006
   36        0.002   0.004   0.000   0.006
   37        0.003   0.009   0.000   0.012
   38        0.003   0.009   0.000   0.012
   39        0.002   0.007   0.000   0.009
   40        0.002   0.007   0.000   0.009
   41        0.002   0.007   0.000   0.009
   42        0.002   0.007   0.000   0.009
   43        0.002   0.005   0.000   0.007
   44        0.002   0.005   0.000   0.007
   45        0.002   0.005   0.000   0.007
   46        0.002   0.005   0.000   0.007
   47        0.002   0.011   0.000   0.014
   48        0.002   0.011   0.000   0.014
   49        0.001   0.002   0.000   0.003
   50        0.001   0.002   0.000   0.003
--------------------------------------------------
tot           0.07    0.21    1.31    1.59
 

 total amount of memory used by VASP MPI-rank0    92861. kBytes
=======================================================================

   base      :      30000. kBytes
   nonlr-proj:      21516. kBytes
   fftplans  :       5544. kBytes
   grid      :      31764. kBytes
   one-center:        777. kBytes
   wavefun   :       3260. kBytes
 
  
  
 General timing and accounting informations for this job:
 ========================================================
  
                  Total CPU time used (sec):      119.366
                            User time (sec):      117.147
                          System time (sec):        2.219
                         Elapsed time (sec):      123.806
  
                   Maximum memory used (kb):      136292.
                   Average memory used (kb):           0.
  
                          Minor page faults:        36648
                          Major page faults:           13
                 Voluntary context switches:         1144
