 vasp.5.4.4.18Apr17-6-g9f103f2a35 (build May 12 2020 05:39:39) gamma-only       
  
 MD_VERSION_INFO: Compiled 2020-05-12T12:39:39-UTC in devlin.sd.materialsdesign.
 com:/home/medea2/data/build/wwolf/vasp-gpu5.4.4/13047/x86_64/src/src/build/gam 
 from svn 13047
 
 This VASP executable licensed from Materials Design, Inc.
 
 executed on                        Lin64 date 2023.03.07  06:43:02
 running on   16 total cores
 distrk:  each k-point on   16 cores,    1 groups
 distr:  one band on NCORES_PER_BAND=   1 cores,   16 groups


--------------------------------------------------------------------------------------------------------


 INCAR:
 POTCAR:    PAW_PBE Li_sv 10Sep2004               
 POTCAR:    PAW_PBE Ni 02Aug2007                  
 POTCAR:    PAW_PBE O 08Apr2002                   

 ----------------------------------------------------------------------------- 
|                                                                             |
|           W    W    AA    RRRRR   N    N  II  N    N   GGGG   !!!           |
|           W    W   A  A   R    R  NN   N  II  NN   N  G    G  !!!           |
|           W    W  A    A  R    R  N N  N  II  N N  N  G       !!!           |
|           W WW W  AAAAAA  RRRRR   N  N N  II  N  N N  G  GGG   !            |
|           WW  WW  A    A  R   R   N   NN  II  N   NN  G    G                |
|           W    W  A    A  R    R  N    N  II  N    N   GGGG   !!!           |
|                                                                             |
|      For optimal performance we recommend to set                            |
|        NCORE= 4 - approx SQRT( number of cores)                             |
|      NCORE specifies how many cores store one orbital (NPAR=cpu/NCORE).     |
|      This setting can  greatly improve the performance of VASP for DFT.     |
|      The default,   NCORE=1            might be grossly inefficient         |
|      on modern multi-core architectures or massively parallel machines.     |
|      Do your own testing !!!!                                               |
|      Unfortunately you need to use the default for GW and RPA calculations. |
|      (for HF NCORE is supported but not extensively tested yet)             |
|                                                                             |
 ----------------------------------------------------------------------------- 

 POTCAR:    PAW_PBE Li_sv 10Sep2004               
  local pseudopotential read in
  atomic valenz-charges read in
  non local Contribution for L=           0  read in
    real space projection operators read in
  non local Contribution for L=           0  read in
    real space projection operators read in
  non local Contribution for L=           1  read in
    real space projection operators read in
    PAW grid and wavefunctions read in
 
   number of l-projection  operators is LMAX  =           3
   number of lm-projection operators is LMMAX =           5
 
 POTCAR:    PAW_PBE Ni 02Aug2007                  
  local pseudopotential read in
  partial core-charges read in
  partial kinetic energy density read in
  atomic valenz-charges read in
  non local Contribution for L=           2  read in
    real space projection operators read in
  non local Contribution for L=           2  read in
    real space projection operators read in
  non local Contribution for L=           0  read in
    real space projection operators read in
  non local Contribution for L=           0  read in
    real space projection operators read in
  non local Contribution for L=           1  read in
    real space projection operators read in
  non local Contribution for L=           1  read in
    real space projection operators read in
    PAW grid and wavefunctions read in
 
   number of l-projection  operators is LMAX  =           6
   number of lm-projection operators is LMMAX =          18
 
 POTCAR:    PAW_PBE O 08Apr2002                   
  local pseudopotential read in
  partial core-charges read in
  partial kinetic energy density read in
  kinetic energy density of atom read in
  atomic valenz-charges read in
  non local Contribution for L=           0  read in
    real space projection operators read in
  non local Contribution for L=           0  read in
    real space projection operators read in
  non local Contribution for L=           1  read in
    real space projection operators read in
  non local Contribution for L=           1  read in
    real space projection operators read in
    PAW grid and wavefunctions read in
 
   number of l-projection  operators is LMAX  =           4
   number of lm-projection operators is LMMAX =           8
 
 Optimization of the real space projectors (new method)

 maximal supplied QI-value         = 22.11
 optimisation between [QCUT,QGAM] = [ 11.28, 22.77] = [ 35.61,145.23] Ry 
 Optimized for a Real-space Cutoff    1.10 Angstroem

   l    n(q)    QCUT    max X(q) W(low)/X(q) W(high)/X(q)  e(spline) 
   0      7    11.276    10.506    0.54E-04    0.58E-04    0.16E-07
   0      7    11.276     8.367    0.11E-03    0.14E-03    0.35E-07
   1      7    11.276     8.983    0.23E-03    0.43E-03    0.86E-07
 Optimization of the real space projectors (new method)

 maximal supplied QI-value         = 16.25
 optimisation between [QCUT,QGAM] = [ 11.38, 22.75] = [ 36.24,144.96] Ry 
 Optimized for a Real-space Cutoff    1.47 Angstroem

   l    n(q)    QCUT    max X(q) W(low)/X(q) W(high)/X(q)  e(spline) 
   2      9    11.376    60.317    0.17E-03    0.16E-04    0.16E-06
   2      9    11.376    55.921    0.17E-03    0.16E-04    0.17E-06
   0     10    11.376    51.690    0.45E-04    0.60E-04    0.21E-06
   0     10    11.376    30.015    0.37E-04    0.55E-04    0.19E-06
   1     10    11.376    18.849    0.83E-04    0.11E-03    0.92E-07
   1     10    11.376    14.624    0.69E-04    0.92E-04    0.82E-07
 Optimization of the real space projectors (new method)

 maximal supplied QI-value         = 24.76
 optimisation between [QCUT,QGAM] = [ 11.39, 22.77] = [ 36.31,145.25] Ry 
 Optimized for a Real-space Cutoff    1.10 Angstroem

   l    n(q)    QCUT    max X(q) W(low)/X(q) W(high)/X(q)  e(spline) 
   0      7    11.387    20.381    0.22E-03    0.48E-03    0.18E-06
   0      7    11.387    15.268    0.22E-03    0.52E-03    0.19E-06
   1      7    11.387     5.964    0.22E-03    0.73E-03    0.24E-06
   1      7    11.387     5.382    0.19E-03    0.60E-03    0.21E-06

 ----------------------------------------------------------------------------- 
|                                                                             |
|  ADVICE TO THIS USER RUNNING 'VASP/VAMP'   (HEAR YOUR MASTER'S VOICE ...):  |
|                                                                             |
|      You enforced a specific xc-type in the INCAR file,                     |
|      a different type was found on the POTCAR file                          |
|          I HOPE YOU KNOW, WHAT YOU ARE  DOING                               |
|                                                                             |
 ----------------------------------------------------------------------------- 

  PAW_PBE Li_sv 10Sep2004               :
 energy of atom  1       EATOM= -202.7858
 kinetic energy error for atom=    0.0143 (will be added to EATOM!!)
  PAW_PBE Ni 02Aug2007                  :
 energy of atom  2       EATOM=-1077.6739
 kinetic energy error for atom=    0.0030 (will be added to EATOM!!)
  PAW_PBE O 08Apr2002                   :
 energy of atom  3       EATOM= -432.3788
 kinetic energy error for atom=    0.0224 (will be added to EATOM!!)
 
 
 POSCAR: ce17210_1                               
  positions in direct lattice
  No initial velocities read in
 exchange correlation table for  LEXCH =       14
   RHO(1)=    0.500       N(1)  =     2000
   RHO(2)=  100.500       N(2)  =     4000
 


--------------------------------------------------------------------------------------------------------


 ion  position               nearest neighbor table
   1  0.522  0.251  0.268-  37 2.00  46 2.03  34 2.18  43 2.19  51 2.22  20 2.79  11 2.84
   2  0.522  0.749  0.732-  38 2.00  45 2.03  33 2.18  44 2.19  52 2.22  20 2.79  10 2.84
   3  0.978  0.249  0.732-  23 2.00  50 2.03  30 2.18  47 2.19  41 2.22  13 2.80  19 2.84
   4  0.978  0.751  0.268-  24 2.00  49 2.03  29 2.18  48 2.19  42 2.22  13 2.80  18 2.84
   5  0.251  0.250  1.000-  53 2.14  51 2.14  41 2.15  39 2.15  27 2.16  31 2.17
   6  0.251  0.750  0.000-  54 2.14  52 2.14  42 2.15  40 2.15  28 2.16  32 2.17
   7  0.998  0.000  0.000-  33 1.84  34 1.84  31 1.86  32 1.86  41 2.04  42 2.04  12 2.75  12 2.78
                            11 2.81  10 2.81   9 2.83   8 2.83
   8  0.250  0.002  0.251-  37 1.83  42 1.84  25 1.84  54 1.85  48 1.91  31 1.96  11 2.77  11 2.77
                            14 2.82  13 2.82   7 2.83  12 2.83
   9  0.250  0.998  0.749-  38 1.83  41 1.84  26 1.84  53 1.85  47 1.91  32 1.96  10 2.77  10 2.77
                            14 2.82  13 2.82   7 2.83  12 2.83
  10  0.750  0.003  0.752-  38 1.83  26 1.85  41 1.86  53 1.87  50 1.91  33 1.92   9 2.77   9 2.77
                             7 2.81  12 2.82  13 2.83  14 2.83   2 2.84
  11  0.750  0.997  0.248-  37 1.83  25 1.85  42 1.86  54 1.87  49 1.91  34 1.92   8 2.77   8 2.77
                             7 2.81  12 2.82  13 2.83  14 2.83   1 2.84
  12  0.501  0.000  0.000-  33 1.84  34 1.84  31 1.85  32 1.85  53 1.92  54 1.92   7 2.75   7 2.78
                            11 2.82  10 2.82   9 2.83   8 2.83
  13  1.000  0.000  0.500-  47 1.85  48 1.85  49 1.85  50 1.85  25 1.92  26 1.92  14 2.77  14 2.77
                             4 2.80   3 2.80   9 2.82   8 2.82  11 2.83  10 2.83
  14  0.500  0.000  0.500-  47 1.85  48 1.85  49 1.85  50 1.85  37 2.02  38 2.02  13 2.77  13 2.77
                             8 2.82   9 2.82  10 2.83  11 2.83
  15  0.001  0.500  0.500-  43 1.85  44 1.85  45 1.85  46 1.85  23 2.02  24 2.02  20 2.77  20 2.77
                            17 2.82  16 2.82  19 2.83  18 2.83
  16  0.251  0.498  0.749-  23 1.84  52 1.84  35 1.84  40 1.85  44 1.92  27 1.95  19 2.77  19 2.77
                            20 2.82  15 2.82  21 2.83  22 2.83
  17  0.251  0.502  0.251-  24 1.84  51 1.84  36 1.84  39 1.85  43 1.92  28 1.95  18 2.77  18 2.77
                            20 2.82  15 2.82  21 2.83  22 2.83
  18  0.750  0.497  0.249-  24 1.84  36 1.85  51 1.86  39 1.87  46 1.91  29 1.92  17 2.77  17 2.77
                            22 2.81  21 2.82  20 2.82  15 2.83   4 2.84
  19  0.750  0.503  0.751-  23 1.84  35 1.85  52 1.86  40 1.87  45 1.91  30 1.92  16 2.77  16 2.77
                            22 2.81  21 2.82  20 2.82  15 2.83   3 2.84
  20  0.501  0.500  0.500-  43 1.85  44 1.85  45 1.85  46 1.85  35 1.92  36 1.92  15 2.77  15 2.77
                             1 2.79   2 2.79  17 2.82  16 2.82  19 2.82  18 2.82
  21  1.000  0.500  0.000-  29 1.84  30 1.84  27 1.85  28 1.85  39 1.92  40 1.92  22 2.75  22 2.78
                            19 2.82  18 2.82  17 2.83  16 2.83
  22  0.502  0.500  0.000-  29 1.84  30 1.84  27 1.86  28 1.86  51 2.04  52 2.04  21 2.75  21 2.78
                            18 2.81  19 2.81  16 2.83  17 2.83
  23  0.997  0.398  0.644-  16 1.84  19 1.84   3 2.00  15 2.02
  24  0.997  0.602  0.356-  17 1.84  18 1.84   4 2.00  15 2.02
  25  0.997  0.097  0.363-   8 1.84  11 1.85  13 1.92
  26  0.997  0.903  0.637-   9 1.84  10 1.85  13 1.92
  27  0.250  0.399  0.888-  21 1.85  22 1.86  16 1.95   5 2.16
  28  0.250  0.601  0.112-  21 1.85  22 1.86  17 1.95   6 2.16
  29  0.751  0.597  0.115-  21 1.84  22 1.84  18 1.92   4 2.18
  30  0.751  0.403  0.885-  21 1.84  22 1.84  19 1.92   3 2.18
  31  0.251  0.101  0.112-  12 1.85   7 1.86   8 1.96   5 2.17
  32  0.251  0.899  0.888-  12 1.85   7 1.86   9 1.96   6 2.17
  33  0.749  0.903  0.886-  12 1.84   7 1.84  10 1.92   2 2.18
  34  0.749  0.097  0.114-  12 1.84   7 1.84  11 1.92   1 2.18
  35  0.503  0.403  0.637-  16 1.84  19 1.85  20 1.92
  36  0.503  0.597  0.363-  17 1.84  18 1.85  20 1.92
  37  0.503  0.101  0.356-   8 1.83  11 1.83   1 2.00  14 2.02
  38  0.503  0.899  0.644-   9 1.83  10 1.83   2 2.00  14 2.02
  39  0.005  0.401  0.134-  17 1.85  18 1.87  21 1.92   5 2.15
  40  0.005  0.599  0.866-  16 1.85  19 1.87  21 1.92   6 2.15
  41  0.006  0.105  0.858-   9 1.84  10 1.86   7 2.04   5 2.15   3 2.22
  42  0.006  0.895  0.142-   8 1.84  11 1.86   7 2.04   6 2.15   4 2.22
  43  0.251  0.403  0.385-  20 1.85  15 1.85  17 1.92   1 2.19
  44  0.251  0.597  0.615-  20 1.85  15 1.85  16 1.92   2 2.19
  45  0.750  0.598  0.614-  20 1.85  15 1.85  19 1.91   2 2.03
  46  0.750  0.402  0.386-  20 1.85  15 1.85  18 1.91   1 2.03
  47  0.249  0.097  0.615-  13 1.85  14 1.85   9 1.91   3 2.19
  48  0.249  0.903  0.385-  13 1.85  14 1.85   8 1.91   4 2.19
  49  0.751  0.902  0.386-  13 1.85  14 1.85  11 1.91   4 2.03
  50  0.751  0.098  0.614-  13 1.85  14 1.85  10 1.91   3 2.03
  51  0.495  0.394  0.142-  17 1.84  18 1.86  22 2.04   5 2.14   1 2.22
  52  0.495  0.606  0.858-  16 1.84  19 1.86  22 2.04   6 2.14   2 2.22
  53  0.495  0.099  0.866-   9 1.85  10 1.87  12 1.92   5 2.14
  54  0.495  0.901  0.134-   8 1.85  11 1.87  12 1.92   6 2.14
 
  LATTYP: Found a simple monoclinic cell.
 ALAT       =    11.5682090435
 B/A-ratio  =     0.4786298854
 C/A-ratio  =     1.6860734338
 COS(beta)  =    -0.9073183004
  
  Lattice vectors:
  
 A1 = (  -6.2933978254,   0.0000000000,  -9.7065238003)
 A2 = (   0.0000000000,  -5.5368905690,   0.0000000000)
 A3 = (   2.7467170595,   0.0000000000,  19.3104820442)


Analysis of symmetry for initial positions (statically):
=====================================================================
 Subroutine PRICEL returns:
 Original cell was already a primitive cell.
 

 Routine SETGRP: Setting up the symmetry group for a 
 simple monoclinic supercell.


 Subroutine GETGRP returns: Found  2 space group operations
 (whereof  2 operations were pure point group operations)
 out of a pool of  4 trial point group operations.


The static configuration has the point symmetry C_2 .


Analysis of symmetry for dynamics (positions and initial velocities):
=====================================================================
 Subroutine PRICEL returns:
 Original cell was already a primitive cell.
 

 Routine SETGRP: Setting up the symmetry group for a 
 simple monoclinic supercell.


 Subroutine GETGRP returns: Found  2 space group operations
 (whereof  2 operations were pure point group operations)
 out of a pool of  4 trial point group operations.


The dynamic configuration has the point symmetry C_2 .


Analysis of structural, dynamic, and magnetic symmetry:
=====================================================================
 Subroutine PRICEL returns:
 Original cell was already a primitive cell.
 

 Routine SETGRP: Setting up the symmetry group for a 
 simple monoclinic supercell.


 Subroutine GETGRP returns: Found  2 space group operations
 (whereof  2 operations were pure point group operations)
 out of a pool of  4 trial point group operations.


The magnetic configuration has the point symmetry C_2 .


 Subroutine INISYM returns: Found  2 space group operations
 (whereof  2 operations are pure point group operations),
 and found     1 'primitive' translations

 
 
 KPOINTS: Automatic mesh                          

Automatic generation of k-mesh.
Space group operators:
 irot       det(A)        alpha          n_x          n_y          n_z        tau_x        tau_y        tau_z
    1     1.000000     0.000000     1.000000     0.000000     0.000000     0.000000     0.000000     0.000000
    2     1.000000   180.000000     0.000000     1.000000     0.000000     0.000000     0.000000     0.000000
 
 Subroutine IBZKPT returns following result:
 ===========================================
 
 Found      1 irreducible k-points:
 
 Following reciprocal coordinates:
            Coordinates               Weight
  0.000000  0.000000  0.000000      1.000000
 
 Following cartesian coordinates:
            Coordinates               Weight
  0.000000  0.000000  0.000000      1.000000
 


--------------------------------------------------------------------------------------------------------




 Dimension of arrays:
   k-points           NKPTS =      1   k-points in BZ     NKDIM =      1   number of bands    NBANDS=    256
   number of dos      NEDOS =    301   number of ions     NIONS =     54
   non local maximal  LDIM  =      6   non local SUM 2l+1 LMDIM =     18
   total plane-waves  NPLWV = 230400
   max r-space proj   IRMAX =   5938   max aug-charges    IRDMAX=  14416
   dimension x,y,z NGX =    40 NGY =   80 NGZ =   72
   dimension x,y,z NGXF=    80 NGYF=  160 NGZF=  144
   support grid    NGXF=    80 NGYF=  160 NGZF=  144
   ions per type =               6  16  32
   NGX,Y,Z   is equivalent  to a cutoff of  12.01, 12.99, 12.16 a.u.
   NGXF,Y,Z  is equivalent  to a cutoff of  24.02, 25.98, 24.33 a.u.

 SYSTEM =  unknown system                          
 POSCAR =  ce17210_1                               

 Startparameter for this run:
   NWRITE =      1    write-flag & timer
   PREC   = accura    normal or accurate (medium, high low for compatibility)
   ISTART =      0    job   : 0-new  1-cont  2-samecut
   ICHARG =      2    charge: 1-file 2-atom 10-const
   ISPIN  =      2    spin polarized calculation?
   LNONCOLLINEAR =      F non collinear calculations
   LSORBIT =      F    spin-orbit coupling
   INIWAV =      1    electr: 0-lowe 1-rand  2-diag
   LASPH  =      F    aspherical Exc in radial PAW
   METAGGA=      F    non-selfconsistent MetaGGA calc.

 Electronic Relaxation 1
   ENCUT  =  500.0 eV  36.75 Ry    6.06 a.u.  10.10 18.67 17.94*2*pi/ulx,y,z
   ENINI  =  500.0     initial cutoff
   ENAUG  =  628.9 eV  augmentation charge cutoff
   NELM   =     80;   NELMIN=  2; NELMDL= -5     # of ELM steps 
   EDIFF  = 0.1E-04   stopping-criterion for ELM
   LREAL  =      T    real-space projection
   NLSPLINE    = F    spline interpolate recip. space projectors
   LCOMPAT=      F    compatible to vasp.4.4
   GGA_COMPAT  = T    GGA compatible to vasp.4.4-vasp.4.6
   LMAXPAW     = -100 max onsite density
   LMAXMIX     =    2 max onsite mixed and CHGCAR
   VOSKOWN=      1    Vosko Wilk Nusair interpolation
   ROPT   =   -0.00025  -0.00025  -0.00025
 Ionic relaxation
   EDIFFG = -.2E-01   stopping-criterion for IOM
   NSW    =     20    number of steps for IOM
   NBLOCK =      1;   KBLOCK =     20    inner block; outer block 
   IBRION =      1    ionic relax: 0-MD 1-quasi-New 2-CG
   NFREE  =      0    steps in history (QN), initial steepest desc. (CG)
   ISIF   =      3    stress and relaxation
   IWAVPR =     11    prediction:  0-non 1-charg 2-wave 3-comb
   ISYM   =      2    0-nonsym 1-usesym 2-fastsym
   LCORR  =      T    Harris-Foulkes like correction to forces

   POTIM  = 0.5000    time-step for ionic-motion
   TEIN   =    0.0    initial temperature
   TEBEG  =    0.0;   TEEND  =   0.0 temperature during run
   SMASS  =  -3.00    Nose mass-parameter (am)
   estimated Nose-frequenzy (Omega)   =  0.10E-29 period in steps =****** mass=  -0.701E-27a.u.
   SCALEE = 1.0000    scale energy and forces
   NPACO  =    256;   APACO  = 16.0  distance and # of slots for P.C.
   PSTRESS=    0.0 pullay stress

  Mass of Ions in am
   POMASS =   7.01 58.69 16.00
  Ionic Valenz
   ZVAL   =   3.00 10.00  6.00
  Atomic Wigner-Seitz radii
   RWIGS  =   1.23  1.15  0.73
  virtual crystal weights 
   VCA    =   1.00  1.00  1.00
   NELECT =     370.0000    total number of electrons
   NUPDOWN=      -1.0000    fix difference up-down

 DOS related values:
   EMIN   =  10.00;   EMAX   =-10.00  energy-range for DOS
   EFERMI =   0.00
   ISMEAR =     0;   SIGMA  =   0.05  broadening in eV -4-tet -1-fermi 0-gaus

 Electronic relaxation 2 (details)
   IALGO  =     38    algorithm
   LDIAG  =      T    sub-space diagonalisation (order eigenvalues)
   LSUBROT=      F    optimize rotation matrix (better conditioning)
   TURBO    =      0    0=normal 1=particle mesh
   IRESTART =      0    0=no restart 2=restart with 2 vectors
   NREBOOT  =      0    no. of reboots
   NMIN     =      0    reboot dimension
   EREF     =   0.00    reference energy to select bands
   IMIX   =      4    mixing-type and parameters
     AMIX     =   0.40;   BMIX     =  1.00
     AMIX_MAG =   1.60;   BMIX_MAG =  1.00
     AMIN     =   0.10
     WC   =   100.;   INIMIX=   1;  MIXPRE=   1;  MAXMIX= -45

 Intra band minimization:
   WEIMIN = 0.0010     energy-eigenvalue tresh-hold
   EBREAK =  0.98E-08  absolut break condition
   DEPER  =   0.30     relativ break condition  

   TIME   =   0.40     timestep for ELM

  volume/ion in A,a.u.               =       9.73        65.64
  Fermi-wavevector in a.u.,A,eV,Ry     =   1.456625  2.752621 28.868234  2.121755
  Thomas-Fermi vector in A             =   2.573521
 
 Write flags
   LWAVE        =      F    write WAVECAR
   LDOWNSAMPLE  =      F    k-point downsampling of WAVECAR
   LCHARG       =      T    write CHGCAR
   LVTOT        =      F    write LOCPOT, total local potential
   LVHAR        =      F    write LOCPOT, Hartree potential only
   LELF         =      F    write electronic localiz. function (ELF)
   LORBIT       =      0    0 simple, 1 ext, 2 COOP (PROOUT), +10 PAW based schemes


 Dipole corrections
   LMONO  =      F    monopole corrections only (constant potential shift)
   LDIPOL =      F    correct potential (dipole corrections)
   IDIPOL =      0    1-x, 2-y, 3-z, 4-all directions 
   EPSILON=  1.0000000 bulk dielectric constant

 Exchange correlation treatment:
   GGA     =    PS    GGA type
   LEXCH   =    14    internal setting for exchange type
   VOSKOWN=      1    Vosko Wilk Nusair interpolation
   LHFCALC =     F    Hartree Fock is set to
   LHFONE  =     F    Hartree Fock one center treatment
   AEXX    =    0.0000 exact exchange contribution

 Linear response parameters
   LEPSILON=     F    determine dielectric tensor
   LRPA    =     F    only Hartree local field effects (RPA)
   LNABLA  =     F    use nabla operator in PAW spheres
   LVEL    =     F    velocity operator in full k-point grid
   LINTERFAST=   F  fast interpolation
   KINTER  =     0    interpolate to denser k-point grid
   CSHIFT  =0.1000    complex shift for real part using Kramers Kronig
   OMEGAMAX=  -1.0    maximum frequency
   DEG_THRESHOLD= 0.2000000E-02 threshold for treating states as degnerate
   RTIME   =   -0.100 relaxation time in fs
  (WPLASMAI=    0.000 imaginary part of plasma frequency in eV, 0.658/RTIME)
   DFIELD  = 0.0000000 0.0000000 0.0000000 field for delta impulse in time
 
 Orbital magnetization related:
   ORBITALMAG=     F  switch on orbital magnetization
   LCHIMAG   =     F  perturbation theory with respect to B field
   DQ        =  0.001000  dq finite difference perturbation B field
   LLRAUG    =     F  two centre corrections for induced B field



--------------------------------------------------------------------------------------------------------


 quasi-Newton-method for relaxation of ions
 charge density and potential will be updated during run
 spin polarized calculation
 Variant of blocked Davidson
 Davidson routine will perform the subspace rotation
 perform sub-space diagonalisation
    after iterative eigenvector-optimisation
 modified Broyden-mixing scheme, WC =      100.0
 initial mixing is a Kerker type mixing with AMIX =  0.4000 and BMIX =      1.0000
 Hartree-type preconditioning will be used
 using additional bands           71
 real space projection scheme for non local part
 use partial core corrections
 calculate Harris-corrections to forces 
   (improved forces if not selfconsistent)
 use gradient corrections 
 use of overlap-Matrix (Vanderbilt PP)
 Gauss-broadening in eV      SIGMA  =   0.05


--------------------------------------------------------------------------------------------------------


  energy-cutoff  :      500.00
  volume of cell :      525.27
      direct lattice vectors                 reciprocal lattice vectors
     0.000000000  5.536890569  0.000000000     0.000000000  0.180606784  0.000000000
    -3.546680766  0.000000000  9.603958244    -0.001081146  0.000000000  0.103724474
     9.840078591  0.000000000  0.102565556     0.101235525  0.000000000  0.037385636

  length of vectors
     5.536890569 10.237917679  9.840613110     0.180606784  0.103730109  0.107918105


 
 k-points in units of 2pi/SCALE and weight: Automatic mesh                          
   0.00000000  0.00000000  0.00000000       1.000
 
 k-points in reciprocal lattice and weights: Automatic mesh                          
   0.00000000  0.00000000  0.00000000       1.000
 
 position of ions in fractional coordinates (direct lattice) 
   0.52154437  0.25098775  0.26786661
   0.52154437  0.74901225  0.73213339
   0.97839743  0.24923431  0.73230341
   0.97839743  0.75076569  0.26769659
   0.25148962  0.25003509  0.99964525
   0.25148962  0.74996491  0.00035475
   0.99845558  0.00000000  0.00000000
   0.24978025  0.00175328  0.25086411
   0.24978025  0.99824672  0.74913589
   0.75020630  0.00290879  0.75153906
   0.75020630  0.99709121  0.24846094
   0.50126806  0.00000000  0.00000000
   0.99973356  0.00000000  0.50000000
   0.49975179  0.00000000  0.50000000
   0.00070153  0.50000000  0.50000000
   0.25083134  0.49824154  0.74936680
   0.25083134  0.50175846  0.25063320
   0.75020623  0.49680606  0.24854328
   0.75020623  0.50319394  0.75145672
   0.50083776  0.50000000  0.50000000
   0.99960884  0.50000000  0.00000000
   0.50235856  0.50000000  0.00000000
   0.99730455  0.39849761  0.64437037
   0.99730455  0.60150239  0.35562963
   0.99748619  0.09668428  0.36295386
   0.99748619  0.90331572  0.63704614
   0.24970711  0.39910452  0.88777786
   0.24970711  0.60089548  0.11222214
   0.75145870  0.59683936  0.11457407
   0.75145870  0.40316064  0.88542593
   0.25086510  0.10089172  0.11199030
   0.25086510  0.89910828  0.88800970
   0.74904009  0.90337530  0.88562143
   0.74904009  0.09662470  0.11437857
   0.50295431  0.40340566  0.63707041
   0.50295431  0.59659434  0.36292959
   0.50315285  0.10109005  0.35567199
   0.50315285  0.89890995  0.64432801
   0.00545090  0.40081147  0.13405251
   0.00545090  0.59918853  0.86594749
   0.00576797  0.10522844  0.85762809
   0.00576797  0.89477156  0.14237191
   0.25138066  0.40340517  0.38528912
   0.25138066  0.59659483  0.61471088
   0.74996402  0.59761510  0.61435285
   0.74996402  0.40238490  0.38564715
   0.24890323  0.09662482  0.61470711
   0.24890323  0.90337518  0.38529289
   0.75057768  0.90222313  0.38573749
   0.75057768  0.09777687  0.61426251
   0.49472541  0.39449025  0.14226200
   0.49472541  0.60550975  0.85773800
   0.49505122  0.09925378  0.86560231
   0.49505122  0.90074622  0.13439769
 
 position of ions in cartesian coordinates  (Angst):
   1.74565507  2.88773410  2.43794976
   4.54774276  2.88773410  7.26857404
   6.32196857  5.41727950  2.46874501
  -0.02857075  5.41727950  7.23777879
   8.94979318  1.39247051  2.50385574
  -2.65639535  1.39247051  7.20266807
   0.00000000  5.52833928  0.00000000
   2.46230423  1.38300591  0.04256844
   3.83109359  1.38300591  9.66395536
   7.38488687  4.15381019  0.10501792
  -1.09148904  4.15381019  9.60150588
   0.00000000  2.77546639  0.00000000
   4.92003930  5.53541532  0.05128278
   4.92003930  2.76707097  0.05128278
   3.14669891  0.00388429  4.85326190
   5.60672452  1.38882568  4.86195017
   0.68667331  1.38882568  4.84457363
   0.68367291  4.15380980  4.79679664
   5.60972491  4.15380980  4.90972716
   3.14669891  2.77308387  4.85326190
  -1.77334038  5.53472476  4.80197912
  -1.77334038  2.78150437  4.80197912
   4.92731127  5.52196616  3.89324461
   1.36608655  5.52196616  5.81327919
   3.22858623  5.52297188  0.96577835
   3.06481159  5.52297188  8.74074545
   7.32030759  1.38260094  3.92403858
  -1.02690976  1.38260094  5.78248523
  -0.98938083  4.16074459  5.74377165
   7.28277865  4.16074459  3.96275216
   0.74416263  1.38901261  0.98044621
   5.54923519  1.38901261  8.72607759
   5.51060067  4.14735301  8.76681291
   0.78279715  4.14735301  0.93971089
   4.83807181  2.78480298  3.93963260
   1.45532602  2.78480298  5.76689121
   3.14130620  2.78590227  1.00734431
   3.15209163  2.78590227  8.69917949
  -0.10246310  0.03018104  3.86312579
   6.39586092  0.03018104  5.84339801
   8.06591612  0.03193662  1.09857265
  -1.77251830  0.03193662  8.60795115
   2.36052586  1.39186721  3.91380380
   3.93287196  1.39186721  5.79272000
   3.92573035  4.15246871  5.80248191
   2.36766748  4.15246871  3.90404189
   5.70606888  1.37814995  0.99102851
   0.58732894  1.37814995  8.71549529
   0.59578980  4.15586648  8.70447665
   5.69760803  4.15586648  1.00204715
   0.00073828  2.73924046  3.80325907
   6.29265955  2.73924046  5.90326473
   8.16557329  2.74104443  1.04201014
  -1.87217546  2.74104443  8.66451366
 


--------------------------------------------------------------------------------------------------------


 use serial FFT for orbitals x direction half grid
 k-point  1 :   0.0000 0.0000 0.0000  plane waves:    6656

 maximum and minimum number of plane-waves per node :      6656     6656

 maximum number of plane-waves:      6656
 maximum index in each direction: 
   IXMAX=   10   IYMAX=   18   IZMAX=   17
   IXMIN=    0   IYMIN=  -18   IZMIN=  -17

 The following grids will avoid any aliasing or wrap around errors in the Hartre
 e energy
  - symmetry arguments have not been applied
  - exchange correlation energies might require even more grid points
  - we recommend to set PREC=Normal or Accurate and rely on VASP defaults
 WARNING: aliasing errors must be expected set NGX to    42 to avoid them
 NGY is ok and might be reduce to    80
 NGZ is ok and might be reduce to    70

 serial   3D FFT for wavefunctions
 parallel 3D FFT for charge:
    minimum data exchange during FFTs selected (reduces bandwidth)


 total amount of memory used by VASP MPI-rank0    88471. kBytes
=======================================================================

   base      :      30000. kBytes
   nonlr-proj:      20406. kBytes
   fftplans  :       4884. kBytes
   grid      :      28787. kBytes
   one-center:        839. kBytes
   wavefun   :       3555. kBytes
 
     INWAV:  cpu time    0.0000: real time    0.0000
 Broyden mixing: mesh for mixing (old mesh)
   NGX = 21   NGY = 37   NGZ = 35
  (NGX  = 80   NGY  =160   NGZ  =144)
  gives a total of  27195 points

 initial charge density was supplied:
 charge density of overlapping atoms calculated
 number of electron     370.0000000 magnetization      40.0000000
 keeping initial charge density in first step


--------------------------------------------------------------------------------------------------------


 Maximum index for non-local projection operator         5734
 Maximum index for augmentation-charges         1000 (set IRDMAX)


--------------------------------------------------------------------------------------------------------


 First call to EWALD:  gamma=   0.220
 Maximum number of real-space cells 4x 2x 2
 Maximum number of reciprocal cells 2x 3x 3

    FEWALD:  cpu time    0.0021: real time    0.0021


--------------------------------------- Iteration      1(   1)  ---------------------------------------


    POTLOK:  cpu time    0.1506: real time    0.1926
    SETDIJ:  cpu time    0.0188: real time    0.0188
     EDDAV:  cpu time    1.6592: real time    1.6657
    --------------------------------------------
      LOOP:  cpu time    1.8290: real time    1.8776

 eigenvalue-minimisations  :  1024
 total energy-change (2. order) : 0.6431646E+04  (-0.1621932E+05)
 number of electron     370.0000000 magnetization      40.0000000
 augmentation part      370.0000000 magnetization      40.0000000

 Free energy of the ion-electron system (eV)
  ---------------------------------------------------
  alpha Z        PSCENC =      1129.23583953
  Ewald energy   TEWEN  =    -20855.84904063
  -Hartree energ DENC   =    -12047.18362026
  -exchange      EXHF   =         0.00000000
  -V(xc)+E(xc)   XCENC  =      1503.06235016
  PAW double counting   =     26942.36450242   -28149.39347092
  entropy T*S    EENTRO =        -0.00000095
  eigenvalues    EBANDS =      5689.63343011
  atomic energy  EATOM  =     32219.77639703
  Solvation  Ediel_sol  =         0.00000000
  ---------------------------------------------------
  free energy    TOTEN  =      6431.64638649 eV

  energy without entropy =     6431.64638744  energy(sigma->0) =     6431.64638697


--------------------------------------------------------------------------------------------------------




--------------------------------------- Iteration      1(   2)  ---------------------------------------


     EDDAV:  cpu time    1.7795: real time    1.7837
    --------------------------------------------
      LOOP:  cpu time    1.7794: real time    1.7836

 eigenvalue-minimisations  :  1072
 total energy-change (2. order) :-0.5203013E+04  (-0.4604644E+04)
 number of electron     370.0000000 magnetization      40.0000000
 augmentation part      370.0000000 magnetization      40.0000000

 Free energy of the ion-electron system (eV)
  ---------------------------------------------------
  alpha Z        PSCENC =      1129.23583953
  Ewald energy   TEWEN  =    -20855.84904063
  -Hartree energ DENC   =    -12047.18362026
  -exchange      EXHF   =         0.00000000
  -V(xc)+E(xc)   XCENC  =      1503.06235016
  PAW double counting   =     26942.36450242   -28149.39347092
  entropy T*S    EENTRO =        -0.02600035
  eigenvalues    EBANDS =       486.64667705
  atomic energy  EATOM  =     32219.77639703
  Solvation  Ediel_sol  =         0.00000000
  ---------------------------------------------------
  free energy    TOTEN  =      1228.63363403 eV

  energy without entropy =     1228.65963438  energy(sigma->0) =     1228.64663420


--------------------------------------------------------------------------------------------------------




--------------------------------------- Iteration      1(   3)  ---------------------------------------


     EDDAV:  cpu time    1.8075: real time    1.8118
    --------------------------------------------
      LOOP:  cpu time    1.8076: real time    1.8118

 eigenvalue-minimisations  :  1136
 total energy-change (2. order) :-0.1437517E+04  (-0.1193670E+04)
 number of electron     370.0000000 magnetization      40.0000000
 augmentation part      370.0000000 magnetization      40.0000000

 Free energy of the ion-electron system (eV)
  ---------------------------------------------------
  alpha Z        PSCENC =      1129.23583953
  Ewald energy   TEWEN  =    -20855.84904063
  -Hartree energ DENC   =    -12047.18362026
  -exchange      EXHF   =         0.00000000
  -V(xc)+E(xc)   XCENC  =      1503.06235016
  PAW double counting   =     26942.36450242   -28149.39347092
  entropy T*S    EENTRO =        -0.07808589
  eigenvalues    EBANDS =      -950.81799355
  atomic energy  EATOM  =     32219.77639703
  Solvation  Ediel_sol  =         0.00000000
  ---------------------------------------------------
  free energy    TOTEN  =      -208.88312211 eV

  energy without entropy =     -208.80503622  energy(sigma->0) =     -208.84407916


--------------------------------------------------------------------------------------------------------




--------------------------------------- Iteration      1(   4)  ---------------------------------------


     EDDAV:  cpu time    1.9330: real time    1.9376
    --------------------------------------------
      LOOP:  cpu time    1.9331: real time    1.9376

 eigenvalue-minimisations  :  1232
 total energy-change (2. order) :-0.2247301E+03  (-0.2174460E+03)
 number of electron     370.0000000 magnetization      40.0000000
 augmentation part      370.0000000 magnetization      40.0000000

 Free energy of the ion-electron system (eV)
  ---------------------------------------------------
  alpha Z        PSCENC =      1129.23583953
  Ewald energy   TEWEN  =    -20855.84904063
  -Hartree energ DENC   =    -12047.18362026
  -exchange      EXHF   =         0.00000000
  -V(xc)+E(xc)   XCENC  =      1503.06235016
  PAW double counting   =     26942.36450242   -28149.39347092
  entropy T*S    EENTRO =        -0.15782935
  eigenvalues    EBANDS =     -1175.46838186
  atomic energy  EATOM  =     32219.77639703
  Solvation  Ediel_sol  =         0.00000000
  ---------------------------------------------------
  free energy    TOTEN  =      -433.61325388 eV

  energy without entropy =     -433.45542453  energy(sigma->0) =     -433.53433921


--------------------------------------------------------------------------------------------------------




--------------------------------------- Iteration      1(   5)  ---------------------------------------


     EDDAV:  cpu time    2.2335: real time    2.2388
    CHARGE:  cpu time    0.1372: real time    0.1375
    MIXING:  cpu time    0.0029: real time    0.0029
    --------------------------------------------
      LOOP:  cpu time    2.3732: real time    2.3789

 eigenvalue-minimisations  :  1488
 total energy-change (2. order) :-0.9546507E+01  (-0.9451176E+01)
 number of electron     370.0000160 magnetization      37.0304054
 augmentation part      109.2943961 magnetization      29.1893563

 Broyden mixing:
  rms(total) = 0.11732E+02    rms(broyden)= 0.11731E+02
  rms(prec ) = 0.14272E+02
  weight for this iteration     100.00

 Free energy of the ion-electron system (eV)
  ---------------------------------------------------
  alpha Z        PSCENC =      1129.23583953
  Ewald energy   TEWEN  =    -20855.84904063
  -Hartree energ DENC   =    -12047.18362026
  -exchange      EXHF   =         0.00000000
  -V(xc)+E(xc)   XCENC  =      1503.06235016
  PAW double counting   =     26942.36450242   -28149.39347092
  entropy T*S    EENTRO =        -0.16473153
  eigenvalues    EBANDS =     -1185.00798666
  atomic energy  EATOM  =     32219.77639703
  Solvation  Ediel_sol  =         0.00000000
  ---------------------------------------------------
  free energy    TOTEN  =      -443.15976087 eV

  energy without entropy =     -442.99502933  energy(sigma->0) =     -443.07739510


--------------------------------------------------------------------------------------------------------




--------------------------------------- Iteration      1(   6)  ---------------------------------------


    POTLOK:  cpu time    0.1311: real time    0.1314
    SETDIJ:  cpu time    0.0205: real time    0.0205
     EDDAV:  cpu time    2.2841: real time    2.2895
    CHARGE:  cpu time    0.1338: real time    0.1341
    MIXING:  cpu time    0.0036: real time    0.0036
    --------------------------------------------
      LOOP:  cpu time    2.5730: real time    2.5791

 eigenvalue-minimisations  :  1520
 total energy-change (2. order) :-0.7142673E+02  (-0.1037055E+03)
 number of electron     370.0000206 magnetization      32.7667510
 augmentation part      138.9037613 magnetization      28.6634763

 Broyden mixing:
  rms(total) = 0.20274E+02    rms(broyden)= 0.20273E+02
  rms(prec ) = 0.22553E+02
  weight for this iteration     100.00

 eigenvalues of (default mixing * dielectric matrix)
  average eigenvalue GAMMA=   0.2076
  0.2076

 Free energy of the ion-electron system (eV)
  ---------------------------------------------------
  alpha Z        PSCENC =      1129.23583953
  Ewald energy   TEWEN  =    -20855.84904063
  -Hartree energ DENC   =    -11517.08066248
  -exchange      EXHF   =         0.00000000
  -V(xc)+E(xc)   XCENC  =      1505.01864748
  PAW double counting   =     29872.48223993   -30906.03438282
  entropy T*S    EENTRO =        -0.06025131
  eigenvalues    EBANDS =     -1962.07527519
  atomic energy  EATOM  =     32219.77639703
  Solvation  Ediel_sol  =         0.00000000
  ---------------------------------------------------
  free energy    TOTEN  =      -514.58648847 eV

  energy without entropy =     -514.52623716  energy(sigma->0) =     -514.55636281


--------------------------------------------------------------------------------------------------------




--------------------------------------- Iteration      1(   7)  ---------------------------------------


    POTLOK:  cpu time    0.1307: real time    0.1310
    SETDIJ:  cpu time    0.0204: real time    0.0204
     EDDAV:  cpu time    2.1111: real time    2.1161
    CHARGE:  cpu time    0.1280: real time    0.1283
    MIXING:  cpu time    0.0033: real time    0.0033
    --------------------------------------------
      LOOP:  cpu time    2.3936: real time    2.3993

 eigenvalue-minimisations  :  1392
 total energy-change (2. order) : 0.1428570E+03  (-0.2820395E+02)
 number of electron     370.0000209 magnetization      24.6885108
 augmentation part      131.2785405 magnetization      23.9712152

 Broyden mixing:
  rms(total) = 0.79643E+01    rms(broyden)= 0.79634E+01
  rms(prec ) = 0.94022E+01
  weight for this iteration     100.00

 eigenvalues of (default mixing * dielectric matrix)
  average eigenvalue GAMMA=   0.5048
  0.5048  0.5048

 Free energy of the ion-electron system (eV)
  ---------------------------------------------------
  alpha Z        PSCENC =      1129.23583953
  Ewald energy   TEWEN  =    -20855.84904063
  -Hartree energ DENC   =    -11690.21867709
  -exchange      EXHF   =         0.00000000
  -V(xc)+E(xc)   XCENC  =      1499.46834988
  PAW double counting   =     31051.08426479   -32193.91614112
  entropy T*S    EENTRO =        -0.04180474
  eigenvalues    EBANDS =     -1531.26869045
  atomic energy  EATOM  =     32219.77639703
  Solvation  Ediel_sol  =         0.00000000
  ---------------------------------------------------
  free energy    TOTEN  =      -371.72950281 eV

  energy without entropy =     -371.68769806  energy(sigma->0) =     -371.70860044


--------------------------------------------------------------------------------------------------------




--------------------------------------- Iteration      1(   8)  ---------------------------------------


    POTLOK:  cpu time    0.1258: real time    0.1261
    SETDIJ:  cpu time    0.0199: real time    0.0199
     EDDAV:  cpu time    2.0495: real time    2.0543
    CHARGE:  cpu time    0.1273: real time    0.1276
    MIXING:  cpu time    0.0037: real time    0.0038
    --------------------------------------------
      LOOP:  cpu time    2.3261: real time    2.3316

 eigenvalue-minimisations  :  1344
 total energy-change (2. order) :-0.2418950E+02  (-0.2065082E+02)
 number of electron     370.0000173 magnetization      20.7495182
 augmentation part      119.4565421 magnetization      18.0641472

 Broyden mixing:
  rms(total) = 0.10809E+02    rms(broyden)= 0.10808E+02
  rms(prec ) = 0.15778E+02
  weight for this iteration     100.00

 eigenvalues of (default mixing * dielectric matrix)
  average eigenvalue GAMMA=   0.4814
  0.6093  0.6093  0.2255

 Free energy of the ion-electron system (eV)
  ---------------------------------------------------
  alpha Z        PSCENC =      1129.23583953
  Ewald energy   TEWEN  =    -20855.84904063
  -Hartree energ DENC   =    -11810.50908998
  -exchange      EXHF   =         0.00000000
  -V(xc)+E(xc)   XCENC  =      1494.90439667
  PAW double counting   =     32276.23395597   -33508.56354976
  entropy T*S    EENTRO =        -0.04925954
  eigenvalues    EBANDS =     -1341.09865304
  atomic energy  EATOM  =     32219.77639703
  Solvation  Ediel_sol  =         0.00000000
  ---------------------------------------------------
  free energy    TOTEN  =      -395.91900374 eV

  energy without entropy =     -395.86974421  energy(sigma->0) =     -395.89437398


--------------------------------------------------------------------------------------------------------




--------------------------------------- Iteration      1(   9)  ---------------------------------------


    POTLOK:  cpu time    0.1306: real time    0.1309
    SETDIJ:  cpu time    0.0204: real time    0.0204
     EDDAV:  cpu time    2.1647: real time    2.1698
    CHARGE:  cpu time    0.1333: real time    0.1336
    MIXING:  cpu time    0.0041: real time    0.0041
    --------------------------------------------
      LOOP:  cpu time    2.4530: real time    2.4588

 eigenvalue-minimisations  :  1424
 total energy-change (2. order) : 0.4199609E+02  (-0.1460277E+02)
 number of electron     370.0000188 magnetization      16.7415482
 augmentation part      119.8623268 magnetization      13.7999636

 Broyden mixing:
  rms(total) = 0.68270E+01    rms(broyden)= 0.68263E+01
  rms(prec ) = 0.88715E+01
  weight for this iteration     100.00

 eigenvalues of (default mixing * dielectric matrix)
  average eigenvalue GAMMA=   0.4719
  0.9012  0.4188  0.4188  0.1488

 Free energy of the ion-electron system (eV)
  ---------------------------------------------------
  alpha Z        PSCENC =      1129.23583953
  Ewald energy   TEWEN  =    -20855.84904063
  -Hartree energ DENC   =    -11774.50376390
  -exchange      EXHF   =         0.00000000
  -V(xc)+E(xc)   XCENC  =      1493.01829557
  PAW double counting   =     32864.14318686   -34103.76258669
  entropy T*S    EENTRO =        -0.05958444
  eigenvalues    EBANDS =     -1325.92165300
  atomic energy  EATOM  =     32219.77639703
  Solvation  Ediel_sol  =         0.00000000
  ---------------------------------------------------
  free energy    TOTEN  =      -353.92290967 eV

  energy without entropy =     -353.86332523  energy(sigma->0) =     -353.89311745


--------------------------------------------------------------------------------------------------------




--------------------------------------- Iteration      1(  10)  ---------------------------------------


    POTLOK:  cpu time    0.1298: real time    0.1301
    SETDIJ:  cpu time    0.0212: real time    0.0213
     EDDAV:  cpu time    2.0206: real time    2.0253
    CHARGE:  cpu time    0.1250: real time    0.1253
    MIXING:  cpu time    0.0037: real time    0.0037
    --------------------------------------------
      LOOP:  cpu time    2.3003: real time    2.3058

 eigenvalue-minimisations  :  1312
 total energy-change (2. order) : 0.4896320E+01  (-0.1052525E+02)
 number of electron     370.0000194 magnetization      12.8095626
 augmentation part      120.1892955 magnetization      11.5927954

 Broyden mixing:
  rms(total) = 0.52449E+01    rms(broyden)= 0.52440E+01
  rms(prec ) = 0.70194E+01
  weight for this iteration     100.00

 eigenvalues of (default mixing * dielectric matrix)
  average eigenvalue GAMMA=   0.4917
  1.2053  0.4356  0.4356  0.2148  0.1672

 Free energy of the ion-electron system (eV)
  ---------------------------------------------------
  alpha Z        PSCENC =      1129.23583953
  Ewald energy   TEWEN  =    -20855.84904063
  -Hartree energ DENC   =    -11757.85570205
  -exchange      EXHF   =         0.00000000
  -V(xc)+E(xc)   XCENC  =      1491.84865144
  PAW double counting   =     33687.16779601   -34942.70079852
  entropy T*S    EENTRO =        -0.03784949
  eigenvalues    EBANDS =     -1320.61188282
  atomic energy  EATOM  =     32219.77639703
  Solvation  Ediel_sol  =         0.00000000
  ---------------------------------------------------
  free energy    TOTEN  =      -349.02658950 eV

  energy without entropy =     -348.98874001  energy(sigma->0) =     -349.00766475


--------------------------------------------------------------------------------------------------------




--------------------------------------- Iteration      1(  11)  ---------------------------------------


    POTLOK:  cpu time    0.1263: real time    0.1266
    SETDIJ:  cpu time    0.0200: real time    0.0200
     EDDAV:  cpu time    1.9965: real time    2.0012
    CHARGE:  cpu time    0.1323: real time    0.1326
    MIXING:  cpu time    0.0040: real time    0.0040
    --------------------------------------------
      LOOP:  cpu time    2.2791: real time    2.2845

 eigenvalue-minimisations  :  1312
 total energy-change (2. order) : 0.1337373E+02  (-0.6426324E+01)
 number of electron     370.0000201 magnetization       9.5753358
 augmentation part      122.1924837 magnetization       8.5140040

 Broyden mixing:
  rms(total) = 0.26012E+01    rms(broyden)= 0.25995E+01
  rms(prec ) = 0.32106E+01
  weight for this iteration     100.00

 eigenvalues of (default mixing * dielectric matrix)
  average eigenvalue GAMMA=   0.5033
  1.1468  0.7285  0.4099  0.4099  0.1789  0.1460

 Free energy of the ion-electron system (eV)
  ---------------------------------------------------
  alpha Z        PSCENC =      1129.23583953
  Ewald energy   TEWEN  =    -20855.84904063
  -Hartree energ DENC   =    -11731.49248084
  -exchange      EXHF   =         0.00000000
  -V(xc)+E(xc)   XCENC  =      1490.82857612
  PAW double counting   =     34351.00614684   -35611.15964327
  entropy T*S    EENTRO =        -0.02033285
  eigenvalues    EBANDS =     -1327.97831723
  atomic energy  EATOM  =     32219.77639703
  Solvation  Ediel_sol  =         0.00000000
  ---------------------------------------------------
  free energy    TOTEN  =      -335.65285530 eV

  energy without entropy =     -335.63252245  energy(sigma->0) =     -335.64268888


--------------------------------------------------------------------------------------------------------




--------------------------------------- Iteration      1(  12)  ---------------------------------------


    POTLOK:  cpu time    0.1251: real time    0.1253
    SETDIJ:  cpu time    0.0208: real time    0.0208
     EDDAV:  cpu time    2.1159: real time    2.1209
    CHARGE:  cpu time    0.1281: real time    0.1284
    MIXING:  cpu time    0.0041: real time    0.0041
    --------------------------------------------
      LOOP:  cpu time    2.3939: real time    2.3996

 eigenvalue-minimisations  :  1424
 total energy-change (2. order) :-0.3665646E+01  (-0.5109624E+01)
 number of electron     370.0000198 magnetization       8.3813019
 augmentation part      121.9168876 magnetization       6.9809576

 Broyden mixing:
  rms(total) = 0.34523E+01    rms(broyden)= 0.34515E+01
  rms(prec ) = 0.45970E+01
  weight for this iteration     100.00

 eigenvalues of (default mixing * dielectric matrix)
  average eigenvalue GAMMA=   0.4847
  1.2381  0.7117  0.4387  0.4387  0.2376  0.1834  0.1449

 Free energy of the ion-electron system (eV)
  ---------------------------------------------------
  alpha Z        PSCENC =      1129.23583953
  Ewald energy   TEWEN  =    -20855.84904063
  -Hartree energ DENC   =    -11735.31280759
  -exchange      EXHF   =         0.00000000
  -V(xc)+E(xc)   XCENC  =      1490.51010670
  PAW double counting   =     34757.68762608   -36020.23480637
  entropy T*S    EENTRO =        -0.03967778
  eigenvalues    EBANDS =     -1325.09213778
  atomic energy  EATOM  =     32219.77639703
  Solvation  Ediel_sol  =         0.00000000
  ---------------------------------------------------
  free energy    TOTEN  =      -339.31850082 eV

  energy without entropy =     -339.27882304  energy(sigma->0) =     -339.29866193


--------------------------------------------------------------------------------------------------------




--------------------------------------- Iteration      1(  13)  ---------------------------------------


    POTLOK:  cpu time    0.1272: real time    0.1275
    SETDIJ:  cpu time    0.0206: real time    0.0206
     EDDAV:  cpu time    2.0626: real time    2.0675
    CHARGE:  cpu time    0.1167: real time    0.1170
    MIXING:  cpu time    0.0044: real time    0.0044
    --------------------------------------------
      LOOP:  cpu time    2.3315: real time    2.3371

 eigenvalue-minimisations  :  1392
 total energy-change (2. order) : 0.3729126E+01  (-0.2826393E+01)
 number of electron     370.0000202 magnetization       6.2211409
 augmentation part      121.9976213 magnetization       5.2617627

 Broyden mixing:
  rms(total) = 0.17027E+01    rms(broyden)= 0.17015E+01
  rms(prec ) = 0.21332E+01
  weight for this iteration     100.00

 eigenvalues of (default mixing * dielectric matrix)
  average eigenvalue GAMMA=   0.5246
  1.4586  0.6880  0.6880  0.4403  0.4403  0.1860  0.1642  0.1313

 Free energy of the ion-electron system (eV)
  ---------------------------------------------------
  alpha Z        PSCENC =      1129.23583953
  Ewald energy   TEWEN  =    -20855.84904063
  -Hartree energ DENC   =    -11738.66705822
  -exchange      EXHF   =         0.00000000
  -V(xc)+E(xc)   XCENC  =      1490.37754888
  PAW double counting   =     34926.58380126   -36190.67963838
  entropy T*S    EENTRO =        -0.01743543
  eigenvalues    EBANDS =     -1316.34978848
  atomic energy  EATOM  =     32219.77639703
  Solvation  Ediel_sol  =         0.00000000
  ---------------------------------------------------
  free energy    TOTEN  =      -335.58937444 eV

  energy without entropy =     -335.57193901  energy(sigma->0) =     -335.58065673


--------------------------------------------------------------------------------------------------------




--------------------------------------- Iteration      1(  14)  ---------------------------------------


    POTLOK:  cpu time    0.1232: real time    0.1235
    SETDIJ:  cpu time    0.0201: real time    0.0201
     EDDAV:  cpu time    1.8670: real time    1.8714
    CHARGE:  cpu time    0.1303: real time    0.1307
    MIXING:  cpu time    0.0045: real time    0.0045
    --------------------------------------------
      LOOP:  cpu time    2.1451: real time    2.1502

 eigenvalue-minimisations  :  1264
 total energy-change (2. order) :-0.4433197E+00  (-0.1060391E+01)
 number of electron     370.0000204 magnetization       4.7674939
 augmentation part      122.2903961 magnetization       3.9702739

 Broyden mixing:
  rms(total) = 0.18263E+01    rms(broyden)= 0.18258E+01
  rms(prec ) = 0.23590E+01
  weight for this iteration     100.00

 eigenvalues of (default mixing * dielectric matrix)
  average eigenvalue GAMMA=   0.5190
  1.5850  0.7474  0.7474  0.4392  0.4392  0.2451  0.1770  0.1542  0.1360

 Free energy of the ion-electron system (eV)
  ---------------------------------------------------
  alpha Z        PSCENC =      1129.23583953
  Ewald energy   TEWEN  =    -20855.84904063
  -Hartree energ DENC   =    -11734.14420047
  -exchange      EXHF   =         0.00000000
  -V(xc)+E(xc)   XCENC  =      1490.00001837
  PAW double counting   =     35241.23575312   -36506.78107559
  entropy T*S    EENTRO =        -0.03169443
  eigenvalues    EBANDS =     -1319.47469105
  atomic energy  EATOM  =     32219.77639703
  Solvation  Ediel_sol  =         0.00000000
  ---------------------------------------------------
  free energy    TOTEN  =      -336.03269412 eV

  energy without entropy =     -336.00099968  energy(sigma->0) =     -336.01684690


--------------------------------------------------------------------------------------------------------




--------------------------------------- Iteration      1(  15)  ---------------------------------------


    POTLOK:  cpu time    0.1313: real time    0.1316
    SETDIJ:  cpu time    0.0208: real time    0.0209
     EDDAV:  cpu time    1.9712: real time    1.9759
    CHARGE:  cpu time    0.1312: real time    0.1315
    MIXING:  cpu time    0.0045: real time    0.0045
    --------------------------------------------
      LOOP:  cpu time    2.2591: real time    2.2644

 eigenvalue-minimisations  :  1280
 total energy-change (2. order) : 0.3787733E+00  (-0.1499437E+01)
 number of electron     370.0000203 magnetization       3.3764659
 augmentation part      122.3848537 magnetization       3.1570223

 Broyden mixing:
  rms(total) = 0.13271E+01    rms(broyden)= 0.13264E+01
  rms(prec ) = 0.16354E+01
  weight for this iteration     100.00

 eigenvalues of (default mixing * dielectric matrix)
  average eigenvalue GAMMA=   0.5175
  1.5465  0.8324  0.8324  0.4696  0.4281  0.4281  0.1772  0.1772  0.1537  0.1298

 Free energy of the ion-electron system (eV)
  ---------------------------------------------------
  alpha Z        PSCENC =      1129.23583953
  Ewald energy   TEWEN  =    -20855.84904063
  -Hartree energ DENC   =    -11733.70463857
  -exchange      EXHF   =         0.00000000
  -V(xc)+E(xc)   XCENC  =      1489.82482276
  PAW double counting   =     35454.66074720   -36721.50555025
  entropy T*S    EENTRO =        -0.02331001
  eigenvalues    EBANDS =     -1318.06918789
  atomic energy  EATOM  =     32219.77639703
  Solvation  Ediel_sol  =         0.00000000
  ---------------------------------------------------
  free energy    TOTEN  =      -335.65392082 eV

  energy without entropy =     -335.63061081  energy(sigma->0) =     -335.64226582


--------------------------------------------------------------------------------------------------------




--------------------------------------- Iteration      1(  16)  ---------------------------------------


    POTLOK:  cpu time    0.1322: real time    0.1325
    SETDIJ:  cpu time    0.0209: real time    0.0209
     EDDAV:  cpu time    1.9467: real time    1.9513
    CHARGE:  cpu time    0.1314: real time    0.1317
    MIXING:  cpu time    0.0052: real time    0.0052
    --------------------------------------------
      LOOP:  cpu time    2.2363: real time    2.2416

 eigenvalue-minimisations  :  1248
 total energy-change (2. order) : 0.2066523E+00  (-0.4010548E+00)
 number of electron     370.0000205 magnetization       2.8836570
 augmentation part      122.3216106 magnetization       2.7459334

 Broyden mixing:
  rms(total) = 0.10894E+01    rms(broyden)= 0.10889E+01
  rms(prec ) = 0.13728E+01
  weight for this iteration     100.00

 eigenvalues of (default mixing * dielectric matrix)
  average eigenvalue GAMMA=   0.5062
  1.4325  0.8732  0.8732  0.6190  0.4000  0.4000  0.3396  0.1889  0.1674  0.1459
  0.1288

 Free energy of the ion-electron system (eV)
  ---------------------------------------------------
  alpha Z        PSCENC =      1129.23583953
  Ewald energy   TEWEN  =    -20855.84904063
  -Hartree energ DENC   =    -11736.31351045
  -exchange      EXHF   =         0.00000000
  -V(xc)+E(xc)   XCENC  =      1489.75707669
  PAW double counting   =     35604.53606587   -36871.92228884
  entropy T*S    EENTRO =        -0.00684130
  eigenvalues    EBANDS =     -1314.66096644
  atomic energy  EATOM  =     32219.77639703
  Solvation  Ediel_sol  =         0.00000000
  ---------------------------------------------------
  free energy    TOTEN  =      -335.44726853 eV

  energy without entropy =     -335.44042723  energy(sigma->0) =     -335.44384788


--------------------------------------------------------------------------------------------------------




--------------------------------------- Iteration      1(  17)  ---------------------------------------


    POTLOK:  cpu time    0.1309: real time    0.1312
    SETDIJ:  cpu time    0.0207: real time    0.0208
     EDDAV:  cpu time    2.0964: real time    2.1014
    CHARGE:  cpu time    0.1321: real time    0.1324
    MIXING:  cpu time    0.0054: real time    0.0054
    --------------------------------------------
      LOOP:  cpu time    2.3856: real time    2.3912

 eigenvalue-minimisations  :  1376
 total energy-change (2. order) : 0.1050418E+00  (-0.4135440E+00)
 number of electron     370.0000204 magnetization       2.3010818
 augmentation part      122.3608263 magnetization       2.1906389

 Broyden mixing:
  rms(total) = 0.92032E+00    rms(broyden)= 0.91979E+00
  rms(prec ) = 0.11597E+01
  weight for this iteration     100.00

 eigenvalues of (default mixing * dielectric matrix)
  average eigenvalue GAMMA=   0.5141
  1.3068  1.3068  0.6658  0.6658  0.6029  0.4251  0.4251  0.1971  0.1671  0.1530
  0.1365  0.1172

 Free energy of the ion-electron system (eV)
  ---------------------------------------------------
  alpha Z        PSCENC =      1129.23583953
  Ewald energy   TEWEN  =    -20855.84904063
  -Hartree energ DENC   =    -11737.36269774
  -exchange      EXHF   =         0.00000000
  -V(xc)+E(xc)   XCENC  =      1489.75306464
  PAW double counting   =     35631.50750034   -36897.99425643
  entropy T*S    EENTRO =        -0.01348150
  eigenvalues    EBANDS =     -1314.39555194
  atomic energy  EATOM  =     32219.77639703
  Solvation  Ediel_sol  =         0.00000000
  ---------------------------------------------------
  free energy    TOTEN  =      -335.34222668 eV

  energy without entropy =     -335.32874519  energy(sigma->0) =     -335.33548593


--------------------------------------------------------------------------------------------------------




--------------------------------------- Iteration      1(  18)  ---------------------------------------


    POTLOK:  cpu time    0.1300: real time    0.1303
    SETDIJ:  cpu time    0.0203: real time    0.0204
     EDDAV:  cpu time    1.9454: real time    1.9500
    CHARGE:  cpu time    0.1308: real time    0.1311
    MIXING:  cpu time    0.0056: real time    0.0057
    --------------------------------------------
      LOOP:  cpu time    2.2322: real time    2.2375

 eigenvalue-minimisations  :  1248
 total energy-change (2. order) :-0.7555443E-01  (-0.3853382E+00)
 number of electron     370.0000204 magnetization       1.7084903
 augmentation part      122.2415273 magnetization       1.6064873

 Broyden mixing:
  rms(total) = 0.93367E+00    rms(broyden)= 0.93314E+00
  rms(prec ) = 0.12262E+01
  weight for this iteration     100.00

 eigenvalues of (default mixing * dielectric matrix)
  average eigenvalue GAMMA=   0.5349
  1.5524  1.5524  0.7250  0.6591  0.6591  0.4302  0.4302  0.2354  0.1705  0.1705
  0.1450  0.1271  0.0970

 Free energy of the ion-electron system (eV)
  ---------------------------------------------------
  alpha Z        PSCENC =      1129.23583953
  Ewald energy   TEWEN  =    -20855.84904063
  -Hartree energ DENC   =    -11740.79475666
  -exchange      EXHF   =         0.00000000
  -V(xc)+E(xc)   XCENC  =      1489.78685833
  PAW double counting   =     35675.86474473   -36942.36825928
  entropy T*S    EENTRO =        -0.00884834
  eigenvalues    EBANDS =     -1311.06071582
  atomic energy  EATOM  =     32219.77639703
  Solvation  Ediel_sol  =         0.00000000
  ---------------------------------------------------
  free energy    TOTEN  =      -335.41778112 eV

  energy without entropy =     -335.40893278  energy(sigma->0) =     -335.41335695


--------------------------------------------------------------------------------------------------------




--------------------------------------- Iteration      1(  19)  ---------------------------------------


    POTLOK:  cpu time    0.1323: real time    0.1326
    SETDIJ:  cpu time    0.0209: real time    0.0210
     EDDAV:  cpu time    1.9545: real time    1.9591
    CHARGE:  cpu time    0.1311: real time    0.1314
    MIXING:  cpu time    0.0057: real time    0.0057
    --------------------------------------------
      LOOP:  cpu time    2.2446: real time    2.2499

 eigenvalue-minimisations  :  1264
 total energy-change (2. order) : 0.7490501E-01  (-0.2032830E+00)
 number of electron     370.0000205 magnetization       1.0823095
 augmentation part      122.1433229 magnetization       1.0370187

 Broyden mixing:
  rms(total) = 0.71081E+00    rms(broyden)= 0.71033E+00
  rms(prec ) = 0.90409E+00
  weight for this iteration     100.00

 eigenvalues of (default mixing * dielectric matrix)
  average eigenvalue GAMMA=   0.5548
  1.7343  1.7343  0.8796  0.6646  0.6646  0.4338  0.4338  0.3534  0.1779  0.1779
  0.1482  0.1482  0.1247  0.0914

 Free energy of the ion-electron system (eV)
  ---------------------------------------------------
  alpha Z        PSCENC =      1129.23583953
  Ewald energy   TEWEN  =    -20855.84904063
  -Hartree energ DENC   =    -11744.32144058
  -exchange      EXHF   =         0.00000000
  -V(xc)+E(xc)   XCENC  =      1489.83234789
  PAW double counting   =     35723.57304572   -36990.21869718
  entropy T*S    EENTRO =        -0.00091982
  eigenvalues    EBANDS =     -1307.37040807
  atomic energy  EATOM  =     32219.77639703
  Solvation  Ediel_sol  =         0.00000000
  ---------------------------------------------------
  free energy    TOTEN  =      -335.34287611 eV

  energy without entropy =     -335.34195629  energy(sigma->0) =     -335.34241620


--------------------------------------------------------------------------------------------------------




--------------------------------------- Iteration      1(  20)  ---------------------------------------


    POTLOK:  cpu time    0.1324: real time    0.1327
    SETDIJ:  cpu time    0.0201: real time    0.0201
     EDDAV:  cpu time    2.0197: real time    2.0245
    CHARGE:  cpu time    0.1317: real time    0.1320
    MIXING:  cpu time    0.0058: real time    0.0058
    --------------------------------------------
      LOOP:  cpu time    2.3097: real time    2.3152

 eigenvalue-minimisations  :  1312
 total energy-change (2. order) : 0.7885881E-01  (-0.1417667E+00)
 number of electron     370.0000204 magnetization       0.4239839
 augmentation part      122.1822482 magnetization       0.3518714

 Broyden mixing:
  rms(total) = 0.47405E+00    rms(broyden)= 0.47364E+00
  rms(prec ) = 0.59655E+00
  weight for this iteration     100.00

 eigenvalues of (default mixing * dielectric matrix)
  average eigenvalue GAMMA=   0.5733
  1.9480  1.9480  0.7016  0.7016  0.7024  0.6611  0.4292  0.4292  0.2256  0.1800
  0.1754  0.1484  0.1382  0.1224  0.0889

 Free energy of the ion-electron system (eV)
  ---------------------------------------------------
  alpha Z        PSCENC =      1129.23583953
  Ewald energy   TEWEN  =    -20855.84904063
  -Hartree energ DENC   =    -11745.91834104
  -exchange      EXHF   =         0.00000000
  -V(xc)+E(xc)   XCENC  =      1489.87090238
  PAW double counting   =     35769.20387414   -37034.92451008
  entropy T*S    EENTRO =        -0.02761515
  eigenvalues    EBANDS =     -1306.63152349
  atomic energy  EATOM  =     32219.77639703
  Solvation  Ediel_sol  =         0.00000000
  ---------------------------------------------------
  free energy    TOTEN  =      -335.26401730 eV

  energy without entropy =     -335.23640215  energy(sigma->0) =     -335.25020973


--------------------------------------------------------------------------------------------------------




--------------------------------------- Iteration      1(  21)  ---------------------------------------


    POTLOK:  cpu time    0.1318: real time    0.1321
    SETDIJ:  cpu time    0.0203: real time    0.0204
     EDDAV:  cpu time    2.0464: real time    2.0512
    CHARGE:  cpu time    0.1191: real time    0.1194
    MIXING:  cpu time    0.0059: real time    0.0059
    --------------------------------------------
      LOOP:  cpu time    2.3235: real time    2.3290

 eigenvalue-minimisations  :  1344
 total energy-change (2. order) : 0.5969733E-01  (-0.4070103E-01)
 number of electron     370.0000205 magnetization       0.2073553
 augmentation part      122.2181522 magnetization       0.1923699

 Broyden mixing:
  rms(total) = 0.21065E+00    rms(broyden)= 0.21047E+00
  rms(prec ) = 0.28247E+00
  weight for this iteration     100.00

 eigenvalues of (default mixing * dielectric matrix)
  average eigenvalue GAMMA=   0.5923
  2.0679  2.0679  0.7493  0.7493  0.7224  0.7224  0.4258  0.4258  0.4611  0.2322
  0.1771  0.1771  0.1457  0.1415  0.1228  0.0891

 Free energy of the ion-electron system (eV)
  ---------------------------------------------------
  alpha Z        PSCENC =      1129.23583953
  Ewald energy   TEWEN  =    -20855.84904063
  -Hartree energ DENC   =    -11747.99763749
  -exchange      EXHF   =         0.00000000
  -V(xc)+E(xc)   XCENC  =      1489.94436907
  PAW double counting   =     35829.66100600   -37094.69324417
  entropy T*S    EENTRO =        -0.01174925
  eigenvalues    EBANDS =     -1305.27026005
  atomic energy  EATOM  =     32219.77639703
  Solvation  Ediel_sol  =         0.00000000
  ---------------------------------------------------
  free energy    TOTEN  =      -335.20431997 eV

  energy without entropy =     -335.19257072  energy(sigma->0) =     -335.19844534


--------------------------------------------------------------------------------------------------------




--------------------------------------- Iteration      1(  22)  ---------------------------------------


    POTLOK:  cpu time    0.1230: real time    0.1233
    SETDIJ:  cpu time    0.0199: real time    0.0199
     EDDAV:  cpu time    2.1985: real time    2.2037
    CHARGE:  cpu time    0.1303: real time    0.1306
    MIXING:  cpu time    0.0066: real time    0.0066
    --------------------------------------------
      LOOP:  cpu time    2.4783: real time    2.4842

 eigenvalue-minimisations  :  1456
 total energy-change (2. order) :-0.1145524E-01  (-0.2478088E-01)
 number of electron     370.0000204 magnetization       0.1741807
 augmentation part      122.2232250 magnetization       0.1675442

 Broyden mixing:
  rms(total) = 0.31316E+00    rms(broyden)= 0.31302E+00
  rms(prec ) = 0.37242E+00
  weight for this iteration     100.00

 eigenvalues of (default mixing * dielectric matrix)
  average eigenvalue GAMMA=   0.5647
  2.0774  2.0774  0.7476  0.7476  0.7275  0.7275  0.4259  0.4259  0.4582  0.2292
  0.1771  0.1771  0.1460  0.1410  0.1227  0.0890  0.1022

 Free energy of the ion-electron system (eV)
  ---------------------------------------------------
  alpha Z        PSCENC =      1129.23583953
  Ewald energy   TEWEN  =    -20855.84904063
  -Hartree energ DENC   =    -11749.15851838
  -exchange      EXHF   =         0.00000000
  -V(xc)+E(xc)   XCENC  =      1490.01822809
  PAW double counting   =     35853.35247835   -37118.20535667
  entropy T*S    EENTRO =        -0.01196662
  eigenvalues    EBANDS =     -1304.37383590
  atomic energy  EATOM  =     32219.77639703
  Solvation  Ediel_sol  =         0.00000000
  ---------------------------------------------------
  free energy    TOTEN  =      -335.21577520 eV

  energy without entropy =     -335.20380858  energy(sigma->0) =     -335.20979189


--------------------------------------------------------------------------------------------------------




--------------------------------------- Iteration      1(  23)  ---------------------------------------


    POTLOK:  cpu time    0.1316: real time    0.1320
    SETDIJ:  cpu time    0.0196: real time    0.0196
     EDDAV:  cpu time    2.0974: real time    2.1023
    CHARGE:  cpu time    0.1295: real time    0.1298
    MIXING:  cpu time    0.0067: real time    0.0067
    --------------------------------------------
      LOOP:  cpu time    2.3848: real time    2.3904

 eigenvalue-minimisations  :  1376
 total energy-change (2. order) : 0.8693117E-02  (-0.5569467E-02)
 number of electron     370.0000204 magnetization       0.1742822
 augmentation part      122.2185873 magnetization       0.1680496

 Broyden mixing:
  rms(total) = 0.23304E+00    rms(broyden)= 0.23301E+00
  rms(prec ) = 0.26907E+00
  weight for this iteration     100.00

 eigenvalues of (default mixing * dielectric matrix)
  average eigenvalue GAMMA=   0.5733
  2.1329  2.1329  0.5299  0.8203  0.8203  0.6918  0.6918  0.4271  0.4271  0.4596
  0.2280  0.1771  0.1771  0.1460  0.1413  0.1229  0.0890  0.1043

 Free energy of the ion-electron system (eV)
  ---------------------------------------------------
  alpha Z        PSCENC =      1129.23583953
  Ewald energy   TEWEN  =    -20855.84904063
  -Hartree energ DENC   =    -11749.30152628
  -exchange      EXHF   =         0.00000000
  -V(xc)+E(xc)   XCENC  =      1490.02971353
  PAW double counting   =     35858.99348314   -37123.90654410
  entropy T*S    EENTRO =        -0.01028206
  eigenvalues    EBANDS =     -1304.17512224
  atomic energy  EATOM  =     32219.77639703
  Solvation  Ediel_sol  =         0.00000000
  ---------------------------------------------------
  free energy    TOTEN  =      -335.20708209 eV

  energy without entropy =     -335.19680002  energy(sigma->0) =     -335.20194106


--------------------------------------------------------------------------------------------------------




--------------------------------------- Iteration      1(  24)  ---------------------------------------


    POTLOK:  cpu time    0.1313: real time    0.1316
    SETDIJ:  cpu time    0.0205: real time    0.0206
     EDDAV:  cpu time    1.8163: real time    1.8206
    CHARGE:  cpu time    0.1258: real time    0.1261
    MIXING:  cpu time    0.0066: real time    0.0066
    --------------------------------------------
      LOOP:  cpu time    2.1005: real time    2.1055

 eigenvalue-minimisations  :  1152
 total energy-change (2. order) : 0.6191095E-03  (-0.4065234E-03)
 number of electron     370.0000204 magnetization       0.0363649
 augmentation part      122.2166953 magnetization       0.0323995

 Broyden mixing:
  rms(total) = 0.24719E+00    rms(broyden)= 0.24719E+00
  rms(prec ) = 0.28291E+00
  weight for this iteration     100.00

 eigenvalues of (default mixing * dielectric matrix)
  average eigenvalue GAMMA=   0.5671
  2.1348  2.1348  0.9831  0.9831  0.6849  0.6849  0.4288  0.4288  0.4513  0.4513
  0.1681  0.1681  0.2211  0.1771  0.1771  0.1464  0.1403  0.1227  0.0890

 Free energy of the ion-electron system (eV)
  ---------------------------------------------------
  alpha Z        PSCENC =      1129.23583953
  Ewald energy   TEWEN  =    -20855.84904063
  -Hartree energ DENC   =    -11749.31104945
  -exchange      EXHF   =         0.00000000
  -V(xc)+E(xc)   XCENC  =      1490.02946133
  PAW double counting   =     35858.83264585   -37123.74422397
  entropy T*S    EENTRO =        -0.00987911
  eigenvalues    EBANDS =     -1304.16661356
  atomic energy  EATOM  =     32219.77639703
  Solvation  Ediel_sol  =         0.00000000
  ---------------------------------------------------
  free energy    TOTEN  =      -335.20646298 eV

  energy without entropy =     -335.19658387  energy(sigma->0) =     -335.20152342


--------------------------------------------------------------------------------------------------------




--------------------------------------- Iteration      1(  25)  ---------------------------------------


    POTLOK:  cpu time    0.1267: real time    0.1270
    SETDIJ:  cpu time    0.0197: real time    0.0198
     EDDAV:  cpu time    2.0390: real time    2.0438
    CHARGE:  cpu time    0.1290: real time    0.1293
    MIXING:  cpu time    0.0063: real time    0.0063
    --------------------------------------------
      LOOP:  cpu time    2.3207: real time    2.3262

 eigenvalue-minimisations  :  1344
 total energy-change (2. order) :-0.1439315E-01  (-0.1043010E-01)
 number of electron     370.0000204 magnetization      -0.0106233
 augmentation part      122.2180887 magnetization      -0.0148592

 Broyden mixing:
  rms(total) = 0.34843E+00    rms(broyden)= 0.34839E+00
  rms(prec ) = 0.41555E+00
  weight for this iteration     100.00

 eigenvalues of (default mixing * dielectric matrix)
  average eigenvalue GAMMA=   0.5609
  2.0136  2.0136  1.0860  1.0860  0.6956  0.6956  0.5363  0.5363  0.4300  0.4300
  0.3291  0.2288  0.1420  0.1420  0.1770  0.1770  0.1463  0.1405  0.1227  0.0890

 Free energy of the ion-electron system (eV)
  ---------------------------------------------------
  alpha Z        PSCENC =      1129.23583953
  Ewald energy   TEWEN  =    -20855.84904063
  -Hartree energ DENC   =    -11750.38855012
  -exchange      EXHF   =         0.00000000
  -V(xc)+E(xc)   XCENC  =      1490.09699037
  PAW double counting   =     35876.12009851   -37141.13632139
  entropy T*S    EENTRO =        -0.01094997
  eigenvalues    EBANDS =     -1303.06531945
  atomic energy  EATOM  =     32219.77639703
  Solvation  Ediel_sol  =         0.00000000
  ---------------------------------------------------
  free energy    TOTEN  =      -335.22085612 eV

  energy without entropy =     -335.20990615  energy(sigma->0) =     -335.21538114


--------------------------------------------------------------------------------------------------------




--------------------------------------- Iteration      1(  26)  ---------------------------------------


    POTLOK:  cpu time    0.1304: real time    0.1307
    SETDIJ:  cpu time    0.0211: real time    0.0212
     EDDAV:  cpu time    2.1075: real time    2.1124
    CHARGE:  cpu time    0.1227: real time    0.1229
    MIXING:  cpu time    0.0071: real time    0.0071
    --------------------------------------------
      LOOP:  cpu time    2.3888: real time    2.3945

 eigenvalue-minimisations  :  1408
 total energy-change (2. order) :-0.2676683E-02  (-0.1283873E-02)
 number of electron     370.0000204 magnetization      -0.0057324
 augmentation part      122.2224342 magnetization      -0.0174261

 Broyden mixing:
  rms(total) = 0.31656E+00    rms(broyden)= 0.31656E+00
  rms(prec ) = 0.38170E+00
  weight for this iteration     100.00

 eigenvalues of (default mixing * dielectric matrix)
  average eigenvalue GAMMA=   0.5822
  1.9981  1.9981  1.1211  1.1211  0.7767  0.7767  0.7444  0.7444  0.5118  0.4289
  0.4289  0.2310  0.2136  0.1771  0.1771  0.1463  0.1404  0.1226  0.0890  0.1391
  0.1391

 Free energy of the ion-electron system (eV)
  ---------------------------------------------------
  alpha Z        PSCENC =      1129.23583953
  Ewald energy   TEWEN  =    -20855.84904063
  -Hartree energ DENC   =    -11750.45002151
  -exchange      EXHF   =         0.00000000
  -V(xc)+E(xc)   XCENC  =      1490.12075954
  PAW double counting   =     35888.58466404   -37153.82810425
  entropy T*S    EENTRO =        -0.00866262
  eigenvalues    EBANDS =     -1302.80536393
  atomic energy  EATOM  =     32219.77639703
  Solvation  Ediel_sol  =         0.00000000
  ---------------------------------------------------
  free energy    TOTEN  =      -335.22353281 eV

  energy without entropy =     -335.21487019  energy(sigma->0) =     -335.21920150


--------------------------------------------------------------------------------------------------------




--------------------------------------- Iteration      1(  27)  ---------------------------------------


    POTLOK:  cpu time    0.1323: real time    0.1326
    SETDIJ:  cpu time    0.0208: real time    0.0208
     EDDAV:  cpu time    2.1934: real time    2.1986
    CHARGE:  cpu time    0.1242: real time    0.1245
    MIXING:  cpu time    0.0074: real time    0.0074
    --------------------------------------------
      LOOP:  cpu time    2.4780: real time    2.4839

 eigenvalue-minimisations  :  1488
 total energy-change (2. order) : 0.5327706E-03  (-0.1979002E-02)
 number of electron     370.0000204 magnetization       0.0082154
 augmentation part      122.2216472 magnetization      -0.0127448

 Broyden mixing:
  rms(total) = 0.29785E+00    rms(broyden)= 0.29785E+00
  rms(prec ) = 0.36457E+00
  weight for this iteration     100.00

 eigenvalues of (default mixing * dielectric matrix)
  average eigenvalue GAMMA=   0.5854
  2.0448  2.0448  1.2386  1.2386  0.7864  0.7864  0.7645  0.7645  0.5186  0.4287
  0.4287  0.2640  0.1414  0.1414  0.2177  0.2177  0.1769  0.1769  0.1463  0.1405
  0.1227  0.0890

 Free energy of the ion-electron system (eV)
  ---------------------------------------------------
  alpha Z        PSCENC =      1129.23583953
  Ewald energy   TEWEN  =    -20855.84904063
  -Hartree energ DENC   =    -11750.44667157
  -exchange      EXHF   =         0.00000000
  -V(xc)+E(xc)   XCENC  =      1490.12796407
  PAW double counting   =     35894.18940337   -37159.59549739
  entropy T*S    EENTRO =        -0.00731125
  eigenvalues    EBANDS =     -1302.65408320
  atomic energy  EATOM  =     32219.77639703
  Solvation  Ediel_sol  =         0.00000000
  ---------------------------------------------------
  free energy    TOTEN  =      -335.22300004 eV

[...]
     9.847827105  0.000000000  0.107085028     0.101142660  0.000000000  0.037022662

  length of vectors
     5.538272193 10.315630749  9.848409308     0.180561728  0.102827420  0.107705688


 FORCES acting on ions
    electron-ion (+dipol)            ewald-force                    non-local-force                 convergence-correction
 -----------------------------------------------------------------------------------------------
   -.103E+02 -.181E+00 0.155E+01   0.110E+02 0.567E+00 -.168E+01   -.656E+00 -.364E+00 0.120E+00   0.719E-02 -.305E-02 0.332E-03
   0.103E+02 -.181E+00 -.155E+01   -.110E+02 0.567E+00 0.168E+01   0.656E+00 -.364E+00 -.120E+00   -.719E-02 -.305E-02 -.332E-03
   0.103E+02 0.134E+00 -.151E+01   -.109E+02 -.523E+00 0.163E+01   0.654E+00 0.370E+00 -.119E+00   -.632E-02 0.188E-02 -.361E-02
   -.103E+02 0.134E+00 0.151E+01   0.109E+02 -.523E+00 -.163E+01   -.654E+00 0.370E+00 0.119E+00   0.632E-02 0.188E-02 0.361E-02
   0.133E-01 0.147E+00 0.101E+00   -.155E-01 -.137E+00 -.104E+00   0.524E-02 -.152E-01 -.124E-02   -.196E-02 0.296E-02 0.366E-02
   -.133E-01 0.147E+00 -.101E+00   0.155E-01 -.137E+00 0.104E+00   -.524E-02 -.152E-01 0.124E-02   0.196E-02 0.296E-02 -.366E-02
   -.149E-04 0.209E+02 0.334E-05   -.355E-13 -.212E+02 0.995E-13   0.000E+00 0.355E+00 -.743E-25   0.982E-11 0.801E-02 -.363E-11
   -.306E+02 -.173E-01 -.483E+02   0.310E+02 -.332E-01 0.487E+02   -.463E+00 0.331E-01 -.400E+00   0.525E-01 0.173E-01 0.150E-02
   0.306E+02 -.173E-01 0.483E+02   -.310E+02 -.332E-01 -.487E+02   0.463E+00 0.331E-01 0.400E+00   -.525E-01 0.173E-01 -.150E-02
   0.135E+02 0.133E+01 -.139E+02   -.136E+02 -.131E+01 0.139E+02   0.176E+00 -.133E-02 0.432E-01   -.528E-01 -.211E-01 -.157E-02
   -.135E+02 0.133E+01 0.139E+02   0.136E+02 -.131E+01 -.139E+02   -.176E+00 -.133E-02 -.432E-01   0.528E-01 -.211E-01 0.157E-02
   0.663E-07 -.238E+02 -.149E-07   -.114E-12 0.242E+02 0.114E-12   0.000E+00 -.374E+00 0.000E+00   0.897E-11 -.101E-01 0.584E-11
   -.504E-05 -.372E+01 0.118E-05   0.924E-13 0.363E+01 0.107E-13   0.000E+00 0.971E-01 0.485E-25   -.222E-10 0.690E-03 0.104E-10
   -.686E-05 0.201E+01 0.161E-05   0.711E-14 -.184E+01 0.124E-12   0.000E+00 -.171E+00 -.969E-26   -.797E-11 -.860E-02 0.237E-12
   0.997E-05 -.204E+01 -.234E-05   -.249E-13 0.187E+01 -.222E-13   0.000E+00 0.166E+00 0.404E-26   -.116E-10 0.148E-01 -.556E-11
   0.306E+02 0.370E-01 0.483E+02   -.310E+02 -.170E-01 -.487E+02   0.463E+00 -.347E-01 0.397E+00   -.116E-01 0.159E-01 0.222E-02
   -.306E+02 0.370E-01 -.483E+02   0.310E+02 -.170E-01 0.487E+02   -.463E+00 -.347E-01 -.397E+00   0.116E-01 0.159E-01 -.222E-02
   -.135E+02 -.133E+01 0.142E+02   0.137E+02 0.134E+01 -.141E+02   -.177E+00 0.452E-02 -.368E-01   0.109E-01 -.109E-01 0.854E-03
   0.135E+02 -.133E+01 -.142E+02   -.137E+02 0.134E+01 0.141E+02   0.177E+00 0.452E-02 0.368E-01   -.109E-01 -.109E-01 -.854E-03
   0.844E-05 0.376E+01 -.198E-05   -.107E-13 -.366E+01 -.551E-13   0.000E+00 -.921E-01 -.808E-27   -.134E-10 -.895E-02 -.113E-11
   0.361E-05 0.238E+02 -.811E-06   0.480E-13 -.242E+02 -.213E-12   0.000E+00 0.371E+00 0.162E-25   0.139E-10 0.112E-01 -.407E-11
   0.171E-04 -.209E+02 -.385E-05   -.266E-14 0.213E+02 -.114E-12   0.000E+00 -.358E+00 -.323E-26   0.466E-11 -.956E-02 -.734E-11
   0.763E+02 -.113E+01 0.372E+03   -.833E+02 0.828E+00 -.392E+03   0.709E+01 0.288E+00 0.198E+02   -.118E-01 0.138E-01 -.198E-01
   -.763E+02 -.113E+01 -.372E+03   0.833E+02 0.828E+00 0.392E+03   -.709E+01 0.288E+00 -.198E+02   0.118E-01 0.138E-01 0.198E-01
   -.119E+02 -.140E+00 -.408E+03   0.119E+02 -.282E+00 0.434E+03   0.146E-01 0.407E+00 -.254E+02   0.201E-01 0.139E-01 0.135E-01
   0.119E+02 -.140E+00 0.408E+03   -.119E+02 -.282E+00 -.434E+03   -.146E-01 0.407E+00 0.254E+02   -.201E-01 0.139E-01 -.135E-01
   0.334E+02 -.341E+02 0.358E+03   -.365E+02 0.361E+02 -.377E+03   0.314E+01 -.198E+01 0.192E+02   -.617E-02 0.116E-01 -.106E-01
   -.334E+02 -.341E+02 -.358E+03   0.365E+02 0.361E+02 0.377E+03   -.314E+01 -.198E+01 -.192E+02   0.617E-02 0.116E-01 0.106E-01
   -.619E+01 0.352E+02 -.366E+03   0.666E+01 -.373E+02 0.388E+03   -.468E+00 0.210E+01 -.219E+02   -.427E-02 -.141E-01 0.167E-01
   0.619E+01 0.352E+02 0.366E+03   -.666E+01 -.373E+02 -.388E+03   0.468E+00 0.210E+01 0.219E+02   0.427E-02 -.141E-01 -.167E-01
   -.332E+02 0.343E+02 -.358E+03   0.363E+02 -.363E+02 0.377E+03   -.312E+01 0.200E+01 -.192E+02   0.190E-01 0.139E-01 0.222E-01
   0.332E+02 0.343E+02 0.358E+03   -.363E+02 -.363E+02 -.377E+03   0.312E+01 0.200E+01 0.192E+02   -.190E-01 0.139E-01 -.222E-01
   0.616E+01 -.353E+02 0.366E+03   -.661E+01 0.374E+02 -.388E+03   0.464E+00 -.210E+01 0.220E+02   -.954E-02 -.116E-01 -.273E-01
   -.616E+01 -.353E+02 -.366E+03   0.661E+01 0.374E+02 0.388E+03   -.464E+00 -.210E+01 -.220E+02   0.954E-02 -.116E-01 0.273E-01
   0.118E+02 0.150E+00 0.408E+03   -.118E+02 0.274E+00 -.434E+03   -.238E-01 -.410E+00 0.254E+02   -.726E-02 -.145E-01 -.213E-01
   -.118E+02 0.150E+00 -.408E+03   0.118E+02 0.274E+00 0.434E+03   0.238E-01 -.410E+00 -.254E+02   0.726E-02 -.145E-01 0.213E-01
   -.763E+02 0.107E+01 -.372E+03   0.834E+02 -.764E+00 0.392E+03   -.709E+01 -.294E+00 -.198E+02   0.415E-01 -.142E-01 0.133E-02
   0.763E+02 0.107E+01 0.372E+03   -.834E+02 -.764E+00 -.392E+03   0.709E+01 -.294E+00 0.198E+02   -.415E-01 -.142E-01 -.133E-02
   -.226E+02 0.276E+02 0.369E+03   0.241E+02 -.295E+02 -.390E+03   -.148E+01 0.194E+01 0.210E+02   0.711E-02 0.135E-01 -.912E-02
   0.226E+02 0.276E+02 -.369E+03   -.241E+02 -.295E+02 0.390E+03   0.148E+01 0.194E+01 -.210E+02   -.711E-02 0.135E-01 0.912E-02
   -.383E+02 0.258E+02 -.343E+03   0.431E+02 -.274E+02 0.361E+03   -.477E+01 0.160E+01 -.178E+02   -.251E-01 0.143E-01 0.136E-01
   0.383E+02 0.258E+02 0.343E+03   -.431E+02 -.274E+02 -.361E+03   0.477E+01 0.160E+01 0.178E+02   0.251E-01 0.143E-01 -.136E-01
   -.285E+02 0.365E+02 0.365E+03   0.284E+02 -.390E+02 -.387E+03   0.135E+00 0.245E+01 0.223E+02   0.455E-02 -.133E-02 -.313E-02
   0.285E+02 0.365E+02 -.365E+03   -.284E+02 -.390E+02 0.387E+03   -.135E+00 0.245E+01 -.223E+02   -.455E-02 -.133E-02 0.313E-02
   0.279E+02 -.406E+02 -.360E+03   -.287E+02 0.437E+02 0.381E+03   0.865E+00 -.310E+01 -.208E+02   -.151E-01 0.888E-04 0.908E-02
   -.279E+02 -.406E+02 0.360E+03   0.287E+02 0.437E+02 -.381E+03   -.865E+00 -.310E+01 0.208E+02   0.151E-01 0.888E-04 -.908E-02
   0.284E+02 -.364E+02 -.365E+03   -.283E+02 0.388E+02 0.387E+03   -.143E+00 -.244E+01 -.223E+02   -.182E-01 0.309E-01 -.162E-01
   -.284E+02 -.364E+02 0.365E+03   0.283E+02 0.388E+02 -.387E+03   0.143E+00 -.244E+01 0.223E+02   0.182E-01 0.309E-01 0.162E-01
   -.278E+02 0.406E+02 0.360E+03   0.287E+02 -.436E+02 -.381E+03   -.864E+00 0.310E+01 0.208E+02   0.289E-01 -.301E-01 0.108E-01
   0.278E+02 0.406E+02 -.360E+03   -.287E+02 -.436E+02 0.381E+03   0.864E+00 0.310E+01 -.208E+02   -.289E-01 -.301E-01 -.108E-01
   0.382E+02 -.259E+02 0.343E+03   -.429E+02 0.275E+02 -.361E+03   0.474E+01 -.160E+01 0.177E+02   -.104E-02 -.147E-01 -.427E-02
   -.382E+02 -.259E+02 -.343E+03   0.429E+02 0.275E+02 0.361E+03   -.474E+01 -.160E+01 -.177E+02   0.104E-02 -.147E-01 0.427E-02
   0.228E+02 -.276E+02 -.369E+03   -.242E+02 0.296E+02 0.390E+03   0.150E+01 -.195E+01 -.210E+02   -.213E-01 -.123E-01 0.938E-02
   -.228E+02 -.276E+02 0.369E+03   0.242E+02 0.296E+02 -.390E+03   -.150E+01 -.195E+01 0.210E+02   0.213E-01 -.123E-01 -.938E-02
 -----------------------------------------------------------------------------------------------
   0.257E-04 0.295E-01 -.565E-05   0.000E+00 -.128E-12 0.512E-12   -.444E-15 -.349E-01 -.355E-14   -.139E-11 0.179E-02 -.185E-10
 
 
 POSITION                                       TOTAL-FORCE (eV/Angst)
 -----------------------------------------------------------------------------------
      1.74769      2.91168      2.45804         0.002847      0.019291     -0.005785
      4.55425      2.91168      7.33609        -0.002847      0.019291      0.005785
      6.32764      5.39612      2.49275        -0.002819     -0.018169      0.005945
     -0.02569      5.39612      7.30139         0.002819     -0.018169     -0.005945
      8.95932      1.39021      2.52924         0.001139     -0.003058     -0.000753
     -2.65738      1.39021      7.26490        -0.001139     -0.003058      0.000753
      0.00000      5.52553      0.00000        -0.000000     -0.001782     -0.000000
      2.46448      1.38324      0.03067         0.000500      0.000032     -0.006692
      3.83746      1.38324      9.76346        -0.000500      0.000032      0.006692
      7.38916      4.15663      0.12097         0.000121     -0.002604      0.006053
     -1.08722      4.15663      9.67316        -0.000121     -0.002604     -0.006053
      0.00000      2.76919      0.00000        -0.000000     -0.002145     -0.000000
      4.92391      5.53443      0.05354        -0.000000      0.000301     -0.000000
      4.92391      2.76388      0.05354        -0.000000     -0.002915     -0.000000
      3.15097      0.00801      4.89707        -0.000000      0.002951     -0.000000
      5.61045      1.38882      4.92031        -0.000031      0.001168      0.006243
      0.69149      1.38882      4.87382         0.000031      0.001168     -0.006243
      0.68570      4.15387      4.82908        -0.000328      0.002517     -0.005367
      5.61624      4.15387      4.96505         0.000328      0.002517      0.005367
      3.15097      2.77587      4.89707        -0.000000      0.000515     -0.000000
     -1.77294      5.54136      4.84352        -0.000000      0.001763     -0.000000
     -1.77294      2.78507      4.84352        -0.000000      0.002062     -0.000000
      4.96828      5.52412      3.93727         0.000442      0.001704      0.007962
      1.33366      5.52412      5.85686        -0.000442      0.001704     -0.007962
      3.25566      5.52297      0.95023        -0.003642     -0.000789     -0.006643
      3.04628      5.52297      8.84391         0.003642     -0.000789      0.006643
      7.32228      1.39311      3.98106         0.000565      0.001766      0.004843
     -1.02034      1.39311      5.81307        -0.000565      0.001766     -0.004843
     -0.98136      4.16009      5.77551        -0.001344      0.001019     -0.003643
      7.28331      4.16009      4.01862         0.001344      0.001019      0.003643
      0.75251      1.37924      0.96969         0.000499     -0.002018     -0.004561
      5.54943      1.37924      8.82444        -0.000499     -0.002018      0.004561
      5.51058      4.15044      8.86195         0.000883     -0.001258      0.003638
      0.79137      4.15044      0.93218        -0.000883     -0.001258     -0.003638
      4.81935      2.78747      4.00085         0.003549      0.000412      0.005705
      1.48259      2.78747      5.79329        -0.003549      0.000412     -0.005705
      3.10681      2.78621      1.01365         0.001083     -0.001309     -0.008859
      3.19513      2.78621      8.78049        -0.001083     -0.001309      0.008859
     -0.13121      0.03203      3.90355         0.002140      0.001882     -0.002546
      6.43315      0.03203      5.89058        -0.002140      0.001882      0.002546
      8.01869      0.03204      1.13768        -0.002237     -0.000023      0.004623
     -1.71675      0.03204      8.65645         0.002237     -0.000023     -0.004623
      2.36721      1.38972      3.95669         0.005371      0.001666     -0.000027
      3.93474      1.38972      5.83744        -0.005371      0.001666      0.000027
      3.92586      4.16114      5.84824        -0.005824      0.001754      0.001266
      2.37608      4.16114      3.94589         0.005824      0.001754     -0.001266
      5.70775      1.38232      0.99368        -0.005337     -0.001874      0.000526
      0.59419      1.38232      8.80045         0.005337     -0.001874     -0.000526
      0.60304      4.14900      8.78975         0.005435     -0.001062     -0.001840
      5.69890      4.14900      1.00439        -0.005435     -0.001062      0.001840
      0.05597      2.74009      3.81238         0.001782      0.000737     -0.003029
      6.24597      2.74009      5.98175        -0.001782      0.000737      0.003029
      8.20598      2.74024      1.04676        -0.001280     -0.002157      0.002589
     -1.90404      2.74024      8.74737         0.001280     -0.002157     -0.002589
 -----------------------------------------------------------------------------------
    total drift:                                0.000026     -0.003628     -0.000006


--------------------------------------------------------------------------------------------------------



  FREE ENERGIE OF THE ION-ELECTRON SYSTEM (eV)
  ---------------------------------------------------
  free  energy   TOTEN  =      -335.3647347747 eV

  energy  without entropy=     -335.3646004929  energy(sigma->0) =     -335.36466763
 
 d Force = 0.7147991E-04[ 0.623E-04, 0.807E-04]  d Energy = 0.8592958E-04-0.144E-04
 d Force = 0.2881656E+00[ 0.288E+00, 0.288E+00]  d Ewald  =-0.1452857E+00 0.433E+00


--------------------------------------------------------------------------------------------------------


    POTLOK:  cpu time    0.1428: real time    0.1431


--------------------------------------------------------------------------------------------------------


 Quasi-Newton relaxation of ions (Broydens 2nd method)
  g(Force)  = 0.146E-03   g(Stress)= 0.688E-03

 retain information from N=  1 steps
 eigenvalues of (default step * inverse Hessian matrix)
  average eigenvalue of G=   0.0228
 eigenvalue spectrum of G is  0.0228


--------------------------------------------------------------------------------------------------------


     LOOP+:  cpu time   10.1571: real time   10.2630
    4ORBIT:  cpu time    0.0000: real time    0.0000

volume of typ            1:     8.8 %

volume of typ            2:    19.2 %

volume of typ            3:     9.8 %
 
total charge     
 
# of ion       s       p       d       tot
------------------------------------------
    1        2.070   0.219   0.081   2.369
    2        2.070   0.219   0.081   2.369
    3        2.070   0.219   0.081   2.369
    4        2.070   0.219   0.081   2.369
    5        2.063   0.193   0.072   2.328
    6        2.063   0.193   0.072   2.328
    7        0.271   0.361   7.873   8.505
    8        0.295   0.416   7.845   8.556
    9        0.295   0.416   7.845   8.556
   10        0.293   0.411   7.841   8.545
   11        0.293   0.411   7.841   8.545
   12        0.301   0.427   7.845   8.573
   13        0.300   0.424   7.840   8.565
   14        0.272   0.364   7.851   8.486
   15        0.272   0.364   7.852   8.488
   16        0.295   0.416   7.845   8.556
   17        0.295   0.416   7.845   8.556
   18        0.293   0.411   7.841   8.545
   19        0.293   0.411   7.841   8.545
   20        0.300   0.424   7.840   8.564
   21        0.301   0.427   7.845   8.573
   22        0.271   0.361   7.872   8.504
   23        1.273   2.761   0.007   4.041
   24        1.273   2.761   0.007   4.041
   25        1.283   2.729   0.008   4.020
   26        1.283   2.729   0.008   4.020
   27        1.267   2.770   0.007   4.044
   28        1.267   2.770   0.007   4.044
   29        1.271   2.761   0.008   4.040
   30        1.271   2.761   0.008   4.040
   31        1.267   2.770   0.007   4.044
   32        1.267   2.770   0.007   4.044
   33        1.271   2.761   0.008   4.040
   34        1.271   2.761   0.008   4.040
   35        1.283   2.729   0.008   4.020
   36        1.283   2.729   0.008   4.020
   37        1.273   2.761   0.007   4.041
   38        1.273   2.761   0.007   4.041
   39        1.271   2.760   0.007   4.039
   40        1.271   2.760   0.007   4.039
   41        1.266   2.773   0.007   4.046
   42        1.266   2.773   0.007   4.046
   43        1.274   2.753   0.008   4.034
   44        1.274   2.753   0.008   4.034
   45        1.270   2.766   0.008   4.044
   46        1.270   2.766   0.008   4.044
   47        1.274   2.753   0.008   4.034
   48        1.274   2.753   0.008   4.034
   49        1.270   2.767   0.008   4.044
   50        1.270   2.767   0.008   4.044
   51        1.266   2.773   0.007   4.046
   52        1.266   2.773   0.007   4.046
   53        1.271   2.760   0.007   4.039
   54        1.271   2.760   0.007   4.039
--------------------------------------------------
tot          57.74   96.02  126.27  280.02
 
magnetization (x)
 
# of ion       s       p       d       tot
------------------------------------------
    1        0.001   0.004   0.001   0.006
    2        0.001   0.004   0.001   0.006
    3       -0.001  -0.004  -0.001  -0.006
    4       -0.001  -0.004  -0.001  -0.006
    5        0.000  -0.000  -0.000  -0.000
    6        0.000  -0.000  -0.000  -0.000
    7       -0.004   0.000  -0.519  -0.522
    8        0.000   0.000   0.091   0.091
    9        0.000   0.000   0.091   0.091
   10        0.000   0.000   0.080   0.080
   11        0.000   0.000   0.080   0.080
   12       -0.000   0.001  -0.003  -0.002
   13       -0.000   0.000   0.013   0.013
   14        0.002   0.000   0.486   0.488
   15       -0.002  -0.000  -0.486  -0.488
   16       -0.000  -0.000  -0.091  -0.091
   17       -0.000  -0.000  -0.091  -0.091
   18       -0.000  -0.000  -0.080  -0.080
   19       -0.000  -0.000  -0.080  -0.080
   20        0.000  -0.000  -0.012  -0.013
   21        0.000  -0.001   0.003   0.002
   22        0.004  -0.000   0.519   0.523
   23       -0.006  -0.068  -0.000  -0.073
   24       -0.006  -0.068  -0.000  -0.073
   25        0.001   0.006   0.000   0.007
   26        0.001   0.006   0.000   0.007
   27        0.000   0.004  -0.000   0.004
   28        0.000   0.004  -0.000   0.004
   29        0.000   0.004  -0.000   0.004
   30        0.000   0.004  -0.000   0.004
   31       -0.000  -0.004   0.000  -0.004
   32       -0.000  -0.004   0.000  -0.004
   33       -0.000  -0.004   0.000  -0.004
   34       -0.000  -0.004   0.000  -0.004
   35       -0.001  -0.006  -0.000  -0.007
   36       -0.001  -0.006  -0.000  -0.007
   37        0.006   0.067   0.000   0.073
   38        0.006   0.067   0.000   0.073
   39       -0.001  -0.008  -0.000  -0.009
   40       -0.001  -0.008  -0.000  -0.009
   41       -0.004  -0.074  -0.000  -0.079
   42       -0.004  -0.074  -0.000  -0.079
   43       -0.002  -0.018  -0.000  -0.020
   44       -0.002  -0.018  -0.000  -0.020
   45       -0.002  -0.016  -0.000  -0.018
   46       -0.002  -0.016  -0.000  -0.018
   47        0.002   0.018   0.000   0.020
   48        0.002   0.018   0.000   0.020
   49        0.002   0.016   0.000   0.018
   50        0.002   0.016   0.000   0.018
   51        0.004   0.074   0.000   0.079
   52        0.004   0.074   0.000   0.079
   53        0.001   0.008   0.000   0.009
   54        0.001   0.008   0.000   0.009
--------------------------------------------------
tot           0.00   -0.00    0.00    0.00
 

 total amount of memory used by VASP MPI-rank0    88471. kBytes
=======================================================================

   base      :      30000. kBytes
   nonlr-proj:      20406. kBytes
   fftplans  :       4884. kBytes
   grid      :      28787. kBytes
   one-center:        839. kBytes
   wavefun   :       3555. kBytes
 
  
  
 General timing and accounting informations for this job:
 ========================================================
  
                  Total CPU time used (sec):      518.223
                            User time (sec):      515.631
                          System time (sec):        2.592
                         Elapsed time (sec):      525.033
  
                   Maximum memory used (kb):      132648.
                   Average memory used (kb):           0.
  
                          Minor page faults:        36017
                          Major page faults:            7
                 Voluntary context switches:         1287
