 vasp.5.4.4.18Apr17-6-g9f103f2a35 (build May 12 2020 05:39:39) gamma-only       
  
 MD_VERSION_INFO: Compiled 2020-05-12T12:39:39-UTC in devlin.sd.materialsdesign.
 com:/home/medea2/data/build/wwolf/vasp-gpu5.4.4/13047/x86_64/src/src/build/gam 
 from svn 13047
 
 This VASP executable licensed from Materials Design, Inc.
 
 executed on                        Lin64 date 2023.03.07  07:18:49
 running on   16 total cores
 distrk:  each k-point on   16 cores,    1 groups
 distr:  one band on NCORES_PER_BAND=   1 cores,   16 groups


--------------------------------------------------------------------------------------------------------


 INCAR:
 POTCAR:    PAW_PBE Li_sv 10Sep2004               
 POTCAR:    PAW_PBE Ni 02Aug2007                  
 POTCAR:    PAW_PBE O 08Apr2002                   

 ----------------------------------------------------------------------------- 
|                                                                             |
|           W    W    AA    RRRRR   N    N  II  N    N   GGGG   !!!           |
|           W    W   A  A   R    R  NN   N  II  NN   N  G    G  !!!           |
|           W    W  A    A  R    R  N N  N  II  N N  N  G       !!!           |
|           W WW W  AAAAAA  RRRRR   N  N N  II  N  N N  G  GGG   !            |
|           WW  WW  A    A  R   R   N   NN  II  N   NN  G    G                |
|           W    W  A    A  R    R  N    N  II  N    N   GGGG   !!!           |
|                                                                             |
|      For optimal performance we recommend to set                            |
|        NCORE= 4 - approx SQRT( number of cores)                             |
|      NCORE specifies how many cores store one orbital (NPAR=cpu/NCORE).     |
|      This setting can  greatly improve the performance of VASP for DFT.     |
|      The default,   NCORE=1            might be grossly inefficient         |
|      on modern multi-core architectures or massively parallel machines.     |
|      Do your own testing !!!!                                               |
|      Unfortunately you need to use the default for GW and RPA calculations. |
|      (for HF NCORE is supported but not extensively tested yet)             |
|                                                                             |
 ----------------------------------------------------------------------------- 

 POTCAR:    PAW_PBE Li_sv 10Sep2004               
  local pseudopotential read in
  atomic valenz-charges read in
  non local Contribution for L=           0  read in
    real space projection operators read in
  non local Contribution for L=           0  read in
    real space projection operators read in
  non local Contribution for L=           1  read in
    real space projection operators read in
    PAW grid and wavefunctions read in
 
   number of l-projection  operators is LMAX  =           3
   number of lm-projection operators is LMMAX =           5
 
 POTCAR:    PAW_PBE Ni 02Aug2007                  
  local pseudopotential read in
  partial core-charges read in
  partial kinetic energy density read in
  atomic valenz-charges read in
  non local Contribution for L=           2  read in
    real space projection operators read in
  non local Contribution for L=           2  read in
    real space projection operators read in
  non local Contribution for L=           0  read in
    real space projection operators read in
  non local Contribution for L=           0  read in
    real space projection operators read in
  non local Contribution for L=           1  read in
    real space projection operators read in
  non local Contribution for L=           1  read in
    real space projection operators read in
    PAW grid and wavefunctions read in
 
   number of l-projection  operators is LMAX  =           6
   number of lm-projection operators is LMMAX =          18
 
 POTCAR:    PAW_PBE O 08Apr2002                   
  local pseudopotential read in
  partial core-charges read in
  partial kinetic energy density read in
  kinetic energy density of atom read in
  atomic valenz-charges read in
  non local Contribution for L=           0  read in
    real space projection operators read in
  non local Contribution for L=           0  read in
    real space projection operators read in
  non local Contribution for L=           1  read in
    real space projection operators read in
  non local Contribution for L=           1  read in
    real space projection operators read in
    PAW grid and wavefunctions read in
 
   number of l-projection  operators is LMAX  =           4
   number of lm-projection operators is LMMAX =           8
 
 Optimization of the real space projectors (new method)

 maximal supplied QI-value         = 22.11
 optimisation between [QCUT,QGAM] = [ 11.28, 22.77] = [ 35.61,145.23] Ry 
 Optimized for a Real-space Cutoff    1.10 Angstroem

   l    n(q)    QCUT    max X(q) W(low)/X(q) W(high)/X(q)  e(spline) 
   0      7    11.276    10.506    0.54E-04    0.58E-04    0.16E-07
   0      7    11.276     8.367    0.11E-03    0.14E-03    0.35E-07
   1      7    11.276     8.983    0.23E-03    0.43E-03    0.86E-07
 Optimization of the real space projectors (new method)

 maximal supplied QI-value         = 16.25
 optimisation between [QCUT,QGAM] = [ 11.38, 22.75] = [ 36.24,144.96] Ry 
 Optimized for a Real-space Cutoff    1.47 Angstroem

   l    n(q)    QCUT    max X(q) W(low)/X(q) W(high)/X(q)  e(spline) 
   2      9    11.376    60.317    0.17E-03    0.16E-04    0.16E-06
   2      9    11.376    55.921    0.17E-03    0.16E-04    0.17E-06
   0     10    11.376    51.690    0.45E-04    0.60E-04    0.21E-06
   0     10    11.376    30.015    0.37E-04    0.55E-04    0.19E-06
   1     10    11.376    18.849    0.83E-04    0.11E-03    0.92E-07
   1     10    11.376    14.624    0.69E-04    0.92E-04    0.82E-07
 Optimization of the real space projectors (new method)

 maximal supplied QI-value         = 24.76
 optimisation between [QCUT,QGAM] = [ 11.39, 22.77] = [ 36.31,145.25] Ry 
 Optimized for a Real-space Cutoff    1.10 Angstroem

   l    n(q)    QCUT    max X(q) W(low)/X(q) W(high)/X(q)  e(spline) 
   0      7    11.387    20.381    0.22E-03    0.48E-03    0.18E-06
   0      7    11.387    15.268    0.22E-03    0.52E-03    0.19E-06
   1      7    11.387     5.964    0.22E-03    0.73E-03    0.24E-06
   1      7    11.387     5.382    0.19E-03    0.60E-03    0.21E-06

 ----------------------------------------------------------------------------- 
|                                                                             |
|  ADVICE TO THIS USER RUNNING 'VASP/VAMP'   (HEAR YOUR MASTER'S VOICE ...):  |
|                                                                             |
|      You enforced a specific xc-type in the INCAR file,                     |
|      a different type was found on the POTCAR file                          |
|          I HOPE YOU KNOW, WHAT YOU ARE  DOING                               |
|                                                                             |
 ----------------------------------------------------------------------------- 

  PAW_PBE Li_sv 10Sep2004               :
 energy of atom  1       EATOM= -202.7858
 kinetic energy error for atom=    0.0143 (will be added to EATOM!!)
  PAW_PBE Ni 02Aug2007                  :
 energy of atom  2       EATOM=-1077.6739
 kinetic energy error for atom=    0.0030 (will be added to EATOM!!)
  PAW_PBE O 08Apr2002                   :
 energy of atom  3       EATOM= -432.3788
 kinetic energy error for atom=    0.0224 (will be added to EATOM!!)
 
 
 POSCAR: ce15008_1                               
  positions in direct lattice
  No initial velocities read in
 exchange correlation table for  LEXCH =       14
   RHO(1)=    0.500       N(1)  =     2000
   RHO(2)=  100.500       N(2)  =     4000
 


--------------------------------------------------------------------------------------------------------


 ion  position               nearest neighbor table
   1  0.250  0.250  0.500-  43 2.11  39 2.12  33 2.15  19 2.15  21 2.15  31 2.16
   2  0.250  0.750  0.500-  44 2.11  40 2.12  34 2.15  20 2.15  22 2.15  32 2.16
   3  1.000  0.000  0.000-  29 1.84  30 1.84  27 1.84  28 1.84  37 1.90  38 1.90   8 2.78   8 2.79
                             7 2.79   6 2.79   5 2.79   4 2.79
   4  0.250  0.996  0.248-  50 1.84  38 1.84  21 1.85  33 1.85  27 1.88  44 1.93   7 2.78   7 2.78
                             8 2.79   3 2.79   9 2.80  10 2.80
   5  0.250  0.004  0.752-  49 1.84  37 1.84  22 1.85  34 1.85  28 1.88  43 1.93   6 2.78   6 2.78
                             8 2.79   3 2.79   9 2.80  10 2.80
   6  0.750  0.999  0.750-  49 1.84  37 1.84  22 1.86  34 1.86  29 1.88  46 1.91   5 2.78   5 2.78
                             3 2.79   8 2.79  10 2.79   9 2.79
   7  0.750  0.001  0.250-  50 1.84  38 1.84  21 1.86  33 1.86  30 1.88  45 1.91   4 2.78   4 2.78
                             3 2.79   8 2.79  10 2.79   9 2.79
   8  0.501  0.000  0.000-  29 1.84  30 1.84  27 1.85  28 1.85  49 1.89  50 1.89   3 2.78   3 2.79
                             7 2.79   6 2.79   5 2.79   4 2.79
   9  0.999  0.000  0.500-  45 1.84  46 1.84  43 1.85  44 1.85  21 1.89  22 1.89  10 2.77   7 2.79
                             6 2.79  10 2.80   5 2.80   4 2.80
  10  0.502  0.000  0.500-  45 1.84  46 1.84  43 1.85  44 1.85  33 1.89  34 1.89   9 2.77   7 2.79
                             6 2.79   9 2.80   4 2.80   5 2.80
  11  0.999  0.500  0.500-  41 1.84  42 1.84  39 1.85  40 1.85  19 1.89  20 1.89  16 2.77  15 2.79
                            14 2.79  16 2.80  13 2.80  12 2.80
  12  0.250  0.505  0.752-  36 1.84  48 1.84  31 1.85  19 1.85  23 1.88  40 1.93  15 2.78  15 2.78
                            18 2.79  17 2.79  16 2.80  11 2.80
  13  0.250  0.495  0.248-  35 1.84  47 1.84  32 1.85  20 1.85  24 1.88  39 1.93  14 2.78  14 2.78
                            18 2.79  17 2.79  16 2.80  11 2.80
  14  0.750  0.501  0.250-  35 1.84  47 1.84  32 1.86  20 1.86  25 1.88  42 1.91  13 2.78  13 2.78
                            18 2.79  17 2.79  16 2.79  11 2.79
  15  0.750  0.499  0.750-  36 1.84  48 1.84  31 1.86  19 1.86  26 1.88  41 1.91  12 2.78  12 2.78
                            18 2.79  17 2.79  16 2.79  11 2.79
  16  0.501  0.500  0.500-  41 1.84  42 1.84  39 1.85  40 1.85  31 1.89  32 1.89  11 2.77  14 2.79
                            15 2.79  11 2.80  13 2.80  12 2.80
  17  0.999  0.500  0.000-  25 1.84  26 1.84  23 1.85  24 1.85  35 1.90  36 1.90  18 2.78  18 2.79
                            15 2.79  14 2.79  13 2.79  12 2.79
  18  0.501  0.500  0.000-  25 1.84  26 1.84  23 1.84  24 1.84  47 1.90  48 1.90  17 2.78  17 2.79
                            14 2.79  15 2.79  12 2.79  13 2.79
  19  0.005  0.403  0.636-  12 1.85  15 1.86  11 1.89   1 2.15
  20  0.005  0.597  0.364-  13 1.85  14 1.86  11 1.89   2 2.15
  21  0.005  0.097  0.364-   4 1.85   7 1.86   9 1.89   1 2.15
  22  0.005  0.903  0.636-   5 1.85   6 1.86   9 1.89   2 2.15
  23  0.250  0.405  0.885-  18 1.84  17 1.85  12 1.88
  24  0.250  0.595  0.115-  18 1.84  17 1.85  13 1.88
  25  0.750  0.597  0.114-  18 1.84  17 1.84  14 1.88
  26  0.750  0.403  0.886-  18 1.84  17 1.84  15 1.88
  27  0.250  0.095  0.115-   3 1.84   8 1.85   4 1.88
  28  0.250  0.905  0.885-   3 1.84   8 1.85   5 1.88
  29  0.750  0.903  0.886-   3 1.84   8 1.84   6 1.88
  30  0.750  0.097  0.114-   3 1.84   8 1.84   7 1.88
  31  0.495  0.403  0.636-  12 1.85  15 1.86  16 1.89   1 2.16
  32  0.495  0.597  0.364-  13 1.85  14 1.86  16 1.89   2 2.16
  33  0.495  0.097  0.364-   4 1.85   7 1.86  10 1.89   1 2.15
  34  0.495  0.903  0.636-   5 1.85   6 1.86  10 1.89   2 2.15
  35  0.997  0.401  0.136-  13 1.84  14 1.84  17 1.90
  36  0.997  0.599  0.864-  12 1.84  15 1.84  17 1.90
  37  0.997  0.099  0.864-   5 1.84   6 1.84   3 1.90
  38  0.997  0.901  0.136-   4 1.84   7 1.84   3 1.90
  39  0.250  0.399  0.390-  11 1.85  16 1.85  13 1.93   1 2.12
  40  0.250  0.601  0.610-  11 1.85  16 1.85  12 1.93   2 2.12
  41  0.750  0.598  0.613-  11 1.84  16 1.84  15 1.91
  42  0.750  0.402  0.387-  11 1.84  16 1.84  14 1.91
  43  0.250  0.101  0.611-  10 1.85   9 1.85   5 1.93   1 2.11
  44  0.250  0.899  0.389-  10 1.85   9 1.85   4 1.93   2 2.11
  45  0.750  0.902  0.387-  10 1.84   9 1.84   7 1.91
  46  0.750  0.098  0.613-  10 1.84   9 1.84   6 1.91
  47  0.503  0.401  0.136-  13 1.84  14 1.84  18 1.90
  48  0.503  0.599  0.864-  12 1.84  15 1.84  18 1.90
  49  0.503  0.098  0.864-   5 1.84   6 1.84   8 1.89
  50  0.503  0.902  0.136-   4 1.84   7 1.84   8 1.89
 
  LATTYP: Found a simple monoclinic cell.
 ALAT       =    11.4541129362
 B/A-ratio  =     0.4861405724
 C/A-ratio  =     1.6851740552
 COS(beta)  =    -0.9084037248
  
  Lattice vectors:
  
 A1 = (  -6.2210867807,   0.0000000000,  -9.6174207780)
 A2 = (   0.0000000000,  -5.5683090193,   0.0000000000)
 A3 = (   2.7472913383,   0.0000000000,  19.1056617082)


Analysis of symmetry for initial positions (statically):
=====================================================================
 Subroutine PRICEL returns:
 Original cell was already a primitive cell.
 

 Routine SETGRP: Setting up the symmetry group for a 
 simple monoclinic supercell.


 Subroutine GETGRP returns: Found  2 space group operations
 (whereof  2 operations were pure point group operations)
 out of a pool of  4 trial point group operations.


The static configuration has the point symmetry C_2 .


Analysis of symmetry for dynamics (positions and initial velocities):
=====================================================================
 Subroutine PRICEL returns:
 Original cell was already a primitive cell.
 

 Routine SETGRP: Setting up the symmetry group for a 
 simple monoclinic supercell.


 Subroutine GETGRP returns: Found  2 space group operations
 (whereof  2 operations were pure point group operations)
 out of a pool of  4 trial point group operations.


The dynamic configuration has the point symmetry C_2 .


Analysis of structural, dynamic, and magnetic symmetry:
=====================================================================
 Subroutine PRICEL returns:
 Original cell was already a primitive cell.
 

 Routine SETGRP: Setting up the symmetry group for a 
 simple monoclinic supercell.


 Subroutine GETGRP returns: Found  2 space group operations
 (whereof  2 operations were pure point group operations)
 out of a pool of  4 trial point group operations.


The magnetic configuration has the point symmetry C_2 .


 Subroutine INISYM returns: Found  2 space group operations
 (whereof  2 operations are pure point group operations),
 and found     1 'primitive' translations

 
 
 KPOINTS: Automatic mesh                          

Automatic generation of k-mesh.
Space group operators:
 irot       det(A)        alpha          n_x          n_y          n_z        tau_x        tau_y        tau_z
    1     1.000000     0.000001     1.000000     0.000000     0.000000     0.000000     0.000000     0.000000
    2     1.000000   180.000000     0.000000     1.000000     0.000000     0.000000     0.000000     0.000000
 
 Subroutine IBZKPT returns following result:
 ===========================================
 
 Found      1 irreducible k-points:
 
 Following reciprocal coordinates:
            Coordinates               Weight
  0.000000  0.000000  0.000000      1.000000
 
 Following cartesian coordinates:
            Coordinates               Weight
  0.000000  0.000000  0.000000      1.000000
 


--------------------------------------------------------------------------------------------------------




 Dimension of arrays:
   k-points           NKPTS =      1   k-points in BZ     NKDIM =      1   number of bands    NBANDS=    240
   number of dos      NEDOS =    301   number of ions     NIONS =     50
   non local maximal  LDIM  =      6   non local SUM 2l+1 LMDIM =     18
   total plane-waves  NPLWV = 241920
   max r-space proj   IRMAX =   6360   max aug-charges    IRDMAX=  15433
   dimension x,y,z NGX =    42 NGY =   80 NGZ =   72
   dimension x,y,z NGXF=    84 NGYF=  160 NGZF=  144
   support grid    NGXF=    84 NGYF=  160 NGZF=  144
   ions per type =               2  16  32
   NGX,Y,Z   is equivalent  to a cutoff of  12.54, 13.16, 12.35 a.u.
   NGXF,Y,Z  is equivalent  to a cutoff of  25.08, 26.33, 24.69 a.u.

 SYSTEM =  unknown system                          
 POSCAR =  ce15008_1                               

 Startparameter for this run:
   NWRITE =      1    write-flag & timer
   PREC   = accura    normal or accurate (medium, high low for compatibility)
   ISTART =      0    job   : 0-new  1-cont  2-samecut
   ICHARG =      2    charge: 1-file 2-atom 10-const
   ISPIN  =      2    spin polarized calculation?
   LNONCOLLINEAR =      F non collinear calculations
   LSORBIT =      F    spin-orbit coupling
   INIWAV =      1    electr: 0-lowe 1-rand  2-diag
   LASPH  =      F    aspherical Exc in radial PAW
   METAGGA=      F    non-selfconsistent MetaGGA calc.

 Electronic Relaxation 1
   ENCUT  =  500.0 eV  36.75 Ry    6.06 a.u.  10.15 18.42 17.68*2*pi/ulx,y,z
   ENINI  =  500.0     initial cutoff
   ENAUG  =  628.9 eV  augmentation charge cutoff
   NELM   =     80;   NELMIN=  2; NELMDL= -5     # of ELM steps 
   EDIFF  = 0.1E-04   stopping-criterion for ELM
   LREAL  =      T    real-space projection
   NLSPLINE    = F    spline interpolate recip. space projectors
   LCOMPAT=      F    compatible to vasp.4.4
   GGA_COMPAT  = T    GGA compatible to vasp.4.4-vasp.4.6
   LMAXPAW     = -100 max onsite density
   LMAXMIX     =    2 max onsite mixed and CHGCAR
   VOSKOWN=      1    Vosko Wilk Nusair interpolation
   ROPT   =   -0.00025  -0.00025  -0.00025
 Ionic relaxation
   EDIFFG = -.2E-01   stopping-criterion for IOM
   NSW    =     20    number of steps for IOM
   NBLOCK =      1;   KBLOCK =     20    inner block; outer block 
   IBRION =      1    ionic relax: 0-MD 1-quasi-New 2-CG
   NFREE  =      0    steps in history (QN), initial steepest desc. (CG)
   ISIF   =      3    stress and relaxation
   IWAVPR =     11    prediction:  0-non 1-charg 2-wave 3-comb
   ISYM   =      2    0-nonsym 1-usesym 2-fastsym
   LCORR  =      T    Harris-Foulkes like correction to forces

   POTIM  = 0.5000    time-step for ionic-motion
   TEIN   =    0.0    initial temperature
   TEBEG  =    0.0;   TEEND  =   0.0 temperature during run
   SMASS  =  -3.00    Nose mass-parameter (am)
   estimated Nose-frequenzy (Omega)   =  0.10E-29 period in steps =****** mass=  -0.709E-27a.u.
   SCALEE = 1.0000    scale energy and forces
   NPACO  =    256;   APACO  = 16.0  distance and # of slots for P.C.
   PSTRESS=    0.0 pullay stress

  Mass of Ions in am
   POMASS =   7.01 58.69 16.00
  Ionic Valenz
   ZVAL   =   3.00 10.00  6.00
  Atomic Wigner-Seitz radii
   RWIGS  =   1.23  1.15  0.73
  virtual crystal weights 
   VCA    =   1.00  1.00  1.00
   NELECT =     358.0000    total number of electrons
   NUPDOWN=      -1.0000    fix difference up-down

 DOS related values:
   EMIN   =  10.00;   EMAX   =-10.00  energy-range for DOS
   EFERMI =   0.00
   ISMEAR =     0;   SIGMA  =   0.05  broadening in eV -4-tet -1-fermi 0-gaus

 Electronic relaxation 2 (details)
   IALGO  =     38    algorithm
   LDIAG  =      T    sub-space diagonalisation (order eigenvalues)
   LSUBROT=      F    optimize rotation matrix (better conditioning)
   TURBO    =      0    0=normal 1=particle mesh
   IRESTART =      0    0=no restart 2=restart with 2 vectors
   NREBOOT  =      0    no. of reboots
   NMIN     =      0    reboot dimension
   EREF     =   0.00    reference energy to select bands
   IMIX   =      4    mixing-type and parameters
     AMIX     =   0.40;   BMIX     =  1.00
     AMIX_MAG =   1.60;   BMIX_MAG =  1.00
     AMIN     =   0.10
     WC   =   100.;   INIMIX=   1;  MIXPRE=   1;  MAXMIX= -45

 Intra band minimization:
   WEIMIN = 0.0010     energy-eigenvalue tresh-hold
   EBREAK =  0.10E-07  absolut break condition
   DEPER  =   0.30     relativ break condition  

   TIME   =   0.40     timestep for ELM

  volume/ion in A,a.u.               =      10.29        69.47
  Fermi-wavevector in a.u.,A,eV,Ry     =   1.450488  2.741025 28.625510  2.103916
  Thomas-Fermi vector in A             =   2.568094
 
 Write flags
   LWAVE        =      F    write WAVECAR
   LDOWNSAMPLE  =      F    k-point downsampling of WAVECAR
   LCHARG       =      T    write CHGCAR
   LVTOT        =      F    write LOCPOT, total local potential
   LVHAR        =      F    write LOCPOT, Hartree potential only
   LELF         =      F    write electronic localiz. function (ELF)
   LORBIT       =      0    0 simple, 1 ext, 2 COOP (PROOUT), +10 PAW based schemes


 Dipole corrections
   LMONO  =      F    monopole corrections only (constant potential shift)
   LDIPOL =      F    correct potential (dipole corrections)
   IDIPOL =      0    1-x, 2-y, 3-z, 4-all directions 
   EPSILON=  1.0000000 bulk dielectric constant

 Exchange correlation treatment:
   GGA     =    PS    GGA type
   LEXCH   =    14    internal setting for exchange type
   VOSKOWN=      1    Vosko Wilk Nusair interpolation
   LHFCALC =     F    Hartree Fock is set to
   LHFONE  =     F    Hartree Fock one center treatment
   AEXX    =    0.0000 exact exchange contribution

 Linear response parameters
   LEPSILON=     F    determine dielectric tensor
   LRPA    =     F    only Hartree local field effects (RPA)
   LNABLA  =     F    use nabla operator in PAW spheres
   LVEL    =     F    velocity operator in full k-point grid
   LINTERFAST=   F  fast interpolation
   KINTER  =     0    interpolate to denser k-point grid
   CSHIFT  =0.1000    complex shift for real part using Kramers Kronig
   OMEGAMAX=  -1.0    maximum frequency
   DEG_THRESHOLD= 0.2000000E-02 threshold for treating states as degnerate
   RTIME   =   -0.100 relaxation time in fs
  (WPLASMAI=    0.000 imaginary part of plasma frequency in eV, 0.658/RTIME)
   DFIELD  = 0.0000000 0.0000000 0.0000000 field for delta impulse in time
 
 Orbital magnetization related:
   ORBITALMAG=     F  switch on orbital magnetization
   LCHIMAG   =     F  perturbation theory with respect to B field
   DQ        =  0.001000  dq finite difference perturbation B field
   LLRAUG    =     F  two centre corrections for induced B field



--------------------------------------------------------------------------------------------------------


 quasi-Newton-method for relaxation of ions
 charge density and potential will be updated during run
 spin polarized calculation
 Variant of blocked Davidson
 Davidson routine will perform the subspace rotation
 perform sub-space diagonalisation
    after iterative eigenvector-optimisation
 modified Broyden-mixing scheme, WC =      100.0
 initial mixing is a Kerker type mixing with AMIX =  0.4000 and BMIX =      1.0000
 Hartree-type preconditioning will be used
 using additional bands           61
 real space projection scheme for non local part
 use partial core corrections
 calculate Harris-corrections to forces 
   (improved forces if not selfconsistent)
 use gradient corrections 
 use of overlap-Matrix (Vanderbilt PP)
 Gauss-broadening in eV      SIGMA  =   0.05


--------------------------------------------------------------------------------------------------------


  energy-cutoff  :      500.00
  volume of cell :      514.71
      direct lattice vectors                 reciprocal lattice vectors
     0.000000000  5.568309019  0.000000000     0.000000000  0.179587734  0.000000000
    -3.473795442  0.000000000  9.488240930    -0.001397504  0.000000000  0.104881965
     9.694882223  0.000000000  0.129179848     0.102646462  0.000000000  0.037580497

  length of vectors
     5.568309019 10.104156111  9.695742816     0.179587734  0.104891276  0.109309606


 
 k-points in units of 2pi/SCALE and weight: Automatic mesh                          
   0.00000000  0.00000000  0.00000000       1.000
 
 k-points in reciprocal lattice and weights: Automatic mesh                          
   0.00000000  0.00000000  0.00000000       1.000
 
 position of ions in fractional coordinates (direct lattice) 
   0.24987244  0.24985396  0.50044653
   0.24987244  0.75014604  0.49955347
   0.99958281  0.00000000  0.00000000
   0.25007161  0.99571002  0.24806443
   0.25007161  0.00428998  0.75193557
   0.75008645  0.99906632  0.74989960
   0.75008645  0.00093368  0.25010040
   0.50053960  0.00000000  0.00000000
   0.99866901  0.00000000  0.50000000
   0.50151724  0.00000000  0.50000000
   0.99862200  0.50000000  0.50000000
   0.25000012  0.50451137  0.75206450
   0.25000012  0.49548863  0.24793550
   0.74998701  0.50072970  0.24995190
   0.74998701  0.49927030  0.75004810
   0.50135673  0.50000000  0.50000000
   0.99947495  0.50000000  0.00000000
   0.50052310  0.50000000  0.00000000
   0.00478312  0.40287502  0.63628072
   0.00478312  0.59712498  0.36371928
   0.00484588  0.09713174  0.36389239
   0.00484588  0.90286826  0.63610761
   0.25001117  0.40454663  0.88519274
   0.25001117  0.59545337  0.11480726
   0.74998863  0.59699345  0.11355602
   0.74998863  0.40300655  0.88644398
   0.25001820  0.09536457  0.11495670
   0.25001820  0.90463543  0.88504330
   0.75010057  0.90306800  0.88629872
   0.75010057  0.09693200  0.11370128
   0.49520036  0.40293313  0.63632180
   0.49520036  0.59706687  0.36367820
   0.49529992  0.09741680  0.36411914
   0.49529992  0.90258320  0.63588086
   0.99697562  0.40136712  0.13576661
   0.99697562  0.59863288  0.86423339
   0.99704263  0.09860084  0.86427891
   0.99704263  0.90139916  0.13572109
   0.24997997  0.39853455  0.38957013
   0.24997997  0.60146545  0.61042987
   0.74999685  0.59787954  0.61275845
   0.74999685  0.40212046  0.38724155
   0.25013722  0.10124543  0.61079274
   0.25013722  0.89875457  0.38920726
   0.75006557  0.90230806  0.38696241
   0.75006557  0.09769194  0.61303759
   0.50301779  0.40130695  0.13573884
   0.50301779  0.59869305  0.86426116
   0.50308439  0.09825794  0.86404191
   0.50308439  0.90174206  0.13595809
 
 position of ions in cartesian coordinates  (Angst):
   3.98382862  1.39136696  2.43532218
   2.23725816  1.39136696  7.18209860
   0.00000000  5.56598598  0.00000000
  -1.05393750  1.39247600  9.47958149
   7.27502428  1.39247600  0.13783929
   3.79963627  4.17671314  9.57625387
   2.42145051  4.17671314  0.04116691
   0.00000000  2.78715917  0.00000000
   4.84744111  5.56089766  0.06458992
   4.84744111  2.79260297  0.06458992
   3.11054339  5.56063589  4.80871039
   5.53860745  1.39207792  4.88407701
   0.68247933  1.39207792  4.73334377
   0.68382168  4.17615943  4.78333278
   5.53726510  4.17615943  4.83408800
   3.11054339  2.79170920  4.80871039
  -1.73689772  5.56538538  4.74412047
  -1.73689772  2.78706729  4.74412047
   4.76916123  0.02663389  3.90476990
   1.45192555  0.02663389  5.71265088
   3.19047807  0.02698336  0.96861691
   3.03060871  0.02698336  8.64880386
   7.17652712  1.39213945  3.95278496
  -0.95544034  1.39213945  5.66463582
  -0.97292089  4.17616845  5.67908684
   7.19400767  4.17616845  3.93833394
   0.78321466  1.39217860  0.91969211
   5.43787212  1.39217860  8.69772867
   5.45548820  4.17679177  8.68301869
   0.76559858  4.17679177  0.93440208
   4.76935764  2.75742863  3.90532657
   1.45172914  2.75742863  5.71209421
   3.19168614  2.75798301  0.97135092
   3.02940064  2.75798301  8.64606985
  -0.07802598  5.55146834  3.82580625
   6.29911276  5.55146834  5.79161453
   8.03656309  5.55184147  1.04719594
  -1.81547631  5.55184147  8.57022483
   2.39240902  1.39196572  3.83171644
   3.82867776  1.39196572  5.78570434
   3.86370978  4.17621422  5.75198117
   2.35737700  4.17621422  3.86543961
   5.56985776  1.39284134  1.03954315
   0.65122902  1.39284134  8.57787763
   0.61712136  4.17659688  8.61130401
   5.60396542  4.17659688  1.00611677
  -0.07808619  2.80095850  3.82523175
   6.29917297  2.80095850  5.79218903
   8.03545657  2.80132935  1.04391181
  -1.81436979  2.80132935  8.57350897
 


--------------------------------------------------------------------------------------------------------


 use serial FFT for orbitals x direction half grid
 k-point  1 :   0.0000 0.0000 0.0000  plane waves:    6534

 maximum and minimum number of plane-waves per node :      6534     6534

 maximum number of plane-waves:      6534
 maximum index in each direction: 
   IXMAX=   10   IYMAX=   18   IZMAX=   17
   IXMIN=    0   IYMIN=  -18   IZMIN=  -17

 The following grids will avoid any aliasing or wrap around errors in the Hartre
 e energy
  - symmetry arguments have not been applied
  - exchange correlation energies might require even more grid points
  - we recommend to set PREC=Normal or Accurate and rely on VASP defaults
 NGX is ok and might be reduce to    42
 NGY is ok and might be reduce to    80
 NGZ is ok and might be reduce to    70

 serial   3D FFT for wavefunctions
 parallel 3D FFT for charge:
    minimum data exchange during FFTs selected (reduces bandwidth)


 total amount of memory used by VASP MPI-rank0    92822. kBytes
=======================================================================

   base      :      30000. kBytes
   nonlr-proj:      21462. kBytes
   fftplans  :       5544. kBytes
   grid      :      31764. kBytes
   one-center:        777. kBytes
   wavefun   :       3275. kBytes
 
     INWAV:  cpu time    0.0000: real time    0.0000
 Broyden mixing: mesh for mixing (old mesh)
   NGX = 21   NGY = 37   NGZ = 35
  (NGX  = 84   NGY  =160   NGZ  =144)
  gives a total of  27195 points

 initial charge density was supplied:
 charge density of overlapping atoms calculated
 number of electron     358.0000000 magnetization      40.0000000
 keeping initial charge density in first step


--------------------------------------------------------------------------------------------------------


 Maximum index for non-local projection operator         6147
 Maximum index for augmentation-charges         1444 (set IRDMAX)


--------------------------------------------------------------------------------------------------------


 First call to EWALD:  gamma=   0.221
 Maximum number of real-space cells 4x 2x 2
 Maximum number of reciprocal cells 2x 3x 3

    FEWALD:  cpu time    0.0029: real time    0.0029


--------------------------------------- Iteration      1(   1)  ---------------------------------------


    POTLOK:  cpu time    0.1451: real time    0.1469
    SETDIJ:  cpu time    0.0166: real time    0.0167
     EDDAV:  cpu time    1.2497: real time    1.2699
    --------------------------------------------
      LOOP:  cpu time    1.4118: real time    1.4338

 eigenvalue-minimisations  :   960
 total energy-change (2. order) : 0.6345140E+04  (-0.1594840E+05)
 number of electron     358.0000000 magnetization      40.0000000
 augmentation part      358.0000000 magnetization      40.0000000

 Free energy of the ion-electron system (eV)
  ---------------------------------------------------
  alpha Z        PSCENC =      1093.67576528
  Ewald energy   TEWEN  =    -19667.87537828
  -Hartree energ DENC   =    -12492.38456232
  -exchange      EXHF   =         0.00000000
  -V(xc)+E(xc)   XCENC  =      1450.24653532
  PAW double counting   =     26623.38945734   -27769.50388409
  entropy T*S    EENTRO =        -0.00000000
  eigenvalues    EBANDS =      5691.88541159
  atomic energy  EATOM  =     31415.70703490
  Solvation  Ediel_sol  =         0.00000000
  ---------------------------------------------------
  free energy    TOTEN  =      6345.14037973 eV

  energy without entropy =     6345.14037973  energy(sigma->0) =     6345.14037973


--------------------------------------------------------------------------------------------------------




--------------------------------------- Iteration      1(   2)  ---------------------------------------


     EDDAV:  cpu time    1.2873: real time    1.2904
    --------------------------------------------
      LOOP:  cpu time    1.2872: real time    1.2903

 eigenvalue-minimisations  :  1008
 total energy-change (2. order) :-0.5093525E+04  (-0.4560096E+04)
 number of electron     358.0000000 magnetization      40.0000000
 augmentation part      358.0000000 magnetization      40.0000000

 Free energy of the ion-electron system (eV)
  ---------------------------------------------------
  alpha Z        PSCENC =      1093.67576528
  Ewald energy   TEWEN  =    -19667.87537828
  -Hartree energ DENC   =    -12492.38456232
  -exchange      EXHF   =         0.00000000
  -V(xc)+E(xc)   XCENC  =      1450.24653532
  PAW double counting   =     26623.38945734   -27769.50388409
  entropy T*S    EENTRO =        -0.02014807
  eigenvalues    EBANDS =       598.38060107
  atomic energy  EATOM  =     31415.70703490
  Solvation  Ediel_sol  =         0.00000000
  ---------------------------------------------------
  free energy    TOTEN  =      1251.61542114 eV

  energy without entropy =     1251.63556921  energy(sigma->0) =     1251.62549517


--------------------------------------------------------------------------------------------------------




--------------------------------------- Iteration      1(   3)  ---------------------------------------


     EDDAV:  cpu time    1.4542: real time    1.4579
    --------------------------------------------
      LOOP:  cpu time    1.4543: real time    1.4580

 eigenvalue-minimisations  :  1120
 total energy-change (2. order) :-0.1450828E+04  (-0.1186094E+04)
 number of electron     358.0000000 magnetization      40.0000000
 augmentation part      358.0000000 magnetization      40.0000000

 Free energy of the ion-electron system (eV)
  ---------------------------------------------------
  alpha Z        PSCENC =      1093.67576528
  Ewald energy   TEWEN  =    -19667.87537828
  -Hartree energ DENC   =    -12492.38456232
  -exchange      EXHF   =         0.00000000
  -V(xc)+E(xc)   XCENC  =      1450.24653532
  PAW double counting   =     26623.38945734   -27769.50388409
  entropy T*S    EENTRO =        -0.07644018
  eigenvalues    EBANDS =      -852.39113717
  atomic energy  EATOM  =     31415.70703490
  Solvation  Ediel_sol  =         0.00000000
  ---------------------------------------------------
  free energy    TOTEN  =      -199.21260921 eV

  energy without entropy =     -199.13616902  energy(sigma->0) =     -199.17438912


--------------------------------------------------------------------------------------------------------




--------------------------------------- Iteration      1(   4)  ---------------------------------------


     EDDAV:  cpu time    1.7601: real time    1.7644
    --------------------------------------------
      LOOP:  cpu time    1.7601: real time    1.7643

 eigenvalue-minimisations  :  1152
 total energy-change (2. order) :-0.2168561E+03  (-0.2100140E+03)
 number of electron     358.0000000 magnetization      40.0000000
 augmentation part      358.0000000 magnetization      40.0000000

 Free energy of the ion-electron system (eV)
  ---------------------------------------------------
  alpha Z        PSCENC =      1093.67576528
  Ewald energy   TEWEN  =    -19667.87537828
  -Hartree energ DENC   =    -12492.38456232
  -exchange      EXHF   =         0.00000000
  -V(xc)+E(xc)   XCENC  =      1450.24653532
  PAW double counting   =     26623.38945734   -27769.50388409
  entropy T*S    EENTRO =        -0.19282613
  eigenvalues    EBANDS =     -1069.13080834
  atomic energy  EATOM  =     31415.70703490
  Solvation  Ediel_sol  =         0.00000000
  ---------------------------------------------------
  free energy    TOTEN  =      -416.06866633 eV

  energy without entropy =     -415.87584020  energy(sigma->0) =     -415.97225326


--------------------------------------------------------------------------------------------------------




--------------------------------------- Iteration      1(   5)  ---------------------------------------


     EDDAV:  cpu time    2.0762: real time    2.0811
    CHARGE:  cpu time    0.1453: real time    0.1457
    MIXING:  cpu time    0.0031: real time    0.0031
    --------------------------------------------
      LOOP:  cpu time    2.2243: real time    2.2296

 eigenvalue-minimisations  :  1280
 total energy-change (2. order) :-0.6947601E+01  (-0.6909148E+01)
 number of electron     357.9999870 magnetization      34.8436856
 augmentation part      103.4794735 magnetization      28.2965760

 Broyden mixing:
  rms(total) = 0.12175E+02    rms(broyden)= 0.12174E+02
  rms(prec ) = 0.14950E+02
  weight for this iteration     100.00

 Free energy of the ion-electron system (eV)
  ---------------------------------------------------
  alpha Z        PSCENC =      1093.67576528
  Ewald energy   TEWEN  =    -19667.87537828
  -Hartree energ DENC   =    -12492.38456232
  -exchange      EXHF   =         0.00000000
  -V(xc)+E(xc)   XCENC  =      1450.24653532
  PAW double counting   =     26623.38945734   -27769.50388409
  entropy T*S    EENTRO =        -0.19478836
  eigenvalues    EBANDS =     -1076.07644720
  atomic energy  EATOM  =     31415.70703490
  Solvation  Ediel_sol  =         0.00000000
  ---------------------------------------------------
  free energy    TOTEN  =      -423.01626742 eV

  energy without entropy =     -422.82147906  energy(sigma->0) =     -422.91887324


--------------------------------------------------------------------------------------------------------




--------------------------------------- Iteration      1(   6)  ---------------------------------------


    POTLOK:  cpu time    0.1494: real time    0.1498
    SETDIJ:  cpu time    0.0210: real time    0.0210
     EDDAV:  cpu time    2.3438: real time    2.3494
    CHARGE:  cpu time    0.1366: real time    0.1370
    MIXING:  cpu time    0.0035: real time    0.0036
    --------------------------------------------
      LOOP:  cpu time    2.6544: real time    2.6608

 eigenvalue-minimisations  :  1488
 total energy-change (2. order) :-0.1131684E+03  (-0.1109956E+03)
 number of electron     357.9999905 magnetization      30.7805612
 augmentation part      134.2937691 magnetization      30.1854164

 Broyden mixing:
  rms(total) = 0.23589E+02    rms(broyden)= 0.23589E+02
  rms(prec ) = 0.26573E+02
  weight for this iteration     100.00

 eigenvalues of (default mixing * dielectric matrix)
  average eigenvalue GAMMA=   0.1563
  0.1563

 Free energy of the ion-electron system (eV)
  ---------------------------------------------------
  alpha Z        PSCENC =      1093.67576528
  Ewald energy   TEWEN  =    -19667.87537828
  -Hartree energ DENC   =    -11909.21023153
  -exchange      EXHF   =         0.00000000
  -V(xc)+E(xc)   XCENC  =      1447.01421186
  PAW double counting   =     29606.97412592   -30571.04369617
  entropy T*S    EENTRO =        -0.04983686
  eigenvalues    EBANDS =     -1951.37661751
  atomic energy  EATOM  =     31415.70703490
  Solvation  Ediel_sol  =         0.00000000
  ---------------------------------------------------
  free energy    TOTEN  =      -536.18462238 eV

  energy without entropy =     -536.13478552  energy(sigma->0) =     -536.15970395


--------------------------------------------------------------------------------------------------------




--------------------------------------- Iteration      1(   7)  ---------------------------------------


    POTLOK:  cpu time    0.1438: real time    0.1442
    SETDIJ:  cpu time    0.0202: real time    0.0203
     EDDAV:  cpu time    2.0890: real time    2.0940
    CHARGE:  cpu time    0.1416: real time    0.1419
    MIXING:  cpu time    0.0039: real time    0.0039
    --------------------------------------------
      LOOP:  cpu time    2.3986: real time    2.4043

 eigenvalue-minimisations  :  1296
 total energy-change (2. order) : 0.1458605E+03  (-0.3885789E+02)
 number of electron     357.9999924 magnetization      24.9831598
 augmentation part      130.1548715 magnetization      23.2539583

 Broyden mixing:
  rms(total) = 0.10256E+02    rms(broyden)= 0.10255E+02
  rms(prec ) = 0.12438E+02
  weight for this iteration     100.00

 eigenvalues of (default mixing * dielectric matrix)
  average eigenvalue GAMMA=   0.4753
  0.4753  0.4753

 Free energy of the ion-electron system (eV)
  ---------------------------------------------------
  alpha Z        PSCENC =      1093.67576528
  Ewald energy   TEWEN  =    -19667.87537828
  -Hartree energ DENC   =    -12058.16600185
  -exchange      EXHF   =         0.00000000
  -V(xc)+E(xc)   XCENC  =      1444.17454075
  PAW double counting   =     30654.60836585   -31710.26984578
  entropy T*S    EENTRO =        -0.03491874
  eigenvalues    EBANDS =     -1562.14366820
  atomic energy  EATOM  =     31415.70703490
  Solvation  Ediel_sol  =         0.00000000
  ---------------------------------------------------
  free energy    TOTEN  =      -390.32410607 eV

  energy without entropy =     -390.28918733  energy(sigma->0) =     -390.30664670


--------------------------------------------------------------------------------------------------------




--------------------------------------- Iteration      1(   8)  ---------------------------------------


    POTLOK:  cpu time    0.1481: real time    0.1484
    SETDIJ:  cpu time    0.0213: real time    0.0213
     EDDAV:  cpu time    2.2521: real time    2.2575
    CHARGE:  cpu time    0.1405: real time    0.1408
    MIXING:  cpu time    0.0039: real time    0.0039
    --------------------------------------------
      LOOP:  cpu time    2.5658: real time    2.5719

 eigenvalue-minimisations  :  1440
 total energy-change (2. order) : 0.1980819E+02  (-0.2563834E+02)
 number of electron     357.9999880 magnetization      21.5764455
 augmentation part      115.0407592 magnetization      19.6926708

 Broyden mixing:
  rms(total) = 0.11334E+02    rms(broyden)= 0.11333E+02
  rms(prec ) = 0.17830E+02
  weight for this iteration     100.00

 eigenvalues of (default mixing * dielectric matrix)
  average eigenvalue GAMMA=   0.4676
  0.5962  0.5962  0.2106

 Free energy of the ion-electron system (eV)
  ---------------------------------------------------
  alpha Z        PSCENC =      1093.67576528
  Ewald energy   TEWEN  =    -19667.87537828
  -Hartree energ DENC   =    -12236.97537866
  -exchange      EXHF   =         0.00000000
  -V(xc)+E(xc)   XCENC  =      1440.87080418
  PAW double counting   =     31849.89022715   -33017.26649760
  entropy T*S    EENTRO =        -0.03594015
  eigenvalues    EBANDS =     -1248.50655708
  atomic energy  EATOM  =     31415.70703490
  Solvation  Ediel_sol  =         0.00000000
  ---------------------------------------------------
  free energy    TOTEN  =      -370.51592026 eV

  energy without entropy =     -370.47998011  energy(sigma->0) =     -370.49795019


--------------------------------------------------------------------------------------------------------




--------------------------------------- Iteration      1(   9)  ---------------------------------------


    POTLOK:  cpu time    0.1469: real time    0.1473
    SETDIJ:  cpu time    0.0212: real time    0.0213
     EDDAV:  cpu time    2.0401: real time    2.0449
    CHARGE:  cpu time    0.1416: real time    0.1419
    MIXING:  cpu time    0.0035: real time    0.0035
    --------------------------------------------
      LOOP:  cpu time    2.3533: real time    2.3589

 eigenvalue-minimisations  :  1264
 total energy-change (2. order) :-0.7588216E+01  (-0.3414564E+02)
 number of electron     357.9999885 magnetization      16.8329074
 augmentation part      113.9719965 magnetization      13.8474822

 Broyden mixing:
  rms(total) = 0.11515E+02    rms(broyden)= 0.11514E+02
  rms(prec ) = 0.14462E+02
  weight for this iteration     100.00

 eigenvalues of (default mixing * dielectric matrix)
  average eigenvalue GAMMA=   0.4321
  0.8574  0.3771  0.3771  0.1167

 Free energy of the ion-electron system (eV)
  ---------------------------------------------------
  alpha Z        PSCENC =      1093.67576528
  Ewald energy   TEWEN  =    -19667.87537828
  -Hartree energ DENC   =    -12187.74392879
  -exchange      EXHF   =         0.00000000
  -V(xc)+E(xc)   XCENC  =      1438.71416215
  PAW double counting   =     32449.61021841   -33618.65778178
  entropy T*S    EENTRO =        -0.04067909
  eigenvalues    EBANDS =     -1301.49354953
  atomic energy  EATOM  =     31415.70703490
  Solvation  Ediel_sol  =         0.00000000
  ---------------------------------------------------
  free energy    TOTEN  =      -378.10413673 eV

  energy without entropy =     -378.06345765  energy(sigma->0) =     -378.08379719


--------------------------------------------------------------------------------------------------------




--------------------------------------- Iteration      1(  10)  ---------------------------------------


    POTLOK:  cpu time    0.1476: real time    0.1479
    SETDIJ:  cpu time    0.0214: real time    0.0215
     EDDAV:  cpu time    2.1616: real time    2.1667
    CHARGE:  cpu time    0.1404: real time    0.1407
    MIXING:  cpu time    0.0043: real time    0.0043
    --------------------------------------------
      LOOP:  cpu time    2.4753: real time    2.4812

 eigenvalue-minimisations  :  1376
 total energy-change (2. order) : 0.2631150E+02  (-0.1199634E+02)
 number of electron     357.9999892 magnetization      15.2674489
 augmentation part      114.0348020 magnetization      13.1147632

 Broyden mixing:
  rms(total) = 0.78176E+01    rms(broyden)= 0.78171E+01
  rms(prec ) = 0.99833E+01
  weight for this iteration     100.00

 eigenvalues of (default mixing * dielectric matrix)
  average eigenvalue GAMMA=   0.4149
  0.9932  0.3911  0.2610  0.2147  0.2147

 Free energy of the ion-electron system (eV)
  ---------------------------------------------------
  alpha Z        PSCENC =      1093.67576528
  Ewald energy   TEWEN  =    -19667.87537828
  -Hartree energ DENC   =    -12166.19847413
  -exchange      EXHF   =         0.00000000
  -V(xc)+E(xc)   XCENC  =      1437.10841605
  PAW double counting   =     33537.23889199   -34732.71304459
  entropy T*S    EENTRO =        -0.01822706
  eigenvalues    EBANDS =     -1268.71762315
  atomic energy  EATOM  =     31415.70703490
  Solvation  Ediel_sol  =         0.00000000
  ---------------------------------------------------
  free energy    TOTEN  =      -351.79263900 eV

  energy without entropy =     -351.77441193  energy(sigma->0) =     -351.78352547


--------------------------------------------------------------------------------------------------------




--------------------------------------- Iteration      1(  11)  ---------------------------------------


    POTLOK:  cpu time    0.1480: real time    0.1483
    SETDIJ:  cpu time    0.0206: real time    0.0207
     EDDAV:  cpu time    2.1117: real time    2.1167
    CHARGE:  cpu time    0.1423: real time    0.1426
    MIXING:  cpu time    0.0038: real time    0.0039
    --------------------------------------------
      LOOP:  cpu time    2.4264: real time    2.4322

 eigenvalue-minimisations  :  1328
 total energy-change (2. order) : 0.1818406E+02  (-0.6000961E+01)
 number of electron     357.9999891 magnetization      11.7866975
 augmentation part      115.8965763 magnetization      10.2174678

 Broyden mixing:
  rms(total) = 0.60015E+01    rms(broyden)= 0.60012E+01
  rms(prec ) = 0.81663E+01
  weight for this iteration     100.00

 eigenvalues of (default mixing * dielectric matrix)
  average eigenvalue GAMMA=   0.4653
  1.0099  0.7034  0.3720  0.3720  0.2044  0.1303

 Free energy of the ion-electron system (eV)
  ---------------------------------------------------
  alpha Z        PSCENC =      1093.67576528
  Ewald energy   TEWEN  =    -19667.87537828
  -Hartree energ DENC   =    -12152.98241221
  -exchange      EXHF   =         0.00000000
  -V(xc)+E(xc)   XCENC  =      1436.48600268
  PAW double counting   =     33827.08583459   -35025.17024256
  entropy T*S    EENTRO =        -0.06019471
  eigenvalues    EBANDS =     -1260.47499208
  atomic energy  EATOM  =     31415.70703490
  Solvation  Ediel_sol  =         0.00000000
  ---------------------------------------------------
  free energy    TOTEN  =      -333.60858240 eV

  energy without entropy =     -333.54838769  energy(sigma->0) =     -333.57848505


--------------------------------------------------------------------------------------------------------




--------------------------------------- Iteration      1(  12)  ---------------------------------------


    POTLOK:  cpu time    0.1489: real time    0.1493
    SETDIJ:  cpu time    0.0208: real time    0.0208
     EDDAV:  cpu time    2.0341: real time    2.0390
    CHARGE:  cpu time    0.1418: real time    0.1421
    MIXING:  cpu time    0.0042: real time    0.0042
    --------------------------------------------
      LOOP:  cpu time    2.3497: real time    2.3553

 eigenvalue-minimisations  :  1264
 total energy-change (2. order) : 0.1599365E+01  (-0.7984469E+01)
 number of electron     357.9999895 magnetization      10.2587754
 augmentation part      115.1614615 magnetization       8.7464528

 Broyden mixing:
  rms(total) = 0.87949E+01    rms(broyden)= 0.87942E+01
  rms(prec ) = 0.13704E+02
  weight for this iteration     100.00

 eigenvalues of (default mixing * dielectric matrix)
  average eigenvalue GAMMA=   0.4366
  1.1968  0.5968  0.3898  0.3898  0.2263  0.1283  0.1283

 Free energy of the ion-electron system (eV)
  ---------------------------------------------------
  alpha Z        PSCENC =      1093.67576528
  Ewald energy   TEWEN  =    -19667.87537828
  -Hartree energ DENC   =    -12154.11022340
  -exchange      EXHF   =         0.00000000
  -V(xc)+E(xc)   XCENC  =      1436.18047284
  PAW double counting   =     34249.30962782   -35450.42589645
  entropy T*S    EENTRO =        -0.02856258
  eigenvalues    EBANDS =     -1254.44205779
  atomic energy  EATOM  =     31415.70703490
  Solvation  Ediel_sol  =         0.00000000
  ---------------------------------------------------
  free energy    TOTEN  =      -332.00921768 eV

  energy without entropy =     -331.98065510  energy(sigma->0) =     -331.99493639


--------------------------------------------------------------------------------------------------------




--------------------------------------- Iteration      1(  13)  ---------------------------------------


    POTLOK:  cpu time    0.1442: real time    0.1446
    SETDIJ:  cpu time    0.0205: real time    0.0205
     EDDAV:  cpu time    2.2011: real time    2.2063
    CHARGE:  cpu time    0.1289: real time    0.1292
    MIXING:  cpu time    0.0047: real time    0.0047
    --------------------------------------------
      LOOP:  cpu time    2.4994: real time    2.5053

 eigenvalue-minimisations  :  1408
 total energy-change (2. order) : 0.1662005E+02  (-0.1498430E+02)
 number of electron     357.9999905 magnetization       8.6162716
 augmentation part      116.9764553 magnetization       7.8643939

 Broyden mixing:
  rms(total) = 0.21650E+01    rms(broyden)= 0.21631E+01
  rms(prec ) = 0.25769E+01
  weight for this iteration     100.00

 eigenvalues of (default mixing * dielectric matrix)
  average eigenvalue GAMMA=   0.4425
  1.2168  0.5448  0.5448  0.4109  0.4109  0.1821  0.1268  0.1026

 Free energy of the ion-electron system (eV)
  ---------------------------------------------------
  alpha Z        PSCENC =      1093.67576528
  Ewald energy   TEWEN  =    -19667.87537828
  -Hartree energ DENC   =    -12151.76610446
  -exchange      EXHF   =         0.00000000
  -V(xc)+E(xc)   XCENC  =      1436.06051270
  PAW double counting   =     34489.24570674   -35693.16260510
  entropy T*S    EENTRO =        -0.02533308
  eigenvalues    EBANDS =     -1237.24876856
  atomic energy  EATOM  =     31415.70703490
  Solvation  Ediel_sol  =         0.00000000
  ---------------------------------------------------
  free energy    TOTEN  =      -315.38916987 eV

  energy without entropy =     -315.36383678  energy(sigma->0) =     -315.37650333


--------------------------------------------------------------------------------------------------------




--------------------------------------- Iteration      1(  14)  ---------------------------------------


    POTLOK:  cpu time    0.1442: real time    0.1445
    SETDIJ:  cpu time    0.0213: real time    0.0213
     EDDAV:  cpu time    2.0502: real time    2.0552
    CHARGE:  cpu time    0.1370: real time    0.1373
    MIXING:  cpu time    0.0047: real time    0.0047
    --------------------------------------------
      LOOP:  cpu time    2.3573: real time    2.3630

 eigenvalue-minimisations  :  1280
 total energy-change (2. order) : 0.2108466E+01  (-0.7689909E+00)
 number of electron     357.9999905 magnetization       7.4647279
 augmentation part      117.1851189 magnetization       6.5151530

 Broyden mixing:
  rms(total) = 0.13937E+01    rms(broyden)= 0.13934E+01
  rms(prec ) = 0.15761E+01
  weight for this iteration     100.00

 eigenvalues of (default mixing * dielectric matrix)
  average eigenvalue GAMMA=   0.4421
  1.2669  0.5545  0.5545  0.4191  0.4191  0.3433  0.1940  0.1199  0.1076

 Free energy of the ion-electron system (eV)
  ---------------------------------------------------
  alpha Z        PSCENC =      1093.67576528
  Ewald energy   TEWEN  =    -19667.87537828
  -Hartree energ DENC   =    -12153.60720512
  -exchange      EXHF   =         0.00000000
  -V(xc)+E(xc)   XCENC  =      1435.86531647
  PAW double counting   =     34667.62816788   -35873.33100057
  entropy T*S    EENTRO =        -0.01109806
  eigenvalues    EBANDS =     -1231.33230622
  atomic energy  EATOM  =     31415.70703490
  Solvation  Ediel_sol  =         0.00000000
  ---------------------------------------------------
  free energy    TOTEN  =      -313.28070373 eV

  energy without entropy =     -313.26960567  energy(sigma->0) =     -313.27515470


--------------------------------------------------------------------------------------------------------




--------------------------------------- Iteration      1(  15)  ---------------------------------------


    POTLOK:  cpu time    0.1474: real time    0.1477
    SETDIJ:  cpu time    0.0211: real time    0.0212
     EDDAV:  cpu time    2.1583: real time    2.1634
    CHARGE:  cpu time    0.1407: real time    0.1410
    MIXING:  cpu time    0.0047: real time    0.0047
    --------------------------------------------
      LOOP:  cpu time    2.4721: real time    2.4779

 eigenvalue-minimisations  :  1376
 total energy-change (2. order) :-0.4220250E+00  (-0.3591454E+00)
 number of electron     357.9999905 magnetization       5.6587193
 augmentation part      117.3979525 magnetization       4.7000081

 Broyden mixing:
  rms(total) = 0.12635E+01    rms(broyden)= 0.12634E+01
  rms(prec ) = 0.14088E+01
  weight for this iteration     100.00

 eigenvalues of (default mixing * dielectric matrix)
  average eigenvalue GAMMA=   0.5008
  1.3665  0.8503  0.8503  0.4667  0.4069  0.4069  0.2438  0.1876  0.1226  0.1059

 Free energy of the ion-electron system (eV)
  ---------------------------------------------------
  alpha Z        PSCENC =      1093.67576528
  Ewald energy   TEWEN  =    -19667.87537828
  -Hartree energ DENC   =    -12151.52200653
  -exchange      EXHF   =         0.00000000
  -V(xc)+E(xc)   XCENC  =      1435.68073479
  PAW double counting   =     34813.43759382   -36017.81880236
  entropy T*S    EENTRO =        -0.00100350
  eigenvalues    EBANDS =     -1234.98666687
  atomic energy  EATOM  =     31415.70703490
  Solvation  Ediel_sol  =         0.00000000
  ---------------------------------------------------
  free energy    TOTEN  =      -313.70272876 eV

  energy without entropy =     -313.70172526  energy(sigma->0) =     -313.70222701


--------------------------------------------------------------------------------------------------------




--------------------------------------- Iteration      1(  16)  ---------------------------------------


    POTLOK:  cpu time    0.1497: real time    0.1500
    SETDIJ:  cpu time    0.0212: real time    0.0213
     EDDAV:  cpu time    2.0762: real time    2.0812
    CHARGE:  cpu time    0.1416: real time    0.1420
    MIXING:  cpu time    0.0053: real time    0.0053
    --------------------------------------------
      LOOP:  cpu time    2.3941: real time    2.3998

 eigenvalue-minimisations  :  1280
 total energy-change (2. order) :-0.4321664E+00  (-0.2899468E+00)
 number of electron     357.9999905 magnetization       4.2999880
 augmentation part      117.5975392 magnetization       3.4746445

 Broyden mixing:
  rms(total) = 0.10088E+01    rms(broyden)= 0.10086E+01
  rms(prec ) = 0.11812E+01
  weight for this iteration     100.00

 eigenvalues of (default mixing * dielectric matrix)
  average eigenvalue GAMMA=   0.5092
  1.4088  0.9655  0.9655  0.4072  0.4072  0.4017  0.4017  0.2243  0.1915  0.1222
  0.1062

 Free energy of the ion-electron system (eV)
  ---------------------------------------------------
  alpha Z        PSCENC =      1093.67576528
  Ewald energy   TEWEN  =    -19667.87537828
  -Hartree energ DENC   =    -12151.55024881
  -exchange      EXHF   =         0.00000000
  -V(xc)+E(xc)   XCENC  =      1435.56662098
  PAW double counting   =     35077.14100904   -36281.11806358
  entropy T*S    EENTRO =        -0.00307850
  eigenvalues    EBANDS =     -1235.67855622
  atomic energy  EATOM  =     31415.70703490
  Solvation  Ediel_sol  =         0.00000000
  ---------------------------------------------------
  free energy    TOTEN  =      -314.13489520 eV

  energy without entropy =     -314.13181669  energy(sigma->0) =     -314.13335594


--------------------------------------------------------------------------------------------------------




--------------------------------------- Iteration      1(  17)  ---------------------------------------


    POTLOK:  cpu time    0.1479: real time    0.1482
    SETDIJ:  cpu time    0.0214: real time    0.0215
     EDDAV:  cpu time    1.8708: real time    1.8752
    CHARGE:  cpu time    0.1418: real time    0.1422
    MIXING:  cpu time    0.0055: real time    0.0055
    --------------------------------------------
      LOOP:  cpu time    2.1874: real time    2.1926

 eigenvalue-minimisations  :  1152
 total energy-change (2. order) : 0.6806128E-01  (-0.1936917E+00)
 number of electron     357.9999905 magnetization       2.5166619
 augmentation part      117.6958082 magnetization       1.7704459

 Broyden mixing:
  rms(total) = 0.67043E+00    rms(broyden)= 0.67026E+00
  rms(prec ) = 0.81480E+00
  weight for this iteration     100.00

 eigenvalues of (default mixing * dielectric matrix)
  average eigenvalue GAMMA=   0.5724
  1.7485  1.0616  1.0616  0.6385  0.6385  0.4044  0.4044  0.2807  0.1895  0.2129
  0.1222  0.1061

 Free energy of the ion-electron system (eV)
  ---------------------------------------------------
  alpha Z        PSCENC =      1093.67576528
  Ewald energy   TEWEN  =    -19667.87537828
  -Hartree energ DENC   =    -12151.90857256
  -exchange      EXHF   =         0.00000000
  -V(xc)+E(xc)   XCENC  =      1435.54399018
  PAW double counting   =     35281.16796187   -36484.96373993
  entropy T*S    EENTRO =        -0.00107590
  eigenvalues    EBANDS =     -1235.41281947
  atomic energy  EATOM  =     31415.70703490
  Solvation  Ediel_sol  =         0.00000000
  ---------------------------------------------------
  free energy    TOTEN  =      -314.06683392 eV

  energy without entropy =     -314.06575801  energy(sigma->0) =     -314.06629597


--------------------------------------------------------------------------------------------------------




--------------------------------------- Iteration      1(  18)  ---------------------------------------


    POTLOK:  cpu time    0.1471: real time    0.1474
    SETDIJ:  cpu time    0.0212: real time    0.0213
     EDDAV:  cpu time    2.1624: real time    2.1675
    CHARGE:  cpu time    0.1413: real time    0.1417
    MIXING:  cpu time    0.0055: real time    0.0055
    --------------------------------------------
      LOOP:  cpu time    2.4775: real time    2.4834

 eigenvalue-minimisations  :  1360
 total energy-change (2. order) :-0.8133176E-02  (-0.1170826E+00)
 number of electron     357.9999905 magnetization       2.0773365
 augmentation part      117.7871428 magnetization       1.4636670

 Broyden mixing:
  rms(total) = 0.45472E+00    rms(broyden)= 0.45457E+00
  rms(prec ) = 0.55332E+00
  weight for this iteration     100.00

 eigenvalues of (default mixing * dielectric matrix)
  average eigenvalue GAMMA=   0.5926
  1.9413  1.2047  0.7864  0.7864  0.8315  0.4062  0.4062  0.4612  0.1061  0.1222
  0.2578  0.1900  0.2038

 Free energy of the ion-electron system (eV)
  ---------------------------------------------------
  alpha Z        PSCENC =      1093.67576528
  Ewald energy   TEWEN  =    -19667.87537828
  -Hartree energ DENC   =    -12153.90775234
  -exchange      EXHF   =         0.00000000
  -V(xc)+E(xc)   XCENC  =      1435.62253190
  PAW double counting   =     35548.01806877   -36751.31356727
  entropy T*S    EENTRO =        -0.00310793
  eigenvalues    EBANDS =     -1233.99856212
  atomic energy  EATOM  =     31415.70703490
  Solvation  Ediel_sol  =         0.00000000
  ---------------------------------------------------
  free energy    TOTEN  =      -314.07496710 eV

  energy without entropy =     -314.07185916  energy(sigma->0) =     -314.07341313


--------------------------------------------------------------------------------------------------------




--------------------------------------- Iteration      1(  19)  ---------------------------------------


    POTLOK:  cpu time    0.1446: real time    0.1450
    SETDIJ:  cpu time    0.0212: real time    0.0213
     EDDAV:  cpu time    1.9831: real time    1.9878
    CHARGE:  cpu time    0.1403: real time    0.1407
    MIXING:  cpu time    0.0057: real time    0.0058
    --------------------------------------------
      LOOP:  cpu time    2.2950: real time    2.3004

 eigenvalue-minimisations  :  1248
 total energy-change (2. order) : 0.7900292E-02  (-0.3502649E-01)
 number of electron     357.9999905 magnetization       1.9829432
 augmentation part      117.7274951 magnetization       1.3993690

 Broyden mixing:
  rms(total) = 0.35217E+00    rms(broyden)= 0.35212E+00
  rms(prec ) = 0.44795E+00
  weight for this iteration     100.00

 eigenvalues of (default mixing * dielectric matrix)
  average eigenvalue GAMMA=   0.5869
  1.9473  1.2673  0.8368  0.8368  0.8755  0.4073  0.4073  0.4561  0.1061  0.1222
  0.2865  0.2732  0.1898  0.2043

 Free energy of the ion-electron system (eV)
  ---------------------------------------------------
  alpha Z        PSCENC =      1093.67576528
  Ewald energy   TEWEN  =    -19667.87537828
  -Hartree energ DENC   =    -12156.11480416
  -exchange      EXHF   =         0.00000000
  -V(xc)+E(xc)   XCENC  =      1435.64038999
  PAW double counting   =     35616.99062283   -36820.29769986
  entropy T*S    EENTRO =        -0.00364180
  eigenvalues    EBANDS =     -1231.78935570
  atomic energy  EATOM  =     31415.70703490
  Solvation  Ediel_sol  =         0.00000000
  ---------------------------------------------------
  free energy    TOTEN  =      -314.06706680 eV

  energy without entropy =     -314.06342500  energy(sigma->0) =     -314.06524590


--------------------------------------------------------------------------------------------------------




--------------------------------------- Iteration      1(  20)  ---------------------------------------


    POTLOK:  cpu time    0.1457: real time    0.1461
    SETDIJ:  cpu time    0.0211: real time    0.0212
     EDDAV:  cpu time    1.9219: real time    1.9264
    CHARGE:  cpu time    0.1404: real time    0.1408
    MIXING:  cpu time    0.0060: real time    0.0060
    --------------------------------------------
      LOOP:  cpu time    2.2352: real time    2.2405

 eigenvalue-minimisations  :  1184
 total energy-change (2. order) : 0.3406954E-01  (-0.1300430E-01)
 number of electron     357.9999905 magnetization       1.9153119
 augmentation part      117.7612722 magnetization       1.3358312

 Broyden mixing:
  rms(total) = 0.23877E+00    rms(broyden)= 0.23874E+00
  rms(prec ) = 0.30233E+00
  weight for this iteration     100.00

 eigenvalues of (default mixing * dielectric matrix)
  average eigenvalue GAMMA=   0.6178
  2.1384  1.3484  0.9538  0.9538  0.8474  0.5473  0.5473  0.4065  0.4065  0.1061
  0.1222  0.2696  0.1899  0.2281  0.2024

 Free energy of the ion-electron system (eV)
  ---------------------------------------------------
  alpha Z        PSCENC =      1093.67576528
  Ewald energy   TEWEN  =    -19667.87537828
  -Hartree energ DENC   =    -12155.85521294
  -exchange      EXHF   =         0.00000000
  -V(xc)+E(xc)   XCENC  =      1435.61152923
  PAW double counting   =     35634.44562098   -36837.57120859
  entropy T*S    EENTRO =        -0.00398239
  eigenvalues    EBANDS =     -1232.16716544
  atomic energy  EATOM  =     31415.70703490
  Solvation  Ediel_sol  =         0.00000000
  ---------------------------------------------------
  free energy    TOTEN  =      -314.03299726 eV

  energy without entropy =     -314.02901487  energy(sigma->0) =     -314.03100607


--------------------------------------------------------------------------------------------------------




--------------------------------------- Iteration      1(  21)  ---------------------------------------


    POTLOK:  cpu time    0.1473: real time    0.1476
    SETDIJ:  cpu time    0.0214: real time    0.0214
     EDDAV:  cpu time    2.0876: real time    2.0926
    CHARGE:  cpu time    0.1440: real time    0.1444
    MIXING:  cpu time    0.0064: real time    0.0064
    --------------------------------------------
      LOOP:  cpu time    2.4067: real time    2.4124

 eigenvalue-minimisations  :  1296
 total energy-change (2. order) : 0.1139377E-01  (-0.3865007E-02)
 number of electron     357.9999905 magnetization       1.8898450
 augmentation part      117.7357059 magnetization       1.3139036

 Broyden mixing:
  rms(total) = 0.18459E+00    rms(broyden)= 0.18458E+00
  rms(prec ) = 0.23459E+00
  weight for this iteration     100.00

 eigenvalues of (default mixing * dielectric matrix)
  average eigenvalue GAMMA=   0.6241
  2.1697  1.2951  1.0547  1.0547  0.8220  0.6397  0.6397  0.4056  0.4056  0.4008
  0.1061  0.1222  0.2597  0.1899  0.2190  0.2014

 Free energy of the ion-electron system (eV)
  ---------------------------------------------------
  alpha Z        PSCENC =      1093.67576528
  Ewald energy   TEWEN  =    -19667.87537828
  -Hartree energ DENC   =    -12156.42611740
  -exchange      EXHF   =         0.00000000
  -V(xc)+E(xc)   XCENC  =      1435.59158971
  PAW double counting   =     35650.79002534   -36854.02662182
  entropy T*S    EENTRO =        -0.00475779
  eigenvalues    EBANDS =     -1231.45314344
  atomic energy  EATOM  =     31415.70703490
  Solvation  Ediel_sol  =         0.00000000
  ---------------------------------------------------
  free energy    TOTEN  =      -314.02160349 eV

  energy without entropy =     -314.01684570  energy(sigma->0) =     -314.01922460


--------------------------------------------------------------------------------------------------------




--------------------------------------- Iteration      1(  22)  ---------------------------------------


    POTLOK:  cpu time    0.1477: real time    0.1480
    SETDIJ:  cpu time    0.0213: real time    0.0213
     EDDAV:  cpu time    2.1853: real time    2.1905
    CHARGE:  cpu time    0.1410: real time    0.1413
    MIXING:  cpu time    0.0063: real time    0.0063
    --------------------------------------------
      LOOP:  cpu time    2.5014: real time    2.5074

 eigenvalue-minimisations  :  1376
 total energy-change (2. order) : 0.7233619E-02  (-0.1415823E-02)
 number of electron     357.9999905 magnetization       1.8806677
 augmentation part      117.7242779 magnetization       1.3118412

 Broyden mixing:
  rms(total) = 0.14940E+00    rms(broyden)= 0.14939E+00
  rms(prec ) = 0.18816E+00
  weight for this iteration     100.00

 eigenvalues of (default mixing * dielectric matrix)
  average eigenvalue GAMMA=   0.6190
  2.1888  1.1486  1.1486  1.2217  0.7342  0.7342  0.7390  0.4057  0.4057  0.3982
  0.1061  0.1222  0.2775  0.2775  0.1900  0.2240  0.2011

 Free energy of the ion-electron system (eV)
  ---------------------------------------------------
  alpha Z        PSCENC =      1093.67576528
  Ewald energy   TEWEN  =    -19667.87537828
  -Hartree energ DENC   =    -12156.78323873
  -exchange      EXHF   =         0.00000000
  -V(xc)+E(xc)   XCENC  =      1435.58241649
  PAW double counting   =     35658.63323870   -36861.94669675
  entropy T*S    EENTRO =        -0.00557810
  eigenvalues    EBANDS =     -1231.00193338
  atomic energy  EATOM  =     31415.70703490
  Solvation  Ediel_sol  =         0.00000000
  ---------------------------------------------------
  free energy    TOTEN  =      -314.01436987 eV

  energy without entropy =     -314.00879177  energy(sigma->0) =     -314.01158082


--------------------------------------------------------------------------------------------------------




--------------------------------------- Iteration      1(  23)  ---------------------------------------


    POTLOK:  cpu time    0.1442: real time    0.1445
    SETDIJ:  cpu time    0.0211: real time    0.0211
     EDDAV:  cpu time    2.1495: real time    2.1546
    CHARGE:  cpu time    0.1276: real time    0.1279
    MIXING:  cpu time    0.0061: real time    0.0061
    --------------------------------------------
      LOOP:  cpu time    2.4484: real time    2.4543

 eigenvalue-minimisations  :  1344
 total energy-change (2. order) : 0.3999937E-02  (-0.8266204E-03)
 number of electron     357.9999904 magnetization       1.8576611
 augmentation part      117.7216813 magnetization       1.2939106

 Broyden mixing:
  rms(total) = 0.12459E+00    rms(broyden)= 0.12458E+00
  rms(prec ) = 0.15520E+00
  weight for this iteration     100.00

 eigenvalues of (default mixing * dielectric matrix)
  average eigenvalue GAMMA=   0.6646
  2.4335  1.4056  1.4056  1.2838  0.8096  0.8096  0.6891  0.4064  0.4064  0.4947
  0.4947  0.1061  0.1222  0.2619  0.1899  0.2311  0.2008  0.2120

 Free energy of the ion-electron system (eV)
  ---------------------------------------------------
  alpha Z        PSCENC =      1093.67576528
  Ewald energy   TEWEN  =    -19667.87537828
  -Hartree energ DENC   =    -12156.97958346
  -exchange      EXHF   =         0.00000000
  -V(xc)+E(xc)   XCENC  =      1435.58013093
  PAW double counting   =     35661.79480882   -36865.11833180
  entropy T*S    EENTRO =        -0.00620740
  eigenvalues    EBANDS =     -1230.78860892
  atomic energy  EATOM  =     31415.70703490
  Solvation  Ediel_sol  =         0.00000000
  ---------------------------------------------------
  free energy    TOTEN  =      -314.01036994 eV

  energy without entropy =     -314.00416253  energy(sigma->0) =     -314.00726623


--------------------------------------------------------------------------------------------------------




--------------------------------------- Iteration      1(  24)  ---------------------------------------


    POTLOK:  cpu time    0.1457: real time    0.1461
    SETDIJ:  cpu time    0.0214: real time    0.0214
     EDDAV:  cpu time    2.2457: real time    2.2511
    CHARGE:  cpu time    0.1418: real time    0.1422
    MIXING:  cpu time    0.0069: real time    0.0069
    --------------------------------------------
      LOOP:  cpu time    2.5616: real time    2.5676

 eigenvalue-minimisations  :  1424
 total energy-change (2. order) : 0.4680938E-02  (-0.5575686E-03)
 number of electron     357.9999904 magnetization       1.8454044
 augmentation part      117.7046308 magnetization       1.2883594

 Broyden mixing:
  rms(total) = 0.84361E-01    rms(broyden)= 0.84357E-01
  rms(prec ) = 0.10449E+00
  weight for this iteration     100.00

 eigenvalues of (default mixing * dielectric matrix)
  average eigenvalue GAMMA=   0.6965
  2.6446  1.5919  1.5919  1.3621  0.8486  0.8486  0.7306  0.5407  0.5407  0.4062
  0.4062  0.4104  0.1061  0.1222  0.2626  0.1899  0.2232  0.2005  0.2069

 Free energy of the ion-electron system (eV)
  ---------------------------------------------------
  alpha Z        PSCENC =      1093.67576528
  Ewald energy   TEWEN  =    -19667.87537828
  -Hartree energ DENC   =    -12157.59066715
  -exchange      EXHF   =         0.00000000
  -V(xc)+E(xc)   XCENC  =      1435.58738076
  PAW double counting   =     35666.99871146   -36870.35432553
  entropy T*S    EENTRO =        -0.00715554
  eigenvalues    EBANDS =     -1230.14705489
  atomic energy  EATOM  =     31415.70703490
  Solvation  Ediel_sol  =         0.00000000
  ---------------------------------------------------
  free energy    TOTEN  =      -314.00568900 eV

  energy without entropy =     -313.99853346  energy(sigma->0) =     -314.00211123


--------------------------------------------------------------------------------------------------------




--------------------------------------- Iteration      1(  25)  ---------------------------------------


    POTLOK:  cpu time    0.1471: real time    0.1475
    SETDIJ:  cpu time    0.0213: real time    0.0213
     EDDAV:  cpu time    2.2093: real time    2.2146
    CHARGE:  cpu time    0.1409: real time    0.1413
    MIXING:  cpu time    0.0070: real time    0.0070
    --------------------------------------------
      LOOP:  cpu time    2.5257: real time    2.5317

 eigenvalue-minimisations  :  1408
 total energy-change (2. order) : 0.1360585E-02  (-0.5797553E-03)
 number of electron     357.9999904 magnetization       1.8507938
 augmentation part      117.6907340 magnetization       1.2966090

 Broyden mixing:
  rms(total) = 0.63676E-01    rms(broyden)= 0.63670E-01
  rms(prec ) = 0.79995E-01
  weight for this iteration     100.00

 eigenvalues of (default mixing * dielectric matrix)
  average eigenvalue GAMMA=   0.7049
  2.7052  1.7352  1.7352  1.4047  0.8810  0.8810  0.7806  0.5635  0.5635  0.4061
  0.4061  0.4404  0.1061  0.1222  0.2852  0.2622  0.1899  0.2236  0.2008  0.2054

 Free energy of the ion-electron system (eV)
  ---------------------------------------------------
  alpha Z        PSCENC =      1093.67576528
  Ewald energy   TEWEN  =    -19667.87537828
  -Hartree energ DENC   =    -12158.05442705
  -exchange      EXHF   =         0.00000000
  -V(xc)+E(xc)   XCENC  =      1435.59171148
  PAW double counting   =     35667.84876441   -36871.19210185
  entropy T*S    EENTRO =        -0.00791222
  eigenvalues    EBANDS =     -1229.69778509
  atomic energy  EATOM  =     31415.70703490
  Solvation  Ediel_sol  =         0.00000000
  ---------------------------------------------------
  free energy    TOTEN  =      -314.00432841 eV

  energy without entropy =     -313.99641620  energy(sigma->0) =     -314.00037230


--------------------------------------------------------------------------------------------------------




--------------------------------------- Iteration      1(  26)  ---------------------------------------


    POTLOK:  cpu time    0.1463: real time    0.1466
    SETDIJ:  cpu time    0.0211: real time    0.0211
     EDDAV:  cpu time    2.1628: real time    2.1680
    CHARGE:  cpu time    0.1424: real time    0.1428
    MIXING:  cpu time    0.0077: real time    0.0077
    --------------------------------------------
      LOOP:  cpu time    2.4803: real time    2.4862

 eigenvalue-minimisations  :  1376
 total energy-change (2. order) : 0.9997957E-03  (-0.4965706E-03)
 number of electron     357.9999904 magnetization       1.8687584
 augmentation part      117.6866892 magnetization       1.3124118

 Broyden mixing:
  rms(total) = 0.42828E-01    rms(broyden)= 0.42821E-01
  rms(prec ) = 0.54500E-01
  weight for this iteration     100.00

 eigenvalues of (default mixing * dielectric matrix)
  average eigenvalue GAMMA=   0.7263
  2.8044  1.8297  1.8297  1.5550  0.9155  0.9155  0.8391  0.6528  0.6528  0.4062
  0.4062  0.4776  0.4360  0.1061  0.1222  0.2624  0.1899  0.2295  0.2197  0.2034
  0.1995

 Free energy of the ion-electron system (eV)
  ---------------------------------------------------
  alpha Z        PSCENC =      1093.67576528
  Ewald energy   TEWEN  =    -19667.87537828
  -Hartree energ DENC   =    -12158.18782622
  -exchange      EXHF   =         0.00000000
  -V(xc)+E(xc)   XCENC  =      1435.58984516
  PAW double counting   =     35665.46871078   -36868.78359215
  entropy T*S    EENTRO =        -0.00804595
  eigenvalues    EBANDS =     -1229.58984214
  atomic energy  EATOM  =     31415.70703490
  Solvation  Ediel_sol  =         0.00000000
  ---------------------------------------------------
  free energy    TOTEN  =      -314.00332862 eV

  energy without entropy =     -313.99528267  energy(sigma->0) =     -313.99930564


--------------------------------------------------------------------------------------------------------




--------------------------------------- Iteration      1(  27)  ---------------------------------------


    POTLOK:  cpu time    0.1473: real time    0.1476
    SETDIJ:  cpu time    0.0212: real time    0.0213
     EDDAV:  cpu time    2.1556: real time    2.1607
    CHARGE:  cpu time    0.1400: real time    0.1403
    MIXING:  cpu time    0.0078: real time    0.0078
    --------------------------------------------
      LOOP:  cpu time    2.4718: real time    2.4777

 eigenvalue-minimisations  :  1376
 total energy-change (2. order) : 0.4642226E-03  (-0.1250002E-03)
 number of electron     357.9999904 magnetization       1.8831081
 augmentation part      117.6805936 magnetization       1.3249383

 Broyden mixing:
  rms(total) = 0.29399E-01    rms(broyden)= 0.29398E-01
  rms(prec ) = 0.38171E-01
  weight for this iteration     100.00

 eigenvalues of (default mixing * dielectric matrix)
  average eigenvalue GAMMA=   0.7403
  2.9274  1.9964  1.6781  1.6781  0.9459  0.9459  0.8627  0.8627  0.4062  0.4062
  0.5902  0.5226  0.5226  0.4140  0.1061  0.1222  0.2625  0.1899  0.2265  0.2187
  0.2016  0.1994

 Free energy of the ion-electron system (eV)
  ---------------------------------------------------
  alpha Z        PSCENC =      1093.67576528
  Ewald energy   TEWEN  =    -19667.87537828
  -Hartree energ DENC   =    -12158.28050699
  -exchange      EXHF   =         0.00000000
  -V(xc)+E(xc)   XCENC  =      1435.58543419
  PAW double counting   =     35661.00611551   -36864.30682465
  entropy T*S    EENTRO =        -0.00820838
  eigenvalues    EBANDS =     -1229.50629597
  atomic energy  EATOM  =     31415.70703490
  Solvation  Ediel_sol  =         0.00000000
  ---------------------------------------------------
  free energy    TOTEN  =      -314.00286440 eV

  energy without entropy =     -313.99465602  energy(sigma->0) =     -313.99876021


--------------------------------------------------------------------------------------------------------




--------------------------------------- Iteration      1(  28)  ---------------------------------------


    POTLOK:  cpu time    0.1491: real time    0.1495
    SETDIJ:  cpu time    0.0212: real time    0.0212
     EDDAV:  cpu time    2.2031: real time    2.2083
    CHARGE:  cpu time    0.1408: real time    0.1412
    MIXING:  cpu time    0.0077: real time    0.0078
    --------------------------------------------
      LOOP:  cpu time    2.5220: real time    2.5280

 eigenvalue-minimisations  :  1376
 total energy-change (2. order) : 0.2960610E-03  (-0.4738874E-04)
 number of electron     357.9999904 magnetization       1.8845675
 augmentation part      117.6756334 magnetization       1.3266895

 Broyden mixing:
  rms(total) = 0.18879E-01    rms(broyden)= 0.18878E-01
[...]
  n-local  -806.09383  -788.53650  -825.11366    -0.00000     0.00000     7.79442
  augment  3026.01413  2989.31856  3087.14037     0.00000     0.00000   -16.85711
  Kinetic  5435.48229  5385.57715  5610.48107     0.00000    -0.00000   -25.28647
  Fock        0.00000     0.00000     0.00000     0.00000     0.00000     0.00000
  -------------------------------------------------------------------------------------
  Total       -0.0355060     -0.0265368      0.4907951      0.0000000      0.0000000     -0.1161599
  in kB       -0.1103498     -0.0824741      1.5253516      0.0000000      0.0000000     -0.3610155
  external PRESSURE =       0.4441759 kB  Pullay stress =       0.0000000 kB


 VOLUME and BASIS-vectors are now :
 -----------------------------------------------------------------------------
  energy-cutoff  :      500.00
  volume of cell :      515.51
      direct lattice vectors                 reciprocal lattice vectors
     0.000000000  5.569143010  0.000000000     0.000000000  0.179560841  0.000000000
    -3.476263693  0.000000000  9.499678638    -0.001379935  0.000000000  0.104761753
     9.697398517  0.000000000  0.127735346     0.102625769  0.000000000  0.037554348

  length of vectors
     5.569143010 10.115745325  9.698239754     0.179560841  0.104770840  0.109281186


 FORCES acting on ions
    electron-ion (+dipol)            ewald-force                    non-local-force                 convergence-correction
 -----------------------------------------------------------------------------------------------
   -.827E-01 0.108E-01 -.360E+00   0.891E-01 -.918E-02 0.362E+00   -.885E-02 0.445E-04 0.228E-02   -.152E-02 -.118E-02 0.663E-03
   0.827E-01 0.108E-01 0.360E+00   -.891E-01 -.918E-02 -.362E+00   0.885E-02 0.445E-04 -.228E-02   0.152E-02 -.118E-02 -.663E-03
   -.255E-05 -.469E+01 0.506E-06   0.121E-12 0.464E+01 0.284E-13   0.000E+00 0.371E-01 0.646E-26   -.173E-11 0.168E-01 -.662E-11
   0.323E+02 -.288E-01 0.630E+02   -.326E+02 0.298E-01 -.637E+02   0.357E+00 0.520E-03 0.678E+00   -.241E-01 -.971E-03 -.100E-01
   -.323E+02 -.288E-01 -.630E+02   0.326E+02 0.298E-01 0.637E+02   -.357E+00 0.520E-03 -.678E+00   0.241E-01 -.971E-03 0.100E-01
   -.149E+02 0.386E-01 0.933E+00   0.149E+02 -.392E-01 -.784E+00   -.113E+00 -.601E-03 -.156E+00   0.211E-01 0.877E-03 0.117E-01
   0.149E+02 0.386E-01 -.933E+00   -.149E+02 -.392E-01 0.784E+00   0.113E+00 -.601E-03 0.156E+00   -.211E-01 0.877E-03 -.117E-01
   0.336E-05 0.469E+01 -.667E-06   -.284E-13 -.464E+01 -.142E-13   0.000E+00 -.368E-01 0.126E-24   -.240E-11 -.172E-01 -.422E-11
   -.782E-05 0.264E+02 0.147E-05   0.995E-13 -.268E+02 0.853E-13   -.258E-25 0.389E+00 0.688E-25   0.112E-11 0.138E-01 0.545E-12
   0.880E-05 -.264E+02 -.166E-05   0.711E-14 0.268E+02 -.497E-13   0.000E+00 -.388E+00 -.103E-24   0.337E-11 -.133E-01 0.847E-13
   -.820E-05 0.265E+02 0.154E-05   -.178E-14 -.269E+02 -.777E-14   0.000E+00 0.386E+00 -.582E-25   0.546E-11 0.166E-01 0.376E-11
   -.320E+02 0.112E-01 -.638E+02   0.323E+02 -.124E-01 0.645E+02   -.357E+00 -.292E-04 -.689E+00   0.140E-01 0.794E-03 0.118E-01
   0.320E+02 0.112E-01 0.638E+02   -.323E+02 -.124E-01 -.645E+02   0.357E+00 -.292E-04 0.689E+00   -.140E-01 0.794E-03 -.118E-01
   0.145E+02 -.144E-01 -.349E+00   -.145E+02 0.156E-01 0.193E+00   0.110E+00 -.277E-05 0.165E+00   -.163E-01 -.709E-03 -.108E-01
   -.145E+02 -.144E-01 0.349E+00   0.145E+02 0.156E-01 -.193E+00   -.110E+00 -.277E-05 -.165E+00   0.163E-01 -.709E-03 0.108E-01
   0.808E-05 -.265E+02 -.152E-05   -.577E-13 0.269E+02 -.366E-13   -.414E-24 -.386E+00 0.381E-24   0.524E-11 -.167E-01 0.304E-11
   -.309E-05 -.481E+01 0.618E-06   0.790E-13 0.478E+01 0.355E-13   0.000E+00 0.354E-01 0.614E-25   -.957E-11 0.991E-02 0.173E-11
   0.307E-05 0.481E+01 -.613E-06   0.302E-13 -.477E+01 0.711E-14   0.000E+00 -.355E-01 0.291E-25   -.790E-11 -.984E-02 0.106E-11
   -.279E+02 0.280E+02 0.362E+03   0.297E+02 -.298E+02 -.384E+03   -.185E+01 0.181E+01 0.226E+02   0.861E-04 0.100E-01 -.150E-02
   0.279E+02 0.280E+02 -.362E+03   -.297E+02 -.298E+02 0.384E+03   0.185E+01 0.181E+01 -.226E+02   -.861E-04 0.100E-01 0.150E-02
   0.276E+02 0.280E+02 -.362E+03   -.295E+02 -.298E+02 0.384E+03   0.183E+01 0.180E+01 -.226E+02   -.934E-03 0.903E-02 -.100E-01
   -.276E+02 0.280E+02 0.362E+03   0.295E+02 -.298E+02 -.384E+03   -.183E+01 0.180E+01 0.226E+02   0.934E-03 0.903E-02 0.100E-01
   -.126E+02 -.634E-02 0.386E+03   0.126E+02 0.114E-01 -.413E+03   -.215E-01 0.272E-03 0.268E+02   0.115E-01 -.559E-02 0.787E-02
   0.126E+02 -.634E-02 -.386E+03   -.126E+02 0.114E-01 0.413E+03   0.215E-01 0.272E-03 -.268E+02   -.115E-01 -.559E-02 -.787E-02
   0.640E+01 0.543E-02 -.392E+03   -.667E+01 -.104E-01 0.419E+03   0.293E+00 -.542E-03 -.271E+02   -.167E-01 0.562E-02 -.115E-02
   -.640E+01 0.543E-02 0.392E+03   0.667E+01 -.104E-01 -.419E+03   -.293E+00 -.542E-03 0.271E+02   0.167E-01 0.562E-02 0.115E-02
   0.131E+02 -.828E-01 -.386E+03   -.131E+02 0.686E-01 0.413E+03   0.571E-01 -.915E-03 -.269E+02   -.293E-02 0.175E-01 -.110E-01
   -.131E+02 -.828E-01 0.386E+03   0.131E+02 0.686E-01 -.413E+03   -.571E-01 -.915E-03 0.269E+02   0.293E-02 0.175E-01 0.110E-01
   -.691E+01 0.849E-01 0.392E+03   0.723E+01 -.710E-01 -.419E+03   -.327E+00 0.887E-03 0.271E+02   0.721E-02 -.176E-01 0.492E-02
   0.691E+01 0.849E-01 -.392E+03   -.723E+01 -.710E-01 0.419E+03   0.327E+00 0.887E-03 -.271E+02   -.721E-02 -.176E-01 -.492E-02
   -.278E+02 -.280E+02 0.362E+03   0.297E+02 0.298E+02 -.384E+03   -.185E+01 -.180E+01 0.226E+02   -.723E-02 -.984E-02 0.359E-02
   0.278E+02 -.280E+02 -.362E+03   -.297E+02 0.298E+02 0.384E+03   0.185E+01 -.180E+01 -.226E+02   0.723E-02 -.984E-02 -.359E-02
   0.278E+02 -.280E+02 -.362E+03   -.296E+02 0.298E+02 0.384E+03   0.184E+01 -.180E+01 -.226E+02   -.265E-01 -.973E-02 0.250E-02
   -.278E+02 -.280E+02 0.362E+03   0.296E+02 0.298E+02 -.384E+03   -.184E+01 -.180E+01 0.226E+02   0.265E-01 -.973E-02 -.250E-02
   0.146E+02 0.215E+01 0.400E+03   -.150E+02 -.278E+01 -.427E+03   0.394E+00 0.614E+00 0.272E+02   -.163E-01 0.111E-01 -.433E-02
   -.146E+02 0.215E+01 -.400E+03   0.150E+02 -.278E+01 0.427E+03   -.394E+00 0.614E+00 -.272E+02   0.163E-01 0.111E-01 0.433E-02
   -.144E+02 0.218E+01 -.400E+03   0.148E+02 -.280E+01 0.427E+03   -.372E+00 0.613E+00 -.272E+02   -.373E-02 0.108E-01 0.249E-02
   0.144E+02 0.218E+01 0.400E+03   -.148E+02 -.280E+01 -.427E+03   0.372E+00 0.613E+00 0.272E+02   0.373E-02 0.108E-01 -.249E-02
   0.460E+02 -.705E-02 0.379E+03   -.491E+02 0.215E-02 -.401E+03   0.311E+01 -.109E-02 0.221E+02   0.297E-03 0.634E-02 0.243E-02
   -.460E+02 -.705E-02 -.379E+03   0.491E+02 0.215E-02 0.401E+03   -.311E+01 -.109E-02 -.221E+02   -.297E-03 0.634E-02 -.243E-02
   -.221E+02 0.230E-02 -.395E+03   0.231E+02 0.325E-02 0.421E+03   -.977E+00 0.752E-03 -.266E+02   -.694E-02 -.645E-02 0.872E-03
   0.221E+02 0.230E-02 0.395E+03   -.231E+02 0.325E-02 -.421E+03   0.977E+00 0.752E-03 0.266E+02   0.694E-02 -.645E-02 -.872E-03
   -.461E+02 0.347E-01 -.379E+03   0.492E+02 -.104E-01 0.401E+03   -.314E+01 -.350E-02 -.220E+02   0.146E-01 -.228E-01 0.319E-02
   0.461E+02 0.347E-01 0.379E+03   -.492E+02 -.104E-01 -.401E+03   0.314E+01 -.350E-02 0.220E+02   -.146E-01 -.228E-01 -.319E-02
   0.222E+02 -.421E-01 0.395E+03   -.232E+02 0.202E-01 -.422E+03   0.994E+00 -.312E-03 0.266E+02   -.958E-02 0.232E-01 -.628E-02
   -.222E+02 -.421E-01 -.395E+03   0.232E+02 0.202E-01 0.422E+03   -.994E+00 -.312E-03 -.266E+02   0.958E-02 0.232E-01 0.628E-02
   0.146E+02 -.215E+01 0.400E+03   -.150E+02 0.277E+01 -.427E+03   0.395E+00 -.613E+00 0.272E+02   -.975E-02 -.110E-01 -.854E-02
   -.146E+02 -.215E+01 -.400E+03   0.150E+02 0.277E+01 0.427E+03   -.395E+00 -.613E+00 -.272E+02   0.975E-02 -.110E-01 0.854E-02
   -.146E+02 -.220E+01 -.400E+03   0.149E+02 0.282E+01 0.427E+03   -.381E+00 -.615E+00 -.272E+02   0.166E-01 -.111E-01 -.664E-02
   0.146E+02 -.220E+01 0.400E+03   -.149E+02 0.282E+01 -.427E+03   0.381E+00 -.615E+00 0.272E+02   -.166E-01 -.111E-01 0.664E-02
 -----------------------------------------------------------------------------------------------
   0.403E-05 0.758E-02 -.614E-06   -.906E-13 -.706E-13 -.341E-12   -.444E-15 -.584E-02 0.711E-14   0.360E-12 -.353E-02 -.389E-11
 
 
 POSITION                                       TOTAL-FORCE (eV/Angst)
 -----------------------------------------------------------------------------------
      3.98418      1.39164      2.43801        -0.003987      0.000554      0.004705
      2.23696      1.39164      7.18940         0.003987      0.000554     -0.004705
      0.00000      5.56687      0.00000         0.000000      0.005773      0.000000
     -1.05689      1.39270      9.49096        -0.008450      0.000539     -0.002515
      7.27803      1.39270      0.13646         0.008450      0.000539      0.002515
      3.79953      4.17728      9.58685         0.000104     -0.000301      0.004001
      2.42160      4.17728      0.04056        -0.000104     -0.000301     -0.004001
      0.00000      2.78757      0.00000         0.000000     -0.004937      0.000000
      4.84870      5.56165      0.06387         0.000000     -0.004864      0.000000
      4.84870      2.79306      0.06387         0.000000      0.004147      0.000000
      3.11057      5.56130      4.81371         0.000000     -0.009698      0.000000
      5.54012      1.39226      4.88843         0.007901     -0.000443      0.000324
      0.68102      1.39226      4.73899        -0.007901     -0.000443     -0.000324
      0.68312      4.17681      4.78845         0.004488      0.000565     -0.001878
      5.53802      4.17681      4.83896        -0.004488      0.000565      0.001878
      3.11057      2.79229      4.81371         0.000000      0.009814      0.000000
     -1.73813      5.56638      4.74984         0.000000      0.011652      0.000000
     -1.73813      2.78731      4.74984         0.000000     -0.011717      0.000000
      4.76864      0.02686      3.90951        -0.008266      0.001466      0.007193
      1.45249      0.02686      5.71791         0.008266      0.001466     -0.007193
      3.19121      0.02727      0.96942         0.005581      0.000787     -0.001517
      3.02993      0.02727      8.65799        -0.005581      0.000787      0.001517
      7.17737      1.39229      3.95637        -0.002086     -0.000236      0.004356
     -0.95624      1.39229      5.67105         0.002086     -0.000236     -0.004356
     -0.97271      4.17683      5.68488         0.009035      0.000151     -0.004410
      7.19384      4.17683      3.94253        -0.009035      0.000151      0.004410
      0.78211      1.39249      0.92145        -0.005686      0.002415      0.000817
      5.43902      1.39249      8.70596         0.005686      0.002415     -0.000817
      5.45555      4.17737      8.69209        -0.001131     -0.002718      0.002502
      0.76558      4.17737      0.93533         0.001131     -0.002718     -0.002502
      4.76868      2.75763      3.90973        -0.009301     -0.001238      0.005064
      1.45246      2.75763      5.71768         0.009301     -0.001238     -0.005064
      3.19176      2.75811      0.97048        -0.001753     -0.000405     -0.012459
      3.02937      2.75811      8.65693         0.001753     -0.000405      0.012459
     -0.07987      5.55240      3.83102        -0.009799      0.001430      0.008912
      6.30100      5.55240      5.79639         0.009799      0.001430     -0.008912
      8.03856      5.55286      1.04560         0.006469      0.001165     -0.013525
     -1.81742      5.55286      8.58181        -0.006469      0.001165      0.013525
      2.39095      1.39221      3.83639        -0.012652      0.000382      0.007065
      3.83018      1.39221      5.79102         0.012652      0.000382     -0.007065
      3.86489      4.17681      5.75737         0.008851     -0.000119     -0.009281
      2.35624      4.17681      3.87005        -0.008851     -0.000119      0.009281
      5.57039      1.39289      1.03982         0.002187     -0.001997     -0.002352
      0.65074      1.39289      8.58759        -0.002187     -0.001997      0.002352
      0.61649      4.17727      8.62117        -0.000409      0.001008      0.003490
      5.60465      4.17727      1.00625         0.000409      0.001008     -0.003490
     -0.07984      2.80127      3.83081        -0.009674     -0.001837      0.010606
      6.30098      2.80127      5.79660         0.009674     -0.001837     -0.010606
      8.03807      2.80163      1.04457         0.011930     -0.001252     -0.002509
     -1.81694      2.80163      8.58284        -0.011930     -0.001252      0.002509
 -----------------------------------------------------------------------------------
    total drift:                                0.000004     -0.001787     -0.000001


--------------------------------------------------------------------------------------------------------



  FREE ENERGIE OF THE ION-ELECTRON SYSTEM (eV)
  ---------------------------------------------------
  free  energy   TOTEN  =      -314.0041941171 eV

  energy  without entropy=     -313.9951186840  energy(sigma->0) =     -313.99965640
 
 d Force = 0.9312759E-03[ 0.160E-03, 0.170E-02]  d Energy = 0.1814474E-02-0.883E-03
 d Force =-0.1265692E+02[-0.127E+02,-0.126E+02]  d Ewald  =-0.8436463E+01-0.422E+01


--------------------------------------------------------------------------------------------------------


    POTLOK:  cpu time    0.1635: real time    0.1639


--------------------------------------------------------------------------------------------------------


 Quasi-Newton relaxation of ions (Broydens 2nd method)
  g(Force)  = 0.219E-03   g(Stress)= 0.260E-03

 retain information from N=  1 steps
 eigenvalues of (default step * inverse Hessian matrix)
  average eigenvalue of G=   0.4058
 eigenvalue spectrum of G is  0.4058


--------------------------------------------------------------------------------------------------------


  
 reached required accuracy - stopping structural energy minimisation
     LOOP+:  cpu time   20.1619: real time   21.2877
    4ORBIT:  cpu time    0.0000: real time    0.0000

volume of typ            1:     3.0 %

volume of typ            2:    19.8 %

volume of typ            3:    10.1 %
 
total charge     
 
# of ion       s       p       d       tot
------------------------------------------
    1        2.063   0.200   0.077   2.340
    2        2.063   0.200   0.077   2.340
    3        0.301   0.426   7.828   8.556
    4        0.299   0.421   7.833   8.552
    5        0.299   0.421   7.833   8.552
    6        0.297   0.416   7.826   8.538
    7        0.297   0.416   7.826   8.538
    8        0.301   0.426   7.827   8.555
    9        0.303   0.432   7.838   8.573
   10        0.303   0.432   7.839   8.574
   11        0.303   0.432   7.838   8.573
   12        0.299   0.420   7.833   8.552
   13        0.299   0.420   7.833   8.552
   14        0.296   0.416   7.826   8.538
   15        0.296   0.416   7.826   8.538
   16        0.303   0.432   7.838   8.573
   17        0.301   0.426   7.828   8.555
   18        0.301   0.426   7.828   8.556
   19        1.273   2.760   0.008   4.041
   20        1.273   2.760   0.008   4.041
   21        1.273   2.760   0.008   4.041
   22        1.273   2.760   0.008   4.041
   23        1.284   2.727   0.008   4.020
   24        1.284   2.727   0.008   4.020
   25        1.285   2.728   0.008   4.021
   26        1.285   2.728   0.008   4.021
   27        1.284   2.727   0.008   4.020
   28        1.284   2.727   0.008   4.020
   29        1.285   2.728   0.008   4.021
   30        1.285   2.728   0.008   4.021
   31        1.273   2.760   0.008   4.041
   32        1.273   2.760   0.008   4.041
   33        1.273   2.760   0.008   4.040
   34        1.273   2.760   0.008   4.040
   35        1.285   2.725   0.008   4.018
   36        1.285   2.725   0.008   4.018
   37        1.285   2.724   0.008   4.018
   38        1.285   2.724   0.008   4.018
   39        1.273   2.758   0.007   4.038
   40        1.273   2.758   0.007   4.038
   41        1.283   2.731   0.008   4.023
   42        1.283   2.731   0.008   4.023
   43        1.273   2.758   0.007   4.038
   44        1.273   2.758   0.007   4.038
   45        1.283   2.732   0.008   4.023
   46        1.283   2.732   0.008   4.023
   47        1.285   2.724   0.008   4.018
   48        1.285   2.724   0.008   4.018
   49        1.285   2.725   0.008   4.018
   50        1.285   2.725   0.008   4.018
--------------------------------------------------
tot          49.88   94.83  125.71  270.43
 
magnetization (x)
 
# of ion       s       p       d       tot
------------------------------------------
    1        0.003   0.001   0.000   0.003
    2        0.003   0.001   0.000   0.003
    3       -0.000   0.001   0.075   0.076
    4        0.000   0.001   0.094   0.094
    5        0.000   0.001   0.094   0.094
    6       -0.000   0.001   0.079   0.080
    7       -0.000   0.001   0.079   0.080
    8       -0.000   0.001   0.075   0.076
    9       -0.000   0.000   0.097   0.098
   10       -0.000   0.000   0.097   0.098
   11       -0.000   0.000   0.096   0.096
   12        0.000   0.001   0.096   0.096
   13        0.000   0.001   0.096   0.096
   14       -0.000   0.001   0.080   0.081
   15       -0.000   0.001   0.080   0.081
   16       -0.000   0.000   0.095   0.096
   17       -0.000   0.001   0.074   0.075
   18       -0.000   0.001   0.074   0.075
   19        0.002   0.007   0.000   0.009
   20        0.002   0.007   0.000   0.009
   21        0.002   0.007   0.000   0.009
   22        0.002   0.007   0.000   0.009
   23        0.002   0.008   0.000   0.010
   24        0.002   0.008   0.000   0.010
   25        0.002   0.006   0.000   0.008
   26        0.002   0.006   0.000   0.008
   27        0.002   0.008   0.000   0.010
   28        0.002   0.008   0.000   0.010
   29        0.002   0.006   0.000   0.008
   30        0.002   0.006   0.000   0.008
   31        0.002   0.007   0.000   0.009
   32        0.002   0.007   0.000   0.009
   33        0.002   0.007   0.000   0.009
   34        0.002   0.007   0.000   0.009
   35        0.002   0.006   0.000   0.008
   36        0.002   0.006   0.000   0.008
   37        0.002   0.006   0.000   0.008
   38        0.002   0.006   0.000   0.008
   39        0.003   0.008   0.000   0.010
   40        0.003   0.008   0.000   0.010
   41        0.002   0.005   0.000   0.007
   42        0.002   0.005   0.000   0.007
   43        0.003   0.008   0.000   0.010
   44        0.003   0.008   0.000   0.010
   45        0.002   0.005   0.000   0.007
   46        0.002   0.005   0.000   0.007
   47        0.002   0.006   0.000   0.008
   48        0.002   0.006   0.000   0.008
   49        0.002   0.006   0.000   0.008
   50        0.002   0.006   0.000   0.008
--------------------------------------------------
tot           0.07    0.22    1.38    1.67
 

 total amount of memory used by VASP MPI-rank0    92822. kBytes
=======================================================================

   base      :      30000. kBytes
   nonlr-proj:      21462. kBytes
   fftplans  :       5544. kBytes
   grid      :      31764. kBytes
   one-center:        777. kBytes
   wavefun   :       3275. kBytes
 
  
  
 General timing and accounting informations for this job:
 ========================================================
  
                  Total CPU time used (sec):      133.115
                            User time (sec):      130.836
                          System time (sec):        2.280
                         Elapsed time (sec):      138.301
  
                   Maximum memory used (kb):      137776.
                   Average memory used (kb):           0.
  
                          Minor page faults:        37249
                          Major page faults:           53
                 Voluntary context switches:         1189
