 vasp.5.4.4.18Apr17-6-g9f103f2a35 (build May 12 2020 05:39:39) gamma-only       
  
 MD_VERSION_INFO: Compiled 2020-05-12T12:39:39-UTC in devlin.sd.materialsdesign.
 com:/home/medea2/data/build/wwolf/vasp-gpu5.4.4/13047/x86_64/src/src/build/gam 
 from svn 13047
 
 This VASP executable licensed from Materials Design, Inc.
 
 executed on                        Lin64 date 2023.03.07  07:15:30
 running on   16 total cores
 distrk:  each k-point on   16 cores,    1 groups
 distr:  one band on NCORES_PER_BAND=   1 cores,   16 groups


--------------------------------------------------------------------------------------------------------


 INCAR:
 POTCAR:    PAW_PBE Li_sv 10Sep2004               
 POTCAR:    PAW_PBE Ni 02Aug2007                  
 POTCAR:    PAW_PBE O 08Apr2002                   

 ----------------------------------------------------------------------------- 
|                                                                             |
|           W    W    AA    RRRRR   N    N  II  N    N   GGGG   !!!           |
|           W    W   A  A   R    R  NN   N  II  NN   N  G    G  !!!           |
|           W    W  A    A  R    R  N N  N  II  N N  N  G       !!!           |
|           W WW W  AAAAAA  RRRRR   N  N N  II  N  N N  G  GGG   !            |
|           WW  WW  A    A  R   R   N   NN  II  N   NN  G    G                |
|           W    W  A    A  R    R  N    N  II  N    N   GGGG   !!!           |
|                                                                             |
|      For optimal performance we recommend to set                            |
|        NCORE= 4 - approx SQRT( number of cores)                             |
|      NCORE specifies how many cores store one orbital (NPAR=cpu/NCORE).     |
|      This setting can  greatly improve the performance of VASP for DFT.     |
|      The default,   NCORE=1            might be grossly inefficient         |
|      on modern multi-core architectures or massively parallel machines.     |
|      Do your own testing !!!!                                               |
|      Unfortunately you need to use the default for GW and RPA calculations. |
|      (for HF NCORE is supported but not extensively tested yet)             |
|                                                                             |
 ----------------------------------------------------------------------------- 

 POTCAR:    PAW_PBE Li_sv 10Sep2004               
  local pseudopotential read in
  atomic valenz-charges read in
  non local Contribution for L=           0  read in
    real space projection operators read in
  non local Contribution for L=           0  read in
    real space projection operators read in
  non local Contribution for L=           1  read in
    real space projection operators read in
    PAW grid and wavefunctions read in
 
   number of l-projection  operators is LMAX  =           3
   number of lm-projection operators is LMMAX =           5
 
 POTCAR:    PAW_PBE Ni 02Aug2007                  
  local pseudopotential read in
  partial core-charges read in
  partial kinetic energy density read in
  atomic valenz-charges read in
  non local Contribution for L=           2  read in
    real space projection operators read in
  non local Contribution for L=           2  read in
    real space projection operators read in
  non local Contribution for L=           0  read in
    real space projection operators read in
  non local Contribution for L=           0  read in
    real space projection operators read in
  non local Contribution for L=           1  read in
    real space projection operators read in
  non local Contribution for L=           1  read in
    real space projection operators read in
    PAW grid and wavefunctions read in
 
   number of l-projection  operators is LMAX  =           6
   number of lm-projection operators is LMMAX =          18
 
 POTCAR:    PAW_PBE O 08Apr2002                   
  local pseudopotential read in
  partial core-charges read in
  partial kinetic energy density read in
  kinetic energy density of atom read in
  atomic valenz-charges read in
  non local Contribution for L=           0  read in
    real space projection operators read in
  non local Contribution for L=           0  read in
    real space projection operators read in
  non local Contribution for L=           1  read in
    real space projection operators read in
  non local Contribution for L=           1  read in
    real space projection operators read in
    PAW grid and wavefunctions read in
 
   number of l-projection  operators is LMAX  =           4
   number of lm-projection operators is LMMAX =           8
 
 Optimization of the real space projectors (new method)

 maximal supplied QI-value         = 22.11
 optimisation between [QCUT,QGAM] = [ 11.28, 22.77] = [ 35.61,145.23] Ry 
 Optimized for a Real-space Cutoff    1.10 Angstroem

   l    n(q)    QCUT    max X(q) W(low)/X(q) W(high)/X(q)  e(spline) 
   0      7    11.276    10.506    0.54E-04    0.58E-04    0.16E-07
   0      7    11.276     8.367    0.11E-03    0.14E-03    0.35E-07
   1      7    11.276     8.983    0.23E-03    0.43E-03    0.86E-07
 Optimization of the real space projectors (new method)

 maximal supplied QI-value         = 16.25
 optimisation between [QCUT,QGAM] = [ 11.38, 22.75] = [ 36.24,144.96] Ry 
 Optimized for a Real-space Cutoff    1.47 Angstroem

   l    n(q)    QCUT    max X(q) W(low)/X(q) W(high)/X(q)  e(spline) 
   2      9    11.376    60.317    0.17E-03    0.16E-04    0.16E-06
   2      9    11.376    55.921    0.17E-03    0.16E-04    0.17E-06
   0     10    11.376    51.690    0.45E-04    0.60E-04    0.21E-06
   0     10    11.376    30.015    0.37E-04    0.55E-04    0.19E-06
   1     10    11.376    18.849    0.83E-04    0.11E-03    0.92E-07
   1     10    11.376    14.624    0.69E-04    0.92E-04    0.82E-07
 Optimization of the real space projectors (new method)

 maximal supplied QI-value         = 24.76
 optimisation between [QCUT,QGAM] = [ 11.39, 22.77] = [ 36.31,145.25] Ry 
 Optimized for a Real-space Cutoff    1.10 Angstroem

   l    n(q)    QCUT    max X(q) W(low)/X(q) W(high)/X(q)  e(spline) 
   0      7    11.387    20.381    0.22E-03    0.48E-03    0.18E-06
   0      7    11.387    15.268    0.22E-03    0.52E-03    0.19E-06
   1      7    11.387     5.964    0.22E-03    0.73E-03    0.24E-06
   1      7    11.387     5.382    0.19E-03    0.60E-03    0.21E-06

 ----------------------------------------------------------------------------- 
|                                                                             |
|  ADVICE TO THIS USER RUNNING 'VASP/VAMP'   (HEAR YOUR MASTER'S VOICE ...):  |
|                                                                             |
|      You enforced a specific xc-type in the INCAR file,                     |
|      a different type was found on the POTCAR file                          |
|          I HOPE YOU KNOW, WHAT YOU ARE  DOING                               |
|                                                                             |
 ----------------------------------------------------------------------------- 

  PAW_PBE Li_sv 10Sep2004               :
 energy of atom  1       EATOM= -202.7858
 kinetic energy error for atom=    0.0143 (will be added to EATOM!!)
  PAW_PBE Ni 02Aug2007                  :
 energy of atom  2       EATOM=-1077.6739
 kinetic energy error for atom=    0.0030 (will be added to EATOM!!)
  PAW_PBE O 08Apr2002                   :
 energy of atom  3       EATOM= -432.3788
 kinetic energy error for atom=    0.0224 (will be added to EATOM!!)
 
 
 POSCAR: ce13185_1                               
  positions in direct lattice
  No initial velocities read in
 exchange correlation table for  LEXCH =       14
   RHO(1)=    0.500       N(1)  =     2000
   RHO(2)=  100.500       N(2)  =     4000
 


--------------------------------------------------------------------------------------------------------


 ion  position               nearest neighbor table
   1  0.241  0.250  0.500-  31 2.09  29 2.09  53 2.12  49 2.12  43 2.15  41 2.15  14 2.84  22 2.84

   2  0.241  0.750  0.500-  32 2.09  30 2.09  54 2.12  50 2.12  44 2.15  42 2.15  15 2.84  23 2.84

   3  0.759  0.750  0.500-  32 2.09  30 2.09  55 2.12  51 2.12  44 2.15  42 2.15  16 2.84  24 2.84

   4  0.759  0.250  0.500-  31 2.09  29 2.09  56 2.12  52 2.12  43 2.15  41 2.15  17 2.84  25 2.84

   5  0.500  0.251  0.250-  57 2.07  43 2.07  52 2.13  49 2.13  37 2.14  40 2.14  26 2.84
   6  0.500  0.749  0.750-  58 2.07  44 2.07  51 2.13  50 2.13  38 2.14  39 2.14  26 2.84
   7  0.241  0.250  1.000-  47 2.09  45 2.09  37 2.11  33 2.11  59 2.15  57 2.16
   8  0.241  0.750  0.000-  48 2.09  46 2.09  38 2.11  34 2.11  60 2.15  58 2.16
   9  0.759  0.750  0.000-  48 2.09  46 2.09  39 2.11  35 2.11  60 2.15  58 2.16
  10  0.759  0.250  1.000-  47 2.09  45 2.09  40 2.11  36 2.11  59 2.15  57 2.16
  11  0.500  0.250  0.750-  59 2.07  41 2.07  56 2.13  53 2.13  33 2.14  36 2.14  20 2.84
  12  0.500  0.750  0.250-  60 2.07  42 2.07  55 2.13  54 2.13  34 2.14  35 2.14  20 2.84
  13  0.000  0.000  0.000-  37 1.87  38 1.87  39 1.87  40 1.87  47 1.93  48 1.93  18 2.80  18 2.80
                            14 2.86  15 2.86  16 2.86  17 2.86
  14  0.249  0.000  0.250-  48 1.88  31 1.88  60 1.89  43 1.89  54 2.02  37 2.03  17 2.79  17 2.81
                             1 2.84  19 2.86  13 2.86  20 2.86  18 2.86
  15  0.249  1.000  0.750-  47 1.88  32 1.88  59 1.89  44 1.89  53 2.02  38 2.03  16 2.79  16 2.81
                             2 2.84  19 2.86  13 2.86  20 2.86  18 2.86
  16  0.751  1.000  0.750-  47 1.88  32 1.88  59 1.89  44 1.89  56 2.02  39 2.03  15 2.79  15 2.81
                             3 2.84  19 2.86  13 2.86  20 2.86  18 2.86
  17  0.751  0.000  0.250-  48 1.88  31 1.88  60 1.89  43 1.89  55 2.02  40 2.03  14 2.79  14 2.81
                             4 2.84  19 2.86  13 2.86  20 2.86  18 2.86
  18  0.500  0.000  0.000-  37 1.85  38 1.85  39 1.85  40 1.85  59 2.06  60 2.06  13 2.80  13 2.80
                            17 2.86  14 2.86  15 2.86  16 2.86
  19  0.000  0.000  0.500-  53 1.87  54 1.87  55 1.87  56 1.87  31 1.93  32 1.93  20 2.80  20 2.80
                            14 2.86  15 2.86  16 2.86  17 2.86
  20  0.500  0.000  0.500-  53 1.85  54 1.85  55 1.85  56 1.85  43 2.07  44 2.07  19 2.80  19 2.80
                            11 2.84  12 2.84  14 2.86  15 2.86  16 2.86  17 2.86
  21  0.000  0.500  0.500-  49 1.87  50 1.87  51 1.87  52 1.87  29 1.93  30 1.93  26 2.80  26 2.80
                            22 2.86  23 2.86  24 2.86  25 2.86
  22  0.249  0.499  0.750-  29 1.88  46 1.88  58 1.89  41 1.89  50 2.02  33 2.03  25 2.79  25 2.81
                             1 2.84  27 2.86  21 2.86  28 2.86  26 2.87
  23  0.249  0.501  0.250-  30 1.88  45 1.88  57 1.89  42 1.89  49 2.02  34 2.03  24 2.79  24 2.81
                             2 2.84  27 2.86  21 2.86  28 2.86  26 2.87
  24  0.751  0.501  0.250-  30 1.88  45 1.88  57 1.89  42 1.89  52 2.02  35 2.03  23 2.79  23 2.81
                             3 2.84  27 2.86  21 2.86  28 2.86  26 2.87
  25  0.751  0.499  0.750-  29 1.88  46 1.88  58 1.89  41 1.89  51 2.02  36 2.03  22 2.79  22 2.81
                             4 2.84  27 2.86  21 2.86  28 2.86  26 2.87
  26  0.500  0.500  0.500-  49 1.85  50 1.85  51 1.85  52 1.85  41 2.07  42 2.07  21 2.80  21 2.80
                             5 2.84   6 2.84  25 2.87  22 2.87  23 2.87  24 2.87
  27  0.000  0.500  0.000-  33 1.87  34 1.87  35 1.87  36 1.87  45 1.93  46 1.93  28 2.80  28 2.80
                            22 2.86  23 2.86  24 2.86  25 2.86
  28  0.500  0.500  0.000-  33 1.85  34 1.85  35 1.85  36 1.85  57 2.06  58 2.06  27 2.80  27 2.80
                            22 2.86  23 2.86  24 2.86  25 2.86
  29  0.000  0.398  0.631-  22 1.88  25 1.88  21 1.93   4 2.09   1 2.09
  30  0.000  0.602  0.369-  23 1.88  24 1.88  21 1.93   3 2.09   2 2.09
  31  0.000  0.102  0.369-  14 1.88  17 1.88  19 1.93   4 2.09   1 2.09
  32  0.000  0.898  0.631-  15 1.88  16 1.88  19 1.93   3 2.09   2 2.09
  33  0.253  0.395  0.890-  28 1.85  27 1.87  22 2.03   7 2.11  11 2.14
  34  0.253  0.605  0.110-  28 1.85  27 1.87  23 2.03   8 2.11  12 2.14
  35  0.747  0.605  0.110-  28 1.85  27 1.87  24 2.03   9 2.11  12 2.14
  36  0.747  0.395  0.890-  28 1.85  27 1.87  25 2.03  10 2.11  11 2.14
  37  0.253  0.105  0.110-  18 1.85  13 1.87  14 2.03   7 2.11   5 2.14
  38  0.253  0.895  0.890-  18 1.85  13 1.87  15 2.03   8 2.11   6 2.14
  39  0.747  0.895  0.890-  18 1.85  13 1.87  16 2.03   9 2.11   6 2.14
  40  0.747  0.105  0.110-  18 1.85  13 1.87  17 2.03  10 2.11   5 2.14
  41  0.500  0.389  0.639-  22 1.89  25 1.89  26 2.07  11 2.07   1 2.15   4 2.15
  42  0.500  0.611  0.361-  23 1.89  24 1.89  26 2.07  12 2.07   2 2.15   3 2.15
  43  0.500  0.111  0.361-  14 1.89  17 1.89  20 2.07   5 2.07   1 2.15   4 2.15
  44  0.500  0.889  0.639-  15 1.89  16 1.89  20 2.07   6 2.07   2 2.15   3 2.15
  45  0.000  0.398  0.131-  23 1.88  24 1.88  27 1.93  10 2.09   7 2.09
  46  0.000  0.602  0.869-  22 1.88  25 1.88  27 1.93   9 2.09   8 2.09
  47  0.000  0.102  0.868-  15 1.88  16 1.88  13 1.93  10 2.09   7 2.09
  48  0.000  0.898  0.132-  14 1.88  17 1.88  13 1.93   9 2.09   8 2.09
  49  0.253  0.395  0.390-  26 1.85  21 1.87  23 2.02   1 2.12   5 2.13
  50  0.253  0.605  0.610-  26 1.85  21 1.87  22 2.02   2 2.12   6 2.13
  51  0.747  0.605  0.610-  26 1.85  21 1.87  25 2.02   3 2.12   6 2.13
  52  0.747  0.395  0.390-  26 1.85  21 1.87  24 2.02   4 2.12   5 2.13
  53  0.253  0.105  0.610-  20 1.85  19 1.87  15 2.02   1 2.12  11 2.13
  54  0.253  0.895  0.390-  20 1.85  19 1.87  14 2.02   2 2.12  12 2.13
  55  0.747  0.895  0.390-  20 1.85  19 1.87  17 2.02   3 2.12  12 2.13
  56  0.747  0.105  0.610-  20 1.85  19 1.87  16 2.02   4 2.12  11 2.13
  57  0.500  0.390  0.140-  23 1.89  24 1.89  28 2.06   5 2.07  10 2.16   7 2.16
  58  0.500  0.610  0.860-  22 1.89  25 1.89  28 2.06   6 2.07   9 2.16   8 2.16
  59  0.500  0.110  0.861-  15 1.89  16 1.89  18 2.06  11 2.07   7 2.15  10 2.15
  60  0.500  0.890  0.139-  14 1.89  17 1.89  18 2.06  12 2.07   8 2.15   9 2.15
 
  LATTYP: Found a simple monoclinic cell.
 ALAT       =    11.3902038944
 B/A-ratio  =     0.4918935659
 C/A-ratio  =     1.6701467582
 COS(beta)  =    -0.9013217615
  
  Lattice vectors:
  
 A1 = (  -6.3605883724,   0.0000000000,  -9.4487914736)
 A2 = (   0.0000000000,  -5.6027680100,   0.0000000000)
 A3 = (   2.7393595925,   0.0000000000,  18.8250448244)


Analysis of symmetry for initial positions (statically):
=====================================================================
 Subroutine PRICEL returns:
 Original cell was already a primitive cell.
 

 Routine SETGRP: Setting up the symmetry group for a 
 simple monoclinic supercell.


 Subroutine GETGRP returns: Found  4 space group operations
 (whereof  4 operations were pure point group operations)
 out of a pool of  4 trial point group operations.


The static configuration has the point symmetry C_2h.


Analysis of symmetry for dynamics (positions and initial velocities):
=====================================================================
 Subroutine PRICEL returns:
 Original cell was already a primitive cell.
 

 Routine SETGRP: Setting up the symmetry group for a 
 simple monoclinic supercell.


 Subroutine GETGRP returns: Found  4 space group operations
 (whereof  4 operations were pure point group operations)
 out of a pool of  4 trial point group operations.


The dynamic configuration has the point symmetry C_2h.


Analysis of structural, dynamic, and magnetic symmetry:
=====================================================================
 Subroutine PRICEL returns:
 Original cell was already a primitive cell.
 

 Routine SETGRP: Setting up the symmetry group for a 
 simple monoclinic supercell.


 Subroutine GETGRP returns: Found  4 space group operations
 (whereof  4 operations were pure point group operations)
 out of a pool of  4 trial point group operations.


The magnetic configuration has the point symmetry C_2h.


 Subroutine INISYM returns: Found  4 space group operations
 (whereof  4 operations are pure point group operations),
 and found     1 'primitive' translations

 
 
 KPOINTS: Automatic mesh                          

Automatic generation of k-mesh.
Space group operators:
 irot       det(A)        alpha          n_x          n_y          n_z        tau_x        tau_y        tau_z
    1     1.000000     0.000000     1.000000     0.000000     0.000000     0.000000     0.000000     0.000000
    2    -1.000000     0.000000     1.000000     0.000000     0.000000     0.000000     0.000000     0.000000
    3     1.000000   180.000000     0.000000     1.000000     0.000000     0.000000     0.000000     0.000000
    4    -1.000000   180.000000     0.000000     1.000000     0.000000     0.000000     0.000000     0.000000
 
 Subroutine IBZKPT returns following result:
 ===========================================
 
 Found      1 irreducible k-points:
 
 Following reciprocal coordinates:
            Coordinates               Weight
  0.000000  0.000000  0.000000      1.000000
 
 Following cartesian coordinates:
            Coordinates               Weight
  0.000000  0.000000  0.000000      1.000000
 


--------------------------------------------------------------------------------------------------------




 Dimension of arrays:
   k-points           NKPTS =      1   k-points in BZ     NKDIM =      1   number of bands    NBANDS=    256
   number of dos      NEDOS =    301   number of ions     NIONS =     60
   non local maximal  LDIM  =      6   non local SUM 2l+1 LMDIM =     18
   total plane-waves  NPLWV = 268800
   max r-space proj   IRMAX =   6912   max aug-charges    IRDMAX=  16767
   dimension x,y,z NGX =    42 NGY =   80 NGZ =   80
   dimension x,y,z NGXF=    84 NGYF=  160 NGZF=  160
   support grid    NGXF=    84 NGYF=  160 NGZF=  160
   ions per type =              12  16  32
   NGX,Y,Z   is equivalent  to a cutoff of  12.46, 13.23, 13.32 a.u.
   NGXF,Y,Z  is equivalent  to a cutoff of  24.92, 26.46, 26.65 a.u.

 SYSTEM =  unknown system                          
 POSCAR =  ce13185_1                               

 Startparameter for this run:
   NWRITE =      1    write-flag & timer
   PREC   = accura    normal or accurate (medium, high low for compatibility)
   ISTART =      0    job   : 0-new  1-cont  2-samecut
   ICHARG =      2    charge: 1-file 2-atom 10-const
   ISPIN  =      2    spin polarized calculation?
   LNONCOLLINEAR =      F non collinear calculations
   LSORBIT =      F    spin-orbit coupling
   INIWAV =      1    electr: 0-lowe 1-rand  2-diag
   LASPH  =      F    aspherical Exc in radial PAW
   METAGGA=      F    non-selfconsistent MetaGGA calc.

 Electronic Relaxation 1
   ENCUT  =  500.0 eV  36.75 Ry    6.06 a.u.  10.22 18.33 18.20*2*pi/ulx,y,z
   ENINI  =  500.0     initial cutoff
   ENAUG  =  628.9 eV  augmentation charge cutoff
   NELM   =     80;   NELMIN=  2; NELMDL= -5     # of ELM steps 
   EDIFF  = 0.1E-04   stopping-criterion for ELM
   LREAL  =      T    real-space projection
   NLSPLINE    = F    spline interpolate recip. space projectors
   LCOMPAT=      F    compatible to vasp.4.4
   GGA_COMPAT  = T    GGA compatible to vasp.4.4-vasp.4.6
   LMAXPAW     = -100 max onsite density
   LMAXMIX     =    2 max onsite mixed and CHGCAR
   VOSKOWN=      1    Vosko Wilk Nusair interpolation
   ROPT   =   -0.00025  -0.00025  -0.00025
 Ionic relaxation
   EDIFFG = -.2E-01   stopping-criterion for IOM
   NSW    =     20    number of steps for IOM
   NBLOCK =      1;   KBLOCK =     20    inner block; outer block 
   IBRION =      1    ionic relax: 0-MD 1-quasi-New 2-CG
   NFREE  =      0    steps in history (QN), initial steepest desc. (CG)
   ISIF   =      3    stress and relaxation
   IWAVPR =     11    prediction:  0-non 1-charg 2-wave 3-comb
   ISYM   =      2    0-nonsym 1-usesym 2-fastsym
   LCORR  =      T    Harris-Foulkes like correction to forces

   POTIM  = 0.5000    time-step for ionic-motion
   TEIN   =    0.0    initial temperature
   TEBEG  =    0.0;   TEEND  =   0.0 temperature during run
   SMASS  =  -3.00    Nose mass-parameter (am)
   estimated Nose-frequenzy (Omega)   =  0.10E-29 period in steps =****** mass=  -0.717E-27a.u.
   SCALEE = 1.0000    scale energy and forces
   NPACO  =    256;   APACO  = 16.0  distance and # of slots for P.C.
   PSTRESS=    0.0 pullay stress

  Mass of Ions in am
   POMASS =   7.01 58.69 16.00
  Ionic Valenz
   ZVAL   =   3.00 10.00  6.00
  Atomic Wigner-Seitz radii
   RWIGS  =   1.23  1.15  0.73
  virtual crystal weights 
   VCA    =   1.00  1.00  1.00
   NELECT =     388.0000    total number of electrons
   NUPDOWN=      -1.0000    fix difference up-down

 DOS related values:
   EMIN   =  10.00;   EMAX   =-10.00  energy-range for DOS
   EFERMI =   0.00
   ISMEAR =     0;   SIGMA  =   0.05  broadening in eV -4-tet -1-fermi 0-gaus

 Electronic relaxation 2 (details)
   IALGO  =     38    algorithm
   LDIAG  =      T    sub-space diagonalisation (order eigenvalues)
   LSUBROT=      F    optimize rotation matrix (better conditioning)
   TURBO    =      0    0=normal 1=particle mesh
   IRESTART =      0    0=no restart 2=restart with 2 vectors
   NREBOOT  =      0    no. of reboots
   NMIN     =      0    reboot dimension
   EREF     =   0.00    reference energy to select bands
   IMIX   =      4    mixing-type and parameters
     AMIX     =   0.40;   BMIX     =  1.00
     AMIX_MAG =   1.60;   BMIX_MAG =  1.00
     AMIN     =   0.10
     WC   =   100.;   INIMIX=   1;  MIXPRE=   1;  MAXMIX= -45

 Intra band minimization:
   WEIMIN = 0.0010     energy-eigenvalue tresh-hold
   EBREAK =  0.98E-08  absolut break condition
   DEPER  =   0.30     relativ break condition  

   TIME   =   0.40     timestep for ELM

  volume/ion in A,a.u.               =       8.76        59.14
  Fermi-wavevector in a.u.,A,eV,Ry     =   1.479333  2.795533 29.775327  2.188425
  Thomas-Fermi vector in A             =   2.593503
 
 Write flags
   LWAVE        =      F    write WAVECAR
   LDOWNSAMPLE  =      F    k-point downsampling of WAVECAR
   LCHARG       =      T    write CHGCAR
   LVTOT        =      F    write LOCPOT, total local potential
   LVHAR        =      F    write LOCPOT, Hartree potential only
   LELF         =      F    write electronic localiz. function (ELF)
   LORBIT       =      0    0 simple, 1 ext, 2 COOP (PROOUT), +10 PAW based schemes


 Dipole corrections
   LMONO  =      F    monopole corrections only (constant potential shift)
   LDIPOL =      F    correct potential (dipole corrections)
   IDIPOL =      0    1-x, 2-y, 3-z, 4-all directions 
   EPSILON=  1.0000000 bulk dielectric constant

 Exchange correlation treatment:
   GGA     =    PS    GGA type
   LEXCH   =    14    internal setting for exchange type
   VOSKOWN=      1    Vosko Wilk Nusair interpolation
   LHFCALC =     F    Hartree Fock is set to
   LHFONE  =     F    Hartree Fock one center treatment
   AEXX    =    0.0000 exact exchange contribution

 Linear response parameters
   LEPSILON=     F    determine dielectric tensor
   LRPA    =     F    only Hartree local field effects (RPA)
   LNABLA  =     F    use nabla operator in PAW spheres
   LVEL    =     F    velocity operator in full k-point grid
   LINTERFAST=   F  fast interpolation
   KINTER  =     0    interpolate to denser k-point grid
   CSHIFT  =0.1000    complex shift for real part using Kramers Kronig
   OMEGAMAX=  -1.0    maximum frequency
   DEG_THRESHOLD= 0.2000000E-02 threshold for treating states as degnerate
   RTIME   =   -0.100 relaxation time in fs
  (WPLASMAI=    0.000 imaginary part of plasma frequency in eV, 0.658/RTIME)
   DFIELD  = 0.0000000 0.0000000 0.0000000 field for delta impulse in time
 
 Orbital magnetization related:
   ORBITALMAG=     F  switch on orbital magnetization
   LCHIMAG   =     F  perturbation theory with respect to B field
   DQ        =  0.001000  dq finite difference perturbation B field
   LLRAUG    =     F  two centre corrections for induced B field



--------------------------------------------------------------------------------------------------------


 quasi-Newton-method for relaxation of ions
 charge density and potential will be updated during run
 spin polarized calculation
 Variant of blocked Davidson
 Davidson routine will perform the subspace rotation
 perform sub-space diagonalisation
    after iterative eigenvector-optimisation
 modified Broyden-mixing scheme, WC =      100.0
 initial mixing is a Kerker type mixing with AMIX =  0.4000 and BMIX =      1.0000
 Hartree-type preconditioning will be used
 using additional bands           62
 real space projection scheme for non local part
 use partial core corrections
 calculate Harris-corrections to forces 
   (improved forces if not selfconsistent)
 use gradient corrections 
 use of overlap-Matrix (Vanderbilt PP)
 Gauss-broadening in eV      SIGMA  =   0.05


--------------------------------------------------------------------------------------------------------


  energy-cutoff  :      500.00
  volume of cell :      525.85
      direct lattice vectors                 reciprocal lattice vectors
     0.000000000  5.602768010  0.000000000     0.000000000  0.178483207  0.000000000
    -3.621228780  0.000000000  9.376253351    -0.000772877  0.000000000  0.106353913
     9.981817152  0.000000000  0.072538123     0.099901774  0.000000000  0.038583341

  length of vectors
     5.602768010 10.051239962  9.982080717     0.178483207  0.106356722  0.107093597


 
 k-points in units of 2pi/SCALE and weight: Automatic mesh                          
   0.00000000  0.00000000  0.00000000       1.000
 
 k-points in reciprocal lattice and weights: Automatic mesh                          
   0.00000000  0.00000000  0.00000000       1.000
 
 position of ions in fractional coordinates (direct lattice) 
   0.24121160  0.24994773  0.49996816
   0.24121160  0.75005227  0.50003184
   0.75878840  0.75005227  0.50003184
   0.75878840  0.24994773  0.49996816
   0.50000000  0.25050670  0.24994086
   0.50000000  0.74949330  0.75005914
   0.24072800  0.24979843  0.99997554
   0.24072800  0.75020157  0.00002446
   0.75927200  0.75020157  0.00002446
   0.75927200  0.24979843  0.99997554
   0.50000000  0.24952237  0.75002966
   0.50000000  0.75047763  0.24997034
   0.00000000  0.00000000  0.00000000
   0.24893538  0.00039772  0.25014446
   0.24893538  0.99960228  0.74985554
   0.75106462  0.99960228  0.74985554
   0.75106462  0.00039772  0.25014446
   0.50000000  0.00000000  0.00000000
   0.00000000  0.00000000  0.50000000
   0.50000000  0.00000000  0.50000000
   0.00000000  0.50000000  0.50000000
   0.24894167  0.49947194  0.74987932
   0.24894167  0.50052806  0.25012068
   0.75105833  0.50052806  0.25012068
   0.75105833  0.49947194  0.74987932
   0.50000000  0.50000000  0.50000000
   0.00000000  0.50000000  0.00000000
   0.50000000  0.50000000  0.00000000
   0.00000000  0.39758769  0.63117389
   0.00000000  0.60241231  0.36882611
   0.00000000  0.10244292  0.36885269
   0.00000000  0.89755708  0.63114731
   0.25293870  0.39496577  0.89018836
   0.25293870  0.60503423  0.10981164
   0.74706130  0.60503423  0.10981164
   0.74706130  0.39496577  0.89018836
   0.25293756  0.10502495  0.10982823
   0.25293756  0.89497505  0.89017177
   0.74706244  0.89497505  0.89017177
   0.74706244  0.10502495  0.10982823
   0.50000000  0.38898879  0.63924646
   0.50000000  0.61101121  0.36075354
   0.50000000  0.11098221  0.36077737
   0.50000000  0.88901779  0.63922263
   0.00000000  0.39838575  0.13148951
   0.00000000  0.60161425  0.86851049
   0.00000000  0.10162408  0.86848143
   0.00000000  0.89837592  0.13151857
   0.25300652  0.39547926  0.38975180
   0.25300652  0.60452074  0.61024820
   0.74699348  0.60452074  0.61024820
   0.74699348  0.39547926  0.38975180
   0.25295188  0.10454011  0.61014994
   0.25295188  0.89545989  0.38985006
   0.74704812  0.89545989  0.38985006
   0.74704812  0.10454011  0.61014994
   0.50000000  0.39012170  0.13952299
   0.50000000  0.60987830  0.86047701
   0.50000000  0.10997016  0.86050469
   0.50000000  0.89002984  0.13949531
 
 position of ions in cartesian coordinates  (Angst):
   4.08547284  1.35145264  2.37983999
   2.27511553  1.35145264  7.06895148
   2.27511553  4.25131537  7.06895148
   4.08547284  4.25131537  2.37983999
   1.58772189  2.80138400  2.36694453
   4.77286648  2.80138400  7.08184695
   9.07699573  1.34874314  2.41470971
  -2.71640736  1.34874314  7.03408176
  -2.71640736  4.25402487  7.03408176
   9.07699573  4.25402487  2.41470971
   6.58308134  2.80138400  2.39399070
  -0.22249297  2.80138400  7.05480077
   0.00000000  0.00000000  0.00000000
   2.49545603  1.39472718  0.02187413
   3.86513235  1.39472718  9.42691734
   3.86513235  4.20804083  9.42691734
   2.49545603  4.20804083  0.02187413
   0.00000000  2.80138400  0.00000000
   4.99090858  0.00000000  0.03626906
   4.99090858  2.80138400  0.03626906
   3.18029419  0.00000000  4.72439574
   5.67645609  1.39476243  4.73757029
   0.68413228  1.39476243  4.71122118
   0.68413228  4.20800558  4.71122118
   5.67645609  4.20800558  4.73757029
   3.18029419  2.80138400  4.72439574
  -1.81061439  0.00000000  4.68812668
  -1.81061439  2.80138400  4.68812668
   4.86050638  0.00000000  3.77366708
   1.50008200  0.00000000  5.67512439
   3.31085086  0.00000000  0.98728665
   3.04973751  0.00000000  8.46150482
   7.45543603  1.41715686  3.76787172
  -1.09484765  1.41715686  5.68091976
  -1.09484765  4.18561115  5.68091976
   7.45543603  4.18561115  3.76787172
   0.71596594  1.41715047  0.99270727
   5.64462243  1.41715047  8.45608420
   5.64462243  4.18561754  8.45608420
   0.71596594  4.18561754  0.99270727
   4.97222388  2.80138400  3.69362718
   1.38836449  2.80138400  5.75516429
   3.19932177  2.80138400  1.06676743
   3.16126661  2.80138400  8.38202404
  -0.13014170  0.00000000  3.74490373
   6.49073007  0.00000000  5.70388775
   8.30101879  0.00000000  1.01585113
  -1.94043042  0.00000000  8.43294034
   2.45831032  1.41753684  3.73638560
   3.90227805  1.41753684  5.71240587
   3.90227805  4.18523117  5.71240587
   2.45831032  4.18523117  3.73638560
   5.71184148  1.41723070  1.02445369
   0.64874689  1.41723070  8.42433779
   0.64874689  4.18553731  8.42433779
   5.71184148  4.18553731  1.02445369
  -0.02002695  2.80138400  3.66800063
   6.38061533  2.80138400  5.78079084
   8.19117337  2.80138400  1.09352748
  -1.83058499  2.80138400  8.35526400
 


--------------------------------------------------------------------------------------------------------


 use serial FFT for orbitals x direction half grid
 k-point  1 :   0.0000 0.0000 0.0000  plane waves:    6668

 maximum and minimum number of plane-waves per node :      6668     6668

 maximum number of plane-waves:      6668
 maximum index in each direction: 
   IXMAX=   10   IYMAX=   18   IZMAX=   18
   IXMIN=    0   IYMIN=  -18   IZMIN=  -18

 The following grids will avoid any aliasing or wrap around errors in the Hartre
 e energy
  - symmetry arguments have not been applied
  - exchange correlation energies might require even more grid points
  - we recommend to set PREC=Normal or Accurate and rely on VASP defaults
 NGX is ok and might be reduce to    42
 NGY is ok and might be reduce to    80
 NGZ is ok and might be reduce to    80

 serial   3D FFT for wavefunctions
 parallel 3D FFT for charge:
    minimum data exchange during FFTs selected (reduces bandwidth)


 total amount of memory used by VASP MPI-rank0   100462. kBytes
=======================================================================

   base      :      30000. kBytes
   nonlr-proj:      24543. kBytes
   fftplans  :       6149. kBytes
   grid      :      35266. kBytes
   one-center:        933. kBytes
   wavefun   :       3571. kBytes
 
     INWAV:  cpu time    0.0000: real time    0.0000
 Broyden mixing: mesh for mixing (old mesh)
   NGX = 21   NGY = 37   NGZ = 37
  (NGX  = 84   NGY  =160   NGZ  =160)
  gives a total of  28749 points

 initial charge density was supplied:
 charge density of overlapping atoms calculated
 number of electron     388.0000000 magnetization      40.0000000
 keeping initial charge density in first step


--------------------------------------------------------------------------------------------------------


 Maximum index for non-local projection operator         6677
 Maximum index for augmentation-charges         1584 (set IRDMAX)


--------------------------------------------------------------------------------------------------------


 First call to EWALD:  gamma=   0.220
 Maximum number of real-space cells 4x 2x 2
 Maximum number of reciprocal cells 2x 3x 3

    FEWALD:  cpu time    0.0035: real time    0.0035


--------------------------------------- Iteration      1(   1)  ---------------------------------------


    POTLOK:  cpu time    0.1831: real time    0.2058
    SETDIJ:  cpu time    0.0313: real time    0.0314
     EDDAV:  cpu time    2.3442: real time    2.3680
    --------------------------------------------
      LOOP:  cpu time    2.5590: real time    2.6055

 eigenvalue-minimisations  :  1072
 total energy-change (2. order) : 0.6758680E+04  (-0.1731270E+05)
 number of electron     388.0000000 magnetization      40.0000000
 augmentation part      388.0000000 magnetization      40.0000000

 Free energy of the ion-electron system (eV)
  ---------------------------------------------------
  alpha Z        PSCENC =      1216.84659917
  Ewald energy   TEWEN  =    -23711.93006810
  -Hartree energ DENC   =    -10466.15436226
  -exchange      EXHF   =         0.00000000
  -V(xc)+E(xc)   XCENC  =      1583.17858598
  PAW double counting   =     27420.82707004   -28719.22785117
  entropy T*S    EENTRO =        -0.00000000
  eigenvalues    EBANDS =      6009.25938910
  atomic energy  EATOM  =     33425.88044021
  Solvation  Ediel_sol  =         0.00000000
  ---------------------------------------------------
  free energy    TOTEN  =      6758.67980297 eV

  energy without entropy =     6758.67980297  energy(sigma->0) =     6758.67980297


--------------------------------------------------------------------------------------------------------




--------------------------------------- Iteration      1(   2)  ---------------------------------------


     EDDAV:  cpu time    2.2901: real time    2.2956
    --------------------------------------------
      LOOP:  cpu time    2.2901: real time    2.2955

 eigenvalue-minimisations  :  1056
 total energy-change (2. order) :-0.5461260E+04  (-0.4928891E+04)
 number of electron     388.0000000 magnetization      40.0000000
 augmentation part      388.0000000 magnetization      40.0000000

 Free energy of the ion-electron system (eV)
  ---------------------------------------------------
  alpha Z        PSCENC =      1216.84659917
  Ewald energy   TEWEN  =    -23711.93006810
  -Hartree energ DENC   =    -10466.15436226
  -exchange      EXHF   =         0.00000000
  -V(xc)+E(xc)   XCENC  =      1583.17858598
  PAW double counting   =     27420.82707004   -28719.22785117
  entropy T*S    EENTRO =        -0.03572703
  eigenvalues    EBANDS =       548.03469755
  atomic energy  EATOM  =     33425.88044021
  Solvation  Ediel_sol  =         0.00000000
  ---------------------------------------------------
  free energy    TOTEN  =      1297.41938439 eV

  energy without entropy =     1297.45511142  energy(sigma->0) =     1297.43724791


--------------------------------------------------------------------------------------------------------




--------------------------------------- Iteration      1(   3)  ---------------------------------------


     EDDAV:  cpu time    2.2840: real time    2.2894
    --------------------------------------------
      LOOP:  cpu time    2.2840: real time    2.2894

 eigenvalue-minimisations  :  1152
 total energy-change (2. order) :-0.1510850E+04  (-0.1244990E+04)
 number of electron     388.0000000 magnetization      40.0000000
 augmentation part      388.0000000 magnetization      40.0000000

 Free energy of the ion-electron system (eV)
  ---------------------------------------------------
  alpha Z        PSCENC =      1216.84659917
  Ewald energy   TEWEN  =    -23711.93006810
  -Hartree energ DENC   =    -10466.15436226
  -exchange      EXHF   =         0.00000000
  -V(xc)+E(xc)   XCENC  =      1583.17858598
  PAW double counting   =     27420.82707004   -28719.22785117
  entropy T*S    EENTRO =        -0.08939741
  eigenvalues    EBANDS =      -962.76154027
  atomic energy  EATOM  =     33425.88044021
  Solvation  Ediel_sol  =         0.00000000
  ---------------------------------------------------
  free energy    TOTEN  =      -213.43052381 eV

  energy without entropy =     -213.34112640  energy(sigma->0) =     -213.38582511


--------------------------------------------------------------------------------------------------------




--------------------------------------- Iteration      1(   4)  ---------------------------------------


     EDDAV:  cpu time    2.4588: real time    2.4647
    --------------------------------------------
      LOOP:  cpu time    2.4588: real time    2.4646

 eigenvalue-minimisations  :  1248
 total energy-change (2. order) :-0.2460475E+03  (-0.2388299E+03)
 number of electron     388.0000000 magnetization      40.0000000
 augmentation part      388.0000000 magnetization      40.0000000

 Free energy of the ion-electron system (eV)
  ---------------------------------------------------
  alpha Z        PSCENC =      1216.84659917
  Ewald energy   TEWEN  =    -23711.93006810
  -Hartree energ DENC   =    -10466.15436226
  -exchange      EXHF   =         0.00000000
  -V(xc)+E(xc)   XCENC  =      1583.17858598
  PAW double counting   =     27420.82707004   -28719.22785117
  entropy T*S    EENTRO =        -0.13363115
  eigenvalues    EBANDS =     -1208.76483650
  atomic energy  EATOM  =     33425.88044021
  Solvation  Ediel_sol  =         0.00000000
  ---------------------------------------------------
  free energy    TOTEN  =      -459.47805378 eV

  energy without entropy =     -459.34442263  energy(sigma->0) =     -459.41123820


--------------------------------------------------------------------------------------------------------




--------------------------------------- Iteration      1(   5)  ---------------------------------------


     EDDAV:  cpu time    3.4495: real time    3.4577
    CHARGE:  cpu time    0.1510: real time    0.1514
    MIXING:  cpu time    0.0038: real time    0.0089
    --------------------------------------------
      LOOP:  cpu time    3.6041: real time    3.6178

 eigenvalue-minimisations  :  1808
 total energy-change (2. order) :-0.1340877E+02  (-0.1329306E+02)
 number of electron     387.9999766 magnetization      41.8033306
 augmentation part      117.4593248 magnetization      31.3222542

 Broyden mixing:
  rms(total) = 0.11016E+02    rms(broyden)= 0.11015E+02
  rms(prec ) = 0.13432E+02
  weight for this iteration     100.00

 Free energy of the ion-electron system (eV)
  ---------------------------------------------------
  alpha Z        PSCENC =      1216.84659917
  Ewald energy   TEWEN  =    -23711.93006810
  -Hartree energ DENC   =    -10466.15436226
  -exchange      EXHF   =         0.00000000
  -V(xc)+E(xc)   XCENC  =      1583.17858598
  PAW double counting   =     27420.82707004   -28719.22785117
  entropy T*S    EENTRO =        -0.13550839
  eigenvalues    EBANDS =     -1222.17173362
  atomic energy  EATOM  =     33425.88044021
  Solvation  Ediel_sol  =         0.00000000
  ---------------------------------------------------
  free energy    TOTEN  =      -472.88682814 eV

  energy without entropy =     -472.75131975  energy(sigma->0) =     -472.81907394


--------------------------------------------------------------------------------------------------------




--------------------------------------- Iteration      1(   6)  ---------------------------------------


    POTLOK:  cpu time    0.1554: real time    0.1558
    SETDIJ:  cpu time    0.0227: real time    0.0228
     EDDAV:  cpu time    2.6067: real time    2.6129
    CHARGE:  cpu time    0.1921: real time    0.1926
    MIXING:  cpu time    0.0045: real time    0.0045
    --------------------------------------------
      LOOP:  cpu time    2.9814: real time    2.9884

 eigenvalue-minimisations  :  1488
 total energy-change (2. order) :-0.5066549E+01  (-0.9926862E+02)
 number of electron     387.9999769 magnetization      35.1614537
 augmentation part      147.5823657 magnetization      33.2767160

 Broyden mixing:
  rms(total) = 0.16658E+02    rms(broyden)= 0.16657E+02
  rms(prec ) = 0.18474E+02
  weight for this iteration     100.00

 eigenvalues of (default mixing * dielectric matrix)
  average eigenvalue GAMMA=   0.2736
  0.2736

 Free energy of the ion-electron system (eV)
  ---------------------------------------------------
  alpha Z        PSCENC =      1216.84659917
  Ewald energy   TEWEN  =    -23711.93006810
  -Hartree energ DENC   =     -9993.89186462
  -exchange      EXHF   =         0.00000000
  -V(xc)+E(xc)   XCENC  =      1596.55565751
  PAW double counting   =     30128.52508755   -31262.88604280
  entropy T*S    EENTRO =        -0.04469101
  eigenvalues    EBANDS =     -1877.00849523
  atomic energy  EATOM  =     33425.88044021
  Solvation  Ediel_sol  =         0.00000000
  ---------------------------------------------------
  free energy    TOTEN  =      -477.95337732 eV

  energy without entropy =     -477.90868631  energy(sigma->0) =     -477.93103181


--------------------------------------------------------------------------------------------------------




--------------------------------------- Iteration      1(   7)  ---------------------------------------


    POTLOK:  cpu time    0.1628: real time    0.1632
    SETDIJ:  cpu time    0.0228: real time    0.0228
     EDDAV:  cpu time    2.6045: real time    2.6107
    CHARGE:  cpu time    0.1915: real time    0.1920
    MIXING:  cpu time    0.0046: real time    0.0046
    --------------------------------------------
      LOOP:  cpu time    2.9862: real time    2.9933

 eigenvalue-minimisations  :  1392
 total energy-change (2. order) : 0.1164257E+03  (-0.2372473E+02)
 number of electron     387.9999751 magnetization      24.6752449
 augmentation part      131.5678884 magnetization      21.5147913

 Broyden mixing:
  rms(total) = 0.44439E+01    rms(broyden)= 0.44435E+01
  rms(prec ) = 0.47658E+01
  weight for this iteration     100.00

 eigenvalues of (default mixing * dielectric matrix)
  average eigenvalue GAMMA=   0.6307
  0.6307  0.6307

 Free energy of the ion-electron system (eV)
  ---------------------------------------------------
  alpha Z        PSCENC =      1216.84659917
  Ewald energy   TEWEN  =    -23711.93006810
  -Hartree energ DENC   =    -10223.93405386
  -exchange      EXHF   =         0.00000000
  -V(xc)+E(xc)   XCENC  =      1583.34898703
  PAW double counting   =     31505.63686894   -32782.41408124
  entropy T*S    EENTRO =        -0.00461163
  eigenvalues    EBANDS =     -1374.95779018
  atomic energy  EATOM  =     33425.88044021
  Solvation  Ediel_sol  =         0.00000000
  ---------------------------------------------------
  free energy    TOTEN  =      -361.52770967 eV

  energy without entropy =     -361.52309804  energy(sigma->0) =     -361.52540385


--------------------------------------------------------------------------------------------------------




--------------------------------------- Iteration      1(   8)  ---------------------------------------


    POTLOK:  cpu time    0.1758: real time    0.1762
    SETDIJ:  cpu time    0.0293: real time    0.0294
     EDDAV:  cpu time    2.7551: real time    2.7617
    CHARGE:  cpu time    0.1524: real time    0.1528
    MIXING:  cpu time    0.0037: real time    0.0037
    --------------------------------------------
      LOOP:  cpu time    3.1163: real time    3.1237

 eigenvalue-minimisations  :  1552
 total energy-change (2. order) :-0.2861132E+01  (-0.6141088E+01)
 number of electron     387.9999738 magnetization      20.5962479
 augmentation part      129.7630497 magnetization      17.4072666

 Broyden mixing:
  rms(total) = 0.30845E+01    rms(broyden)= 0.30843E+01
  rms(prec ) = 0.34887E+01
  weight for this iteration     100.00

 eigenvalues of (default mixing * dielectric matrix)
  average eigenvalue GAMMA=   0.6790
  0.4086  0.8142  0.8142

 Free energy of the ion-electron system (eV)
  ---------------------------------------------------
  alpha Z        PSCENC =      1216.84659917
  Ewald energy   TEWEN  =    -23711.93006810
  -Hartree energ DENC   =    -10159.00934337
  -exchange      EXHF   =         0.00000000
  -V(xc)+E(xc)   XCENC  =      1573.33943821
  PAW double counting   =     33082.63861977   -34394.28062074
  entropy T*S    EENTRO =        -0.03014428
  eigenvalues    EBANDS =     -1397.84376291
  atomic energy  EATOM  =     33425.88044021
  Solvation  Ediel_sol  =         0.00000000
  ---------------------------------------------------
  free energy    TOTEN  =      -364.38884203 eV

  energy without entropy =     -364.35869775  energy(sigma->0) =     -364.37376989


--------------------------------------------------------------------------------------------------------




--------------------------------------- Iteration      1(   9)  ---------------------------------------


    POTLOK:  cpu time    0.1570: real time    0.1574
    SETDIJ:  cpu time    0.0229: real time    0.0229
     EDDAV:  cpu time    2.4880: real time    2.4939
    CHARGE:  cpu time    0.1574: real time    0.1577
    MIXING:  cpu time    0.0038: real time    0.0038
    --------------------------------------------
      LOOP:  cpu time    2.8291: real time    2.8358

 eigenvalue-minimisations  :  1456
 total energy-change (2. order) :-0.2252361E+01  (-0.2932643E+01)
 number of electron     387.9999742 magnetization      13.6314604
 augmentation part      129.2688420 magnetization      10.9198135

 Broyden mixing:
  rms(total) = 0.34101E+01    rms(broyden)= 0.34098E+01
  rms(prec ) = 0.42086E+01
  weight for this iteration     100.00

 eigenvalues of (default mixing * dielectric matrix)
  average eigenvalue GAMMA=   0.6670
  1.3273  0.6747  0.4371  0.2290

 Free energy of the ion-electron system (eV)
  ---------------------------------------------------
  alpha Z        PSCENC =      1216.84659917
  Ewald energy   TEWEN  =    -23711.93006810
  -Hartree energ DENC   =    -10159.24927815
  -exchange      EXHF   =         0.00000000
  -V(xc)+E(xc)   XCENC  =      1572.06099253
  PAW double counting   =     33735.04668723   -35060.21849923
  entropy T*S    EENTRO =        -0.04703818
  eigenvalues    EBANDS =     -1385.03103853
  atomic energy  EATOM  =     33425.88044021
  Solvation  Ediel_sol  =         0.00000000
  ---------------------------------------------------
  free energy    TOTEN  =      -366.64120305 eV

  energy without entropy =     -366.59416487  energy(sigma->0) =     -366.61768396


--------------------------------------------------------------------------------------------------------




--------------------------------------- Iteration      1(  10)  ---------------------------------------


    POTLOK:  cpu time    0.1574: real time    0.1578
    SETDIJ:  cpu time    0.0230: real time    0.0230
     EDDAV:  cpu time    2.3313: real time    2.3369
    CHARGE:  cpu time    0.1494: real time    0.1498
    MIXING:  cpu time    0.0039: real time    0.0039
    --------------------------------------------
      LOOP:  cpu time    2.6651: real time    2.6714

 eigenvalue-minimisations  :  1376
 total energy-change (2. order) : 0.1134006E+01  (-0.2921987E+01)
 number of electron     387.9999736 magnetization      11.3487882
 augmentation part      129.2693855 magnetization       9.3253391

 Broyden mixing:
  rms(total) = 0.23825E+01    rms(broyden)= 0.23818E+01
  rms(prec ) = 0.31345E+01
  weight for this iteration     100.00

 eigenvalues of (default mixing * dielectric matrix)
  average eigenvalue GAMMA=   0.6394
  1.4831  0.6217  0.4672  0.4672  0.1579

 Free energy of the ion-electron system (eV)
  ---------------------------------------------------
  alpha Z        PSCENC =      1216.84659917
  Ewald energy   TEWEN  =    -23711.93006810
  -Hartree energ DENC   =    -10151.38287257
  -exchange      EXHF   =         0.00000000
  -V(xc)+E(xc)   XCENC  =      1570.71737549
  PAW double counting   =     34815.86687817   -36157.66060813
  entropy T*S    EENTRO =        -0.04277166
  eigenvalues    EBANDS =     -1373.80216952
  atomic energy  EATOM  =     33425.88044021
  Solvation  Ediel_sol  =         0.00000000
  ---------------------------------------------------
  free energy    TOTEN  =      -365.50719694 eV

  energy without entropy =     -365.46442528  energy(sigma->0) =     -365.48581111


--------------------------------------------------------------------------------------------------------




--------------------------------------- Iteration      1(  11)  ---------------------------------------


    POTLOK:  cpu time    0.1545: real time    0.1548
    SETDIJ:  cpu time    0.0225: real time    0.0226
     EDDAV:  cpu time    2.3153: real time    2.3208
    CHARGE:  cpu time    0.1550: real time    0.1553
    MIXING:  cpu time    0.0042: real time    0.0042
    --------------------------------------------
      LOOP:  cpu time    2.6515: real time    2.6578

 eigenvalue-minimisations  :  1456
 total energy-change (2. order) : 0.1032019E+01  (-0.1068415E+01)
 number of electron     387.9999736 magnetization       8.3251308
 augmentation part      129.3745469 magnetization       6.0110570

 Broyden mixing:
  rms(total) = 0.16068E+01    rms(broyden)= 0.16061E+01
  rms(prec ) = 0.21353E+01
  weight for this iteration     100.00

 eigenvalues of (default mixing * dielectric matrix)
  average eigenvalue GAMMA=   0.6881
  1.8967  0.6832  0.6832  0.4616  0.2540  0.1497

 Free energy of the ion-electron system (eV)
  ---------------------------------------------------
  alpha Z        PSCENC =      1216.84659917
  Ewald energy   TEWEN  =    -23711.93006810
  -Hartree energ DENC   =    -10156.33117269
  -exchange      EXHF   =         0.00000000
  -V(xc)+E(xc)   XCENC  =      1570.89932047
  PAW double counting   =     35129.98664132   -36477.06088794
  entropy T*S    EENTRO =        -0.05302349
  eigenvalues    EBANDS =     -1362.71302704
  atomic energy  EATOM  =     33425.88044021
  Solvation  Ediel_sol  =         0.00000000
  ---------------------------------------------------
  free energy    TOTEN  =      -364.47517810 eV

  energy without entropy =     -364.42215461  energy(sigma->0) =     -364.44866635


--------------------------------------------------------------------------------------------------------




--------------------------------------- Iteration      1(  12)  ---------------------------------------


    POTLOK:  cpu time    0.1569: real time    0.1573
    SETDIJ:  cpu time    0.0228: real time    0.0229
     EDDAV:  cpu time    2.3598: real time    2.3654
    CHARGE:  cpu time    0.1555: real time    0.1558
    MIXING:  cpu time    0.0045: real time    0.0045
    --------------------------------------------
      LOOP:  cpu time    2.6996: real time    2.7060

 eigenvalue-minimisations  :  1312
 total energy-change (2. order) : 0.4719851E+00  (-0.7738833E+00)
 number of electron     387.9999739 magnetization       8.2299889
 augmentation part      129.0809648 magnetization       5.5585101

 Broyden mixing:
  rms(total) = 0.12275E+01    rms(broyden)= 0.12270E+01
  rms(prec ) = 0.16695E+01
  weight for this iteration     100.00

 eigenvalues of (default mixing * dielectric matrix)
  average eigenvalue GAMMA=   0.6551
  1.9547  0.7318  0.7318  0.4314  0.4314  0.1768  0.1278

 Free energy of the ion-electron system (eV)
  ---------------------------------------------------
  alpha Z        PSCENC =      1216.84659917
  Ewald energy   TEWEN  =    -23711.93006810
  -Hartree energ DENC   =    -10169.01019092
  -exchange      EXHF   =         0.00000000
  -V(xc)+E(xc)   XCENC  =      1571.36620750
  PAW double counting   =     35570.72245891   -36925.72253736
  entropy T*S    EENTRO =        -0.07268427
  eigenvalues    EBANDS =     -1342.08341818
  atomic energy  EATOM  =     33425.88044021
  Solvation  Ediel_sol  =         0.00000000
  ---------------------------------------------------
  free energy    TOTEN  =      -364.00319304 eV

  energy without entropy =     -363.93050877  energy(sigma->0) =     -363.96685090


--------------------------------------------------------------------------------------------------------




--------------------------------------- Iteration      1(  13)  ---------------------------------------


    POTLOK:  cpu time    0.1664: real time    0.1668
    SETDIJ:  cpu time    0.0293: real time    0.0294
     EDDAV:  cpu time    2.4329: real time    2.4387
    CHARGE:  cpu time    0.1546: real time    0.1550
    MIXING:  cpu time    0.0047: real time    0.0047
    --------------------------------------------
      LOOP:  cpu time    2.7879: real time    2.7945

 eigenvalue-minimisations  :  1408
 total energy-change (2. order) :-0.3283028E+00  (-0.8699961E+00)
 number of electron     387.9999739 magnetization       8.3474993
 augmentation part      128.8557764 magnetization       5.5418331

 Broyden mixing:
  rms(total) = 0.13642E+01    rms(broyden)= 0.13638E+01
  rms(prec ) = 0.17432E+01
  weight for this iteration     100.00

 eigenvalues of (default mixing * dielectric matrix)
  average eigenvalue GAMMA=   0.5934
  1.9528  0.7493  0.7493  0.4360  0.4360  0.1823  0.1378  0.1036

 Free energy of the ion-electron system (eV)
  ---------------------------------------------------
  alpha Z        PSCENC =      1216.84659917
  Ewald energy   TEWEN  =    -23711.93006810
  -Hartree energ DENC   =    -10173.62296530
  -exchange      EXHF   =         0.00000000
  -V(xc)+E(xc)   XCENC  =      1571.56541038
  PAW double counting   =     35624.57614588   -36980.88969420
  entropy T*S    EENTRO =        -0.05555160
  eigenvalues    EBANDS =     -1336.70181225
  atomic energy  EATOM  =     33425.88044021
  Solvation  Ediel_sol  =         0.00000000
  ---------------------------------------------------
  free energy    TOTEN  =      -364.33149581 eV

  energy without entropy =     -364.27594422  energy(sigma->0) =     -364.30372002


--------------------------------------------------------------------------------------------------------




--------------------------------------- Iteration      1(  14)  ---------------------------------------


    POTLOK:  cpu time    0.1727: real time    0.1731
    SETDIJ:  cpu time    0.0227: real time    0.0228
     EDDAV:  cpu time    2.3278: real time    2.3333
    CHARGE:  cpu time    0.1541: real time    0.1545
    MIXING:  cpu time    0.0048: real time    0.0048
    --------------------------------------------
      LOOP:  cpu time    2.6821: real time    2.6885

 eigenvalue-minimisations  :  1344
 total energy-change (2. order) : 0.2932999E+00  (-0.3407463E+00)
 number of electron     387.9999739 magnetization       8.6916186
 augmentation part      128.8184955 magnetization       5.3544992

 Broyden mixing:
  rms(total) = 0.84202E+00    rms(broyden)= 0.84160E+00
  rms(prec ) = 0.95861E+00
  weight for this iteration     100.00

 eigenvalues of (default mixing * dielectric matrix)
  average eigenvalue GAMMA=   0.5513
  1.9359  0.7368  0.7368  0.4087  0.4087  0.3158  0.1820  0.1380  0.0986

 Free energy of the ion-electron system (eV)
  ---------------------------------------------------
  alpha Z        PSCENC =      1216.84659917
  Ewald energy   TEWEN  =    -23711.93006810
  -Hartree energ DENC   =    -10175.35682477
  -exchange      EXHF   =         0.00000000
  -V(xc)+E(xc)   XCENC  =      1571.69096951
  PAW double counting   =     35643.05857530   -36999.67653330
  entropy T*S    EENTRO =        -0.03894979
  eigenvalues    EBANDS =     -1334.51240411
  atomic energy  EATOM  =     33425.88044021
  Solvation  Ediel_sol  =         0.00000000
  ---------------------------------------------------
  free energy    TOTEN  =      -364.03819588 eV

  energy without entropy =     -363.99924609  energy(sigma->0) =     -364.01872099


--------------------------------------------------------------------------------------------------------




--------------------------------------- Iteration      1(  15)  ---------------------------------------


    POTLOK:  cpu time    0.1572: real time    0.1576
    SETDIJ:  cpu time    0.0227: real time    0.0228
     EDDAV:  cpu time    2.4675: real time    2.4734
    CHARGE:  cpu time    0.1712: real time    0.1716
    MIXING:  cpu time    0.0051: real time    0.0051
    --------------------------------------------
      LOOP:  cpu time    2.8238: real time    2.8305

 eigenvalue-minimisations  :  1376
 total energy-change (2. order) :-0.4110679E-01  (-0.1072183E+00)
 number of electron     387.9999739 magnetization       8.9147228
 augmentation part      128.8023926 magnetization       5.6215691

 Broyden mixing:
  rms(total) = 0.73304E+00    rms(broyden)= 0.73292E+00
  rms(prec ) = 0.82653E+00
  weight for this iteration     100.00

 eigenvalues of (default mixing * dielectric matrix)
  average eigenvalue GAMMA=   0.5204
  1.9576  0.7004  0.7004  0.3916  0.3916  0.3325  0.3325  0.1770  0.1344  0.0861

 Free energy of the ion-electron system (eV)
  ---------------------------------------------------
  alpha Z        PSCENC =      1216.84659917
  Ewald energy   TEWEN  =    -23711.93006810
  -Hartree energ DENC   =    -10175.49634223
  -exchange      EXHF   =         0.00000000
  -V(xc)+E(xc)   XCENC  =      1571.76231000
  PAW double counting   =     35648.86369037   -37005.18737497
  entropy T*S    EENTRO =        -0.03184295
  eigenvalues    EBANDS =     -1334.78671417
  atomic energy  EATOM  =     33425.88044021
  Solvation  Ediel_sol  =         0.00000000
  ---------------------------------------------------
  free energy    TOTEN  =      -364.07930267 eV

  energy without entropy =     -364.04745971  energy(sigma->0) =     -364.06338119


--------------------------------------------------------------------------------------------------------




--------------------------------------- Iteration      1(  16)  ---------------------------------------


    POTLOK:  cpu time    0.1572: real time    0.1576
    SETDIJ:  cpu time    0.0228: real time    0.0228
     EDDAV:  cpu time    2.6132: real time    2.6194
    CHARGE:  cpu time    0.1877: real time    0.1881
    MIXING:  cpu time    0.0062: real time    0.0063
    --------------------------------------------
      LOOP:  cpu time    2.9872: real time    2.9943

 eigenvalue-minimisations  :  1360
 total energy-change (2. order) :-0.3587214E-01  (-0.6159829E-01)
 number of electron     387.9999739 magnetization       9.3209570
 augmentation part      128.8146272 magnetization       6.0781873

 Broyden mixing:
  rms(total) = 0.57218E+00    rms(broyden)= 0.57210E+00
  rms(prec ) = 0.64137E+00
  weight for this iteration     100.00

 eigenvalues of (default mixing * dielectric matrix)
  average eigenvalue GAMMA=   0.5764
  2.0322  0.8029  0.8029  0.6515  0.6515  0.4230  0.4230  0.1836  0.1535  0.1329
  0.0836

 Free energy of the ion-electron system (eV)
  ---------------------------------------------------
  alpha Z        PSCENC =      1216.84659917
  Ewald energy   TEWEN  =    -23711.93006810
  -Hartree energ DENC   =    -10175.25248131
  -exchange      EXHF   =         0.00000000
  -V(xc)+E(xc)   XCENC  =      1571.82182365
  PAW double counting   =     35677.35861664   -37033.67156959
  entropy T*S    EENTRO =        -0.03598901
  eigenvalues    EBANDS =     -1335.13254646
  atomic energy  EATOM  =     33425.88044021
  Solvation  Ediel_sol  =         0.00000000
  ---------------------------------------------------
  free energy    TOTEN  =      -364.11517480 eV

  energy without entropy =     -364.07918579  energy(sigma->0) =     -364.09718030


--------------------------------------------------------------------------------------------------------




--------------------------------------- Iteration      1(  17)  ---------------------------------------


    POTLOK:  cpu time    0.1717: real time    0.1721
    SETDIJ:  cpu time    0.0290: real time    0.0291
     EDDAV:  cpu time    2.7517: real time    2.7582
    CHARGE:  cpu time    0.1926: real time    0.1931
    MIXING:  cpu time    0.0065: real time    0.0065
    --------------------------------------------
      LOOP:  cpu time    3.1515: real time    3.1590

 eigenvalue-minimisations  :  1408
 total energy-change (2. order) :-0.1141410E+00  (-0.3892580E-01)
 number of electron     387.9999740 magnetization       9.8900394
 augmentation part      128.8905650 magnetization       6.6734664

 Broyden mixing:
  rms(total) = 0.52351E+00    rms(broyden)= 0.52344E+00
  rms(prec ) = 0.62534E+00
  weight for this iteration     100.00

 eigenvalues of (default mixing * dielectric matrix)
  average eigenvalue GAMMA=   0.6061
  2.0983  1.0636  1.0636  0.6657  0.6657  0.4438  0.4438  0.2715  0.1905  0.1522
  0.1315  0.0835

 Free energy of the ion-electron system (eV)
  ---------------------------------------------------
  alpha Z        PSCENC =      1216.84659917
  Ewald energy   TEWEN  =    -23711.93006810
  -Hartree energ DENC   =    -10174.96219559
  -exchange      EXHF   =         0.00000000
  -V(xc)+E(xc)   XCENC  =      1572.00509211
  PAW double counting   =     35772.53575137   -37128.87988087
  entropy T*S    EENTRO =        -0.03447447
  eigenvalues    EBANDS =     -1335.69057962
  atomic energy  EATOM  =     33425.88044021
  Solvation  Ediel_sol  =         0.00000000
  ---------------------------------------------------
  free energy    TOTEN  =      -364.22931580 eV

  energy without entropy =     -364.19484133  energy(sigma->0) =     -364.21207856


--------------------------------------------------------------------------------------------------------




--------------------------------------- Iteration      1(  18)  ---------------------------------------


    POTLOK:  cpu time    0.1745: real time    0.1749
    SETDIJ:  cpu time    0.0294: real time    0.0294
     EDDAV:  cpu time    2.5860: real time    2.5921
    CHARGE:  cpu time    0.1519: real time    0.1523
    MIXING:  cpu time    0.0057: real time    0.0057
    --------------------------------------------
      LOOP:  cpu time    2.9475: real time    2.9545

 eigenvalue-minimisations  :  1360
 total energy-change (2. order) :-0.2318464E-01  (-0.7803025E-01)
 number of electron     387.9999740 magnetization      10.4317917
 augmentation part      128.9406872 magnetization       6.9898076

 Broyden mixing:
  rms(total) = 0.39803E+00    rms(broyden)= 0.39783E+00
  rms(prec ) = 0.46297E+00
  weight for this iteration     100.00

 eigenvalues of (default mixing * dielectric matrix)
  average eigenvalue GAMMA=   0.6096
  2.0380  1.2222  1.2222  0.6787  0.6787  0.4688  0.4688  0.4343  0.1884  0.1545
  0.1545  0.1329  0.0834

 Free energy of the ion-electron system (eV)
  ---------------------------------------------------
  alpha Z        PSCENC =      1216.84659917
  Ewald energy   TEWEN  =    -23711.93006810
  -Hartree energ DENC   =    -10175.72340374
  -exchange      EXHF   =         0.00000000
  -V(xc)+E(xc)   XCENC  =      1572.30361321
  PAW double counting   =     35877.95940999   -37234.34009202
  entropy T*S    EENTRO =        -0.03616014
  eigenvalues    EBANDS =     -1335.21283903
  atomic energy  EATOM  =     33425.88044021
  Solvation  Ediel_sol  =         0.00000000
  ---------------------------------------------------
  free energy    TOTEN  =      -364.25250044 eV

  energy without entropy =     -364.21634030  energy(sigma->0) =     -364.23442037


--------------------------------------------------------------------------------------------------------




--------------------------------------- Iteration      1(  19)  ---------------------------------------


    POTLOK:  cpu time    0.1676: real time    0.1680
    SETDIJ:  cpu time    0.0313: real time    0.0314
     EDDAV:  cpu time    2.6561: real time    2.6624
    CHARGE:  cpu time    0.1511: real time    0.1515
    MIXING:  cpu time    0.0059: real time    0.0059
    --------------------------------------------
      LOOP:  cpu time    3.0121: real time    3.0193

 eigenvalue-minimisations  :  1424
 total energy-change (2. order) :-0.3366755E-01  (-0.2117283E-01)
 number of electron     387.9999741 magnetization      10.6040603
 augmentation part      128.9485883 magnetization       6.9915866

 Broyden mixing:
  rms(total) = 0.38838E+00    rms(broyden)= 0.38830E+00
  rms(prec ) = 0.44119E+00
  weight for this iteration     100.00

 eigenvalues of (default mixing * dielectric matrix)
  average eigenvalue GAMMA=   0.5698
  2.0284  1.2305  1.2305  0.6752  0.6752  0.4634  0.4634  0.4311  0.1885  0.1469
  0.1428  0.1368  0.0825  0.0825

 Free energy of the ion-electron system (eV)
  ---------------------------------------------------
  alpha Z        PSCENC =      1216.84659917
  Ewald energy   TEWEN  =    -23711.93006810
  -Hartree energ DENC   =    -10176.63172477
  -exchange      EXHF   =         0.00000000
  -V(xc)+E(xc)   XCENC  =      1572.49530365
  PAW double counting   =     35915.73106874   -37271.99196972
  entropy T*S    EENTRO =        -0.01816134
  eigenvalues    EBANDS =     -1334.66765582
  atomic energy  EATOM  =     33425.88044021
  Solvation  Ediel_sol  =         0.00000000
  ---------------------------------------------------
  free energy    TOTEN  =      -364.28616799 eV

  energy without entropy =     -364.26800665  energy(sigma->0) =     -364.27708732


--------------------------------------------------------------------------------------------------------




--------------------------------------- Iteration      1(  20)  ---------------------------------------


    POTLOK:  cpu time    0.1568: real time    0.1572
    SETDIJ:  cpu time    0.0232: real time    0.0233
     EDDAV:  cpu time    2.7878: real time    2.7944
    CHARGE:  cpu time    0.1674: real time    0.1678
    MIXING:  cpu time    0.0062: real time    0.0062
    --------------------------------------------
      LOOP:  cpu time    3.1413: real time    3.1488

 eigenvalue-minimisations  :  1424
 total energy-change (2. order) :-0.1955773E-02  (-0.5275582E-02)
 number of electron     387.9999741 magnetization      10.6253277
 augmentation part      128.9432179 magnetization       6.9989354

 Broyden mixing:
  rms(total) = 0.32795E+00    rms(broyden)= 0.32794E+00
  rms(prec ) = 0.35477E+00
  weight for this iteration     100.00

 eigenvalues of (default mixing * dielectric matrix)
  average eigenvalue GAMMA=   0.5537
  2.0268  1.2424  1.2424  0.6705  0.6705  0.4397  0.4397  0.4233  0.2191  0.2191
  0.1874  0.1543  0.1543  0.1326  0.0835

 Free energy of the ion-electron system (eV)
  ---------------------------------------------------
  alpha Z        PSCENC =      1216.84659917
  Ewald energy   TEWEN  =    -23711.93006810
  -Hartree energ DENC   =    -10176.79496944
  -exchange      EXHF   =         0.00000000
  -V(xc)+E(xc)   XCENC  =      1572.53723163
  PAW double counting   =     35919.41805504   -37275.61291927
  entropy T*S    EENTRO =        -0.01118575
  eigenvalues    EBANDS =     -1334.62130726
  atomic energy  EATOM  =     33425.88044021
  Solvation  Ediel_sol  =         0.00000000
  ---------------------------------------------------
  free energy    TOTEN  =      -364.28812376 eV

  energy without entropy =     -364.27693801  energy(sigma->0) =     -364.28253088


--------------------------------------------------------------------------------------------------------




--------------------------------------- Iteration      1(  21)  ---------------------------------------


    POTLOK:  cpu time    0.1555: real time    0.1558
    SETDIJ:  cpu time    0.0227: real time    0.0227
     EDDAV:  cpu time    2.0347: real time    2.0396
    CHARGE:  cpu time    0.1903: real time    0.1907
    MIXING:  cpu time    0.0073: real time    0.0073
    --------------------------------------------
      LOOP:  cpu time    2.4105: real time    2.4162

 eigenvalue-minimisations  :  1168
 total energy-change (2. order) :-0.1542497E-02  (-0.6008177E-03)
 number of electron     387.9999741 magnetization      10.7735844
 augmentation part      128.9441063 magnetization       7.1563720

 Broyden mixing:
  rms(total) = 0.32882E+00    rms(broyden)= 0.32882E+00
  rms(prec ) = 0.35616E+00
  weight for this iteration     100.00

 eigenvalues of (default mixing * dielectric matrix)
  average eigenvalue GAMMA=   0.5740
  2.0241  1.2553  1.2553  0.6745  0.6745  0.5379  0.5379  0.4576  0.4576  0.4306
  0.0835  0.1884  0.1322  0.1585  0.1585  0.1580

 Free energy of the ion-electron system (eV)
  ---------------------------------------------------
  alpha Z        PSCENC =      1216.84659917
  Ewald energy   TEWEN  =    -23711.93006810
  -Hartree energ DENC   =    -10176.78361383
  -exchange      EXHF   =         0.00000000
  -V(xc)+E(xc)   XCENC  =      1572.53983094
  PAW double counting   =     35920.43940296   -37276.63881136
  entropy T*S    EENTRO =        -0.01042970
  eigenvalues    EBANDS =     -1334.63301654
  atomic energy  EATOM  =     33425.88044021
  Solvation  Ediel_sol  =         0.00000000
  ---------------------------------------------------
  free energy    TOTEN  =      -364.28966626 eV

  energy without entropy =     -364.27923656  energy(sigma->0) =     -364.28445141


--------------------------------------------------------------------------------------------------------




--------------------------------------- Iteration      1(  22)  ---------------------------------------


    POTLOK:  cpu time    0.1738: real time    0.1743
    SETDIJ:  cpu time    0.0295: real time    0.0295
     EDDAV:  cpu time    2.5324: real time    2.5384
    CHARGE:  cpu time    0.1635: real time    0.1639
    MIXING:  cpu time    0.0074: real time    0.0074
    --------------------------------------------
      LOOP:  cpu time    2.9065: real time    2.9134

 eigenvalue-minimisations  :  1360
 total energy-change (2. order) :-0.1141929E-01  (-0.6306624E-03)
 number of electron     387.9999741 magnetization      11.3721009
 augmentation part      128.9377429 magnetization       7.7671663

 Broyden mixing:
  rms(total) = 0.28820E+00    rms(broyden)= 0.28820E+00
  rms(prec ) = 0.31759E+00
  weight for this iteration     100.00

 eigenvalues of (default mixing * dielectric matrix)
  average eigenvalue GAMMA=   0.6456
  2.2338  1.3431  1.3431  0.9954  0.9954  0.7119  0.7119  0.5179  0.5179  0.4455
  0.2730  0.0835  0.1898  0.1734  0.1323  0.1540  0.1540

 Free energy of the ion-electron system (eV)
  ---------------------------------------------------
  alpha Z        PSCENC =      1216.84659917
  Ewald energy   TEWEN  =    -23711.93006810
  -Hartree energ DENC   =    -10176.64209548
  -exchange      EXHF   =         0.00000000
  -V(xc)+E(xc)   XCENC  =      1572.56341843
  PAW double counting   =     35933.55903195   -37289.88815277
  entropy T*S    EENTRO =        -0.00804497
  eigenvalues    EBANDS =     -1334.68221400
  atomic energy  EATOM  =     33425.88044021
  Solvation  Ediel_sol  =         0.00000000
  ---------------------------------------------------
  free energy    TOTEN  =      -364.30108555 eV

  energy without entropy =     -364.29304058  energy(sigma->0) =     -364.29706307


--------------------------------------------------------------------------------------------------------




--------------------------------------- Iteration      1(  23)  ---------------------------------------


    POTLOK:  cpu time    0.1710: real time    0.1714
    SETDIJ:  cpu time    0.0292: real time    0.0293
     EDDAV:  cpu time    2.8141: real time    2.8208
    CHARGE:  cpu time    0.1528: real time    0.1531
    MIXING:  cpu time    0.0068: real time    0.0068
    --------------------------------------------
      LOOP:  cpu time    3.1739: real time    3.1814

 eigenvalue-minimisations  :  1408
 total energy-change (2. order) :-0.1574812E-01  (-0.4786528E-02)
 number of electron     387.9999741 magnetization      11.6316432
 augmentation part      128.9428839 magnetization       8.1089338

 Broyden mixing:
  rms(total) = 0.16563E+00    rms(broyden)= 0.16561E+00
  rms(prec ) = 0.19193E+00
  weight for this iteration     100.00

 eigenvalues of (default mixing * dielectric matrix)
  average eigenvalue GAMMA=   0.6555
  2.3685  1.4481  1.4481  0.9742  0.9742  0.7288  0.7288  0.5548  0.5548  0.4422
  0.4422  0.2486  0.0835  0.1883  0.1323  0.1730  0.1538  0.1538

 Free energy of the ion-electron system (eV)
  ---------------------------------------------------
  alpha Z        PSCENC =      1216.84659917
  Ewald energy   TEWEN  =    -23711.93006810
  -Hartree energ DENC   =    -10176.51604403
  -exchange      EXHF   =         0.00000000
  -V(xc)+E(xc)   XCENC  =      1572.70985611
  PAW double counting   =     36017.00988960   -37374.08800908
  entropy T*S    EENTRO =        -0.00383394
  eigenvalues    EBANDS =     -1334.22566361
  atomic energy  EATOM  =     33425.88044021
  Solvation  Ediel_sol  =         0.00000000
  ---------------------------------------------------
  free energy    TOTEN  =      -364.31683367 eV

  energy without entropy =     -364.31299973  energy(sigma->0) =     -364.31491670


--------------------------------------------------------------------------------------------------------




--------------------------------------- Iteration      1(  24)  ---------------------------------------


    POTLOK:  cpu time    0.1579: real time    0.1583
    SETDIJ:  cpu time    0.0227: real time    0.0228
     EDDAV:  cpu time    2.9174: real time    2.9244
    CHARGE:  cpu time    0.1908: real time    0.1912
    MIXING:  cpu time    0.0078: real time    0.0078
    --------------------------------------------
      LOOP:  cpu time    3.2966: real time    3.3044

 eigenvalue-minimisations  :  1440
 total energy-change (2. order) :-0.2677884E-02  (-0.3087305E-02)
 number of electron     387.9999741 magnetization      11.7535450
 augmentation part      128.9735251 magnetization       8.2382559

 Broyden mixing:
  rms(total) = 0.14381E+00    rms(broyden)= 0.14380E+00
  rms(prec ) = 0.17986E+00
  weight for this iteration     100.00

 eigenvalues of (default mixing * dielectric matrix)
  average eigenvalue GAMMA=   0.6512
  2.3261  1.5047  1.5047  0.9832  0.9832  0.7381  0.7381  0.5689  0.5689  0.4387
  0.4470  0.4470  0.2434  0.0835  0.1875  0.1323  0.1720  0.1531  0.1531

 Free energy of the ion-electron system (eV)
  ---------------------------------------------------
  alpha Z        PSCENC =      1216.84659917
  Ewald energy   TEWEN  =    -23711.93006810
  -Hartree energ DENC   =    -10176.94838561
  -exchange      EXHF   =         0.00000000
  -V(xc)+E(xc)   XCENC  =      1572.76820655
  PAW double counting   =     36039.31965475   -37396.48473953
  entropy T*S    EENTRO =        -0.00335444
  eigenvalues    EBANDS =     -1333.76786456
  atomic energy  EATOM  =     33425.88044021
  Solvation  Ediel_sol  =         0.00000000
  ---------------------------------------------------
  free energy    TOTEN  =      -364.31951155 eV

  energy without entropy =     -364.31615711  energy(sigma->0) =     -364.31783433


--------------------------------------------------------------------------------------------------------




--------------------------------------- Iteration      1(  25)  ---------------------------------------


    POTLOK:  cpu time    0.1734: real time    0.1738
    SETDIJ:  cpu time    0.0294: real time    0.0295
     EDDAV:  cpu time    2.9056: real time    2.9125
    CHARGE:  cpu time    0.1900: real time    0.1904
    MIXING:  cpu time    0.0084: real time    0.0085
    --------------------------------------------
      LOOP:  cpu time    3.3068: real time    3.3147

 eigenvalue-minimisations  :  1440
 total energy-change (2. order) :-0.3138928E-03  (-0.2203479E-02)
 number of electron     387.9999741 magnetization      11.9195657
 augmentation part      128.9749978 magnetization       8.4007616

 Broyden mixing:
  rms(total) = 0.12439E+00    rms(broyden)= 0.12438E+00
  rms(prec ) = 0.15623E+00
  weight for this iteration     100.00

 eigenvalues of (default mixing * dielectric matrix)
  average eigenvalue GAMMA=   0.6501
  2.2219  1.5079  1.5079  1.0144  1.0144  0.7864  0.7864  0.6522  0.6522  0.5206
  0.5206  0.4701  0.2517  0.0835  0.2117  0.1879  0.1323  0.1725  0.1534  0.1534

 Free energy of the ion-electron system (eV)
  ---------------------------------------------------
  alpha Z        PSCENC =      1216.84659917
  Ewald energy   TEWEN  =    -23711.93006810
  -Hartree energ DENC   =    -10177.64465377
  -exchange      EXHF   =         0.00000000
  -V(xc)+E(xc)   XCENC  =      1572.80880378
  PAW double counting   =     36038.88036625   -37395.99435014
  entropy T*S    EENTRO =        -0.00322031
  eigenvalues    EBANDS =     -1333.16374254
  atomic energy  EATOM  =     33425.88044021
  Solvation  Ediel_sol  =         0.00000000
  ---------------------------------------------------
  free energy    TOTEN  =      -364.31982545 eV

  energy without entropy =     -364.31660514  energy(sigma->0) =     -364.31821529


--------------------------------------------------------------------------------------------------------




--------------------------------------- Iteration      1(  26)  ---------------------------------------


    POTLOK:  cpu time    0.1747: real time    0.1751
    SETDIJ:  cpu time    0.0312: real time    0.0312
     EDDAV:  cpu time    2.3550: real time    2.3606
    CHARGE:  cpu time    0.1523: real time    0.1527
    MIXING:  cpu time    0.0076: real time    0.0076
    --------------------------------------------
      LOOP:  cpu time    2.7208: real time    2.7273

 eigenvalue-minimisations  :  1424
 total energy-change (2. order) : 0.4139636E-02  (-0.7978674E-03)
 number of electron     387.9999741 magnetization      11.9643031
 augmentation part      128.9746270 magnetization       8.4421793

 Broyden mixing:
  rms(total) = 0.81417E-01    rms(broyden)= 0.81412E-01
  rms(prec ) = 0.10156E+00
  weight for this iteration     100.00

 eigenvalues of (default mixing * dielectric matrix)
  average eigenvalue GAMMA=   0.6505
  2.1690  1.4643  1.4643  1.0334  1.0334  0.8063  0.8063  0.7618  0.7618  0.5399
  0.5399  0.4713  0.4713  0.2505  0.0835  0.2051  0.1877  0.1323  0.1723  0.1533
  0.1533

 Free energy of the ion-electron system (eV)
  ---------------------------------------------------
  alpha Z        PSCENC =      1216.84659917
  Ewald energy   TEWEN  =    -23711.93006810
  -Hartree energ DENC   =    -10178.67631033
  -exchange      EXHF   =         0.00000000
  -V(xc)+E(xc)   XCENC  =      1572.86922081
  PAW double counting   =     36036.68331320   -37393.68250776
  entropy T*S    EENTRO =        -0.00322867
  eigenvalues    EBANDS =     -1332.30314433
  atomic energy  EATOM  =     33425.88044021
  Solvation  Ediel_sol  =         0.00000000
  ---------------------------------------------------
  free energy    TOTEN  =      -364.31568581 eV

  energy without entropy =     -364.31245714  energy(sigma->0) =     -364.31407148


--------------------------------------------------------------------------------------------------------




--------------------------------------- Iteration      1(  27)  ---------------------------------------


    POTLOK:  cpu time    0.1567: real time    0.1571
    SETDIJ:  cpu time    0.0228: real time    0.0228
[...]
   -.536E-01 -.617E+01 -.475E+00   0.520E-01 0.634E+01 0.488E+00   -.222E-02 -.189E+00 0.103E-01   0.289E-02 0.162E-02 -.146E-01
   -.384E+00 0.208E-12 -.563E+00   0.384E+00 0.177E-13 0.577E+00   0.856E-02 0.000E+00 0.135E-01   -.105E-01 -.811E-14 -.208E-01
   0.384E+00 0.197E-12 0.563E+00   -.384E+00 0.155E-13 -.577E+00   -.856E-02 0.000E+00 -.135E-01   0.105E-01 -.162E-14 0.208E-01
   -.669E-13 -.373E-13 0.438E-13   -.995E-13 -.737E-13 -.107E-12   0.000E+00 0.000E+00 -.496E-23   -.788E-13 0.116E-13 0.621E-14
   0.643E+00 0.301E+02 -.102E+01   -.660E+00 -.304E+02 0.101E+01   -.146E-01 0.239E+00 0.215E-02   0.309E-01 0.292E-01 0.110E-01
   -.643E+00 0.301E+02 0.102E+01   0.660E+00 -.304E+02 -.101E+01   0.146E-01 0.239E+00 -.215E-02   -.309E-01 0.292E-01 -.110E-01
   -.643E+00 -.301E+02 0.102E+01   0.660E+00 0.304E+02 -.101E+01   0.146E-01 -.239E+00 -.215E-02   -.309E-01 -.292E-01 -.110E-01
   0.643E+00 -.301E+02 -.102E+01   -.660E+00 0.304E+02 0.101E+01   -.146E-01 -.239E+00 0.215E-02   0.309E-01 -.292E-01 0.110E-01
   -.153E-10 0.100E-11 -.114E-11   -.284E-13 0.149E-12 -.568E-13   -.529E-22 0.000E+00 -.471E-22   -.633E-13 -.834E-14 0.200E-13
   -.203E-12 -.331E-13 0.464E-13   -.213E-13 0.227E-12 -.114E-12   0.000E+00 0.000E+00 0.414E-23   -.126E-12 0.144E-13 0.200E-12
   -.446E-12 0.996E-12 -.170E-11   0.284E-13 -.284E-13 0.604E-13   0.106E-21 0.000E+00 -.455E-22   -.153E-12 -.104E-13 0.200E-12
   -.795E-13 -.229E-13 -.702E-13   0.199E-12 0.838E-13 -.222E-15   0.000E+00 0.000E+00 0.827E-24   -.739E-13 0.534E-14 0.353E-14
   -.269E+00 0.303E+02 0.973E+00   0.281E+00 -.306E+02 -.955E+00   0.128E-01 0.241E+00 0.247E-02   -.289E-01 -.179E-01 -.837E-02
   0.269E+00 0.303E+02 -.973E+00   -.281E+00 -.306E+02 0.955E+00   -.128E-01 0.241E+00 -.247E-02   0.289E-01 -.179E-01 0.837E-02
   0.269E+00 -.303E+02 -.973E+00   -.281E+00 0.306E+02 0.955E+00   -.128E-01 -.241E+00 -.247E-02   0.289E-01 0.179E-01 0.837E-02
   -.269E+00 -.303E+02 0.973E+00   0.281E+00 0.306E+02 -.955E+00   0.128E-01 -.241E+00 0.247E-02   -.289E-01 0.179E-01 -.837E-02
   -.301E-11 0.987E-12 0.355E-11   0.231E-13 -.824E-13 0.548E-13   0.000E+00 0.000E+00 -.165E-22   -.850E-13 0.103E-13 0.388E-13
   -.487E-13 -.227E-13 -.622E-13   -.162E-12 0.122E-13 0.284E-13   -.529E-22 0.000E+00 0.480E-22   -.127E-12 0.432E-14 -.455E-13
   -.172E-11 0.990E-12 -.404E-11   0.302E-13 0.105E-12 0.711E-14   0.000E+00 0.000E+00 0.374E-22   -.107E-12 0.105E-13 0.312E-14
   -.276E+02 -.508E-13 0.293E+03   0.297E+02 -.385E-13 -.307E+03   -.207E+01 0.000E+00 0.147E+02   0.384E-02 0.338E-13 -.149E-01
   0.276E+02 0.399E-13 -.293E+03   -.297E+02 -.557E-13 0.307E+03   0.207E+01 0.000E+00 -.147E+02   -.384E-02 -.780E-13 0.149E-01
   0.281E+02 -.250E-13 -.293E+03   -.302E+02 -.829E-13 0.308E+03   0.211E+01 0.000E+00 -.147E+02   0.225E-01 -.392E-13 -.475E-02
   -.281E+02 -.302E-13 0.293E+03   0.302E+02 -.749E-13 -.308E+03   -.211E+01 -.132E-22 0.147E+02   -.225E-01 -.815E-15 0.475E-02
   0.397E+02 0.313E+02 0.307E+03   -.443E+02 -.336E+02 -.323E+03   0.470E+01 0.234E+01 0.161E+02   -.254E-01 -.333E-01 -.361E-01
   -.397E+02 0.313E+02 -.307E+03   0.443E+02 -.336E+02 0.323E+03   -.470E+01 0.234E+01 -.161E+02   0.254E-01 -.333E-01 0.361E-01
   -.397E+02 -.313E+02 -.307E+03   0.443E+02 0.336E+02 0.323E+03   -.470E+01 -.234E+01 -.161E+02   0.254E-01 0.333E-01 0.361E-01
   0.397E+02 -.313E+02 0.307E+03   -.443E+02 0.336E+02 -.323E+03   0.470E+01 -.234E+01 0.161E+02   -.254E-01 0.333E-01 -.361E-01
   -.400E+02 0.312E+02 -.307E+03   0.448E+02 -.336E+02 0.323E+03   -.475E+01 0.234E+01 -.161E+02   -.575E-02 0.195E-01 -.171E-01
   0.400E+02 0.312E+02 0.307E+03   -.448E+02 -.336E+02 -.323E+03   0.475E+01 0.234E+01 0.161E+02   0.575E-02 0.195E-01 0.171E-01
   0.400E+02 -.312E+02 0.307E+03   -.448E+02 0.336E+02 -.323E+03   0.475E+01 -.234E+01 0.161E+02   0.575E-02 -.195E-01 0.171E-01
   -.400E+02 -.312E+02 -.307E+03   0.448E+02 0.336E+02 0.323E+03   -.475E+01 -.234E+01 -.161E+02   -.575E-02 -.195E-01 -.171E-01
   0.106E+02 0.235E-12 0.277E+03   -.132E+02 0.215E-13 -.289E+03   0.266E+01 0.000E+00 0.118E+02   -.533E-02 0.509E-14 -.224E-01
   -.106E+02 0.116E-12 -.277E+03   0.132E+02 0.243E-13 0.289E+03   -.266E+01 0.000E+00 -.118E+02   0.533E-02 0.229E-13 0.224E-01
   -.100E+02 0.196E-12 -.277E+03   0.126E+02 0.922E-13 0.289E+03   -.263E+01 0.000E+00 -.118E+02   0.457E-01 -.155E-13 -.238E-01
   0.100E+02 0.202E-12 0.277E+03   -.126E+02 0.142E-12 -.289E+03   0.263E+01 0.000E+00 0.118E+02   -.457E-01 0.408E-13 0.238E-01
   -.289E+02 0.735E-13 0.294E+03   0.311E+02 -.337E-13 -.308E+03   -.223E+01 0.000E+00 0.147E+02   0.149E-01 -.560E-13 -.731E-02
   0.289E+02 -.830E-13 -.294E+03   -.311E+02 -.222E-13 0.308E+03   0.223E+01 0.000E+00 -.147E+02   -.149E-01 0.780E-14 0.731E-02
   0.286E+02 -.328E-13 -.293E+03   -.308E+02 0.840E-13 0.308E+03   0.222E+01 0.000E+00 -.147E+02   0.719E-03 -.312E-13 -.712E-02
   -.286E+02 -.197E-14 0.293E+03   0.308E+02 0.614E-13 -.308E+03   -.222E+01 0.000E+00 0.147E+02   -.719E-03 -.121E-13 0.712E-02
   0.405E+02 0.316E+02 0.306E+03   -.452E+02 -.340E+02 -.322E+03   0.475E+01 0.238E+01 0.161E+02   -.459E-03 0.957E-03 -.168E-01
   -.405E+02 0.316E+02 -.306E+03   0.452E+02 -.340E+02 0.322E+03   -.475E+01 0.238E+01 -.161E+02   0.459E-03 0.957E-03 0.168E-01
   -.405E+02 -.316E+02 -.306E+03   0.452E+02 0.340E+02 0.322E+03   -.475E+01 -.238E+01 -.161E+02   0.459E-03 -.957E-03 0.168E-01
   0.405E+02 -.316E+02 0.306E+03   -.452E+02 0.340E+02 -.322E+03   0.475E+01 -.238E+01 0.161E+02   -.459E-03 -.957E-03 -.168E-01
   -.405E+02 0.314E+02 -.306E+03   0.453E+02 -.338E+02 0.322E+03   -.473E+01 0.237E+01 -.161E+02   -.306E-01 0.339E-01 -.371E-01
   0.405E+02 0.314E+02 0.306E+03   -.453E+02 -.338E+02 -.322E+03   0.473E+01 0.237E+01 0.161E+02   0.306E-01 0.339E-01 0.371E-01
   0.405E+02 -.314E+02 0.306E+03   -.453E+02 0.338E+02 -.322E+03   0.473E+01 -.237E+01 0.161E+02   0.306E-01 -.339E-01 0.371E-01
   -.405E+02 -.314E+02 -.306E+03   0.453E+02 0.338E+02 0.322E+03   -.473E+01 -.237E+01 -.161E+02   -.306E-01 -.339E-01 -.371E-01
   0.971E+01 0.137E-12 0.278E+03   -.124E+02 -.197E-13 -.290E+03   0.260E+01 0.331E-23 0.118E+02   0.444E-01 0.948E-13 -.267E-01
   -.971E+01 0.243E-12 -.278E+03   0.124E+02 0.191E-13 0.290E+03   -.260E+01 0.000E+00 -.118E+02   -.444E-01 -.636E-13 0.267E-01
   -.993E+01 0.186E-12 -.278E+03   0.125E+02 0.988E-14 0.290E+03   -.260E+01 0.000E+00 -.118E+02   0.740E-02 -.241E-13 -.240E-01
   0.993E+01 0.179E-12 0.278E+03   -.125E+02 0.109E-13 -.290E+03   0.260E+01 0.000E+00 0.118E+02   -.740E-02 0.536E-13 0.240E-01
 -----------------------------------------------------------------------------------------------
   -.104E-09 0.128E-10 -.126E-11   -.117E-12 -.105E-14 0.171E-12   0.000E+00 0.331E-23 0.178E-14   -.123E-11 -.119E-12 0.601E-12
 
 
 POSITION                                       TOTAL-FORCE (eV/Angst)
 -----------------------------------------------------------------------------------
      4.08547      1.35145      2.37984        -0.000413      0.006273      0.002660
      2.27512      1.35145      7.06895         0.000413      0.006273     -0.002660
      2.27512      4.25132      7.06895         0.000413     -0.006273     -0.002660
      4.08547      4.25132      2.37984        -0.000413     -0.006273      0.002660
      1.58772      2.80138      2.36694         0.004104      0.000000     -0.005319
      4.77287      2.80138      7.08185        -0.004104      0.000000      0.005319
      9.07700      1.34874      2.41471        -0.000930      0.010359      0.008415
     -2.71641      1.34874      7.03408         0.000930      0.010359     -0.008415
     -2.71641      4.25402      7.03408         0.000930     -0.010359     -0.008415
      9.07700      4.25402      2.41471        -0.000930     -0.010359      0.008415
      6.58308      2.80138      2.39399        -0.001888      0.000000      0.006573
     -0.22249      2.80138      7.05480         0.001888      0.000000     -0.006573
      0.00000      0.00000      0.00000         0.000000      0.000000     -0.000000
      2.49546      1.39473      0.02187        -0.000916      0.002674      0.009376
      3.86513      1.39473      9.42692         0.000916      0.002674     -0.009376
      3.86513      4.20804      9.42692         0.000916     -0.002674     -0.009376
      2.49546      4.20804      0.02187        -0.000916     -0.002674      0.009376
      0.00000      2.80138      0.00000         0.000000      0.000000     -0.000000
      4.99091      0.00000      0.03627         0.000000      0.000000     -0.000000
      4.99091      2.80138      0.03627         0.000000      0.000000     -0.000000
      3.18029      0.00000      4.72440         0.000000      0.000000     -0.000000
      5.67646      1.39476      4.73757        -0.003552      0.000597      0.011376
      0.68413      1.39476      4.71122         0.003552      0.000597     -0.011376
      0.68413      4.20801      4.71122         0.003552     -0.000597     -0.011376
      5.67646      4.20801      4.73757        -0.003552     -0.000597      0.011376
      3.18029      2.80138      4.72440         0.000000      0.000000     -0.000000
     -1.81061      0.00000      4.68813         0.000000      0.000000     -0.000000
     -1.81061      2.80138      4.68813         0.000000      0.000000     -0.000000
      4.86051      0.00000      3.77367        -0.006760      0.000000      0.003949
      1.50008      0.00000      5.67512         0.006760      0.000000     -0.003949
      3.31085      0.00000      0.98729         0.004207      0.000000     -0.015395
      3.04974      0.00000      8.46150        -0.004207      0.000000      0.015395
      7.45544      1.41716      3.76787        -0.003541      0.003981      0.000962
     -1.09485      1.41716      5.68092         0.003541      0.003981     -0.000962
     -1.09485      4.18561      5.68092         0.003541     -0.003981     -0.000962
      7.45544      4.18561      3.76787        -0.003541     -0.003981      0.000962
      0.71597      1.41715      0.99271         0.005276      0.004803     -0.003693
      5.64462      1.41715      8.45608        -0.005276      0.004803      0.003693
      5.64462      4.18562      8.45608        -0.005276     -0.004803      0.003693
      0.71597      4.18562      0.99271         0.005276     -0.004803     -0.003693
      4.97222      2.80138      3.69363        -0.006230      0.000000     -0.000849
      1.38836      2.80138      5.75516         0.006230      0.000000      0.000849
      3.19932      2.80138      1.06677         0.002535      0.000000     -0.008466
      3.16127      2.80138      8.38202        -0.002535      0.000000      0.008466
     -0.13014      0.00000      3.74490        -0.007227      0.000000     -0.000211
      6.49073      0.00000      5.70389         0.007227      0.000000      0.000211
      8.30102      0.00000      1.01585         0.007738      0.000000      0.005977
     -1.94043      0.00000      8.43294        -0.007738      0.000000     -0.005977
      2.45831      1.41754      3.73639         0.007322      0.002080      0.002654
      3.90228      1.41754      5.71241        -0.007322      0.002080     -0.002654
      3.90228      4.18523      5.71241        -0.007322     -0.002080     -0.002654
      2.45831      4.18523      3.73639         0.007322     -0.002080      0.002654
      5.71184      1.41723      1.02445         0.000677      0.005550      0.004108
      0.64875      1.41723      8.42434        -0.000677      0.005550     -0.004108
      0.64875      4.18554      8.42434        -0.000677     -0.005550     -0.004108
      5.71184      4.18554      1.02445         0.000677     -0.005550      0.004108
     -0.02003      2.80138      3.66800        -0.007784      0.000000     -0.012581
      6.38062      2.80138      5.78079         0.007784      0.000000      0.012581
      8.19117      2.80138      1.09353         0.004198      0.000000      0.012826
     -1.83058      2.80138      8.35526        -0.004198      0.000000     -0.012826
 -----------------------------------------------------------------------------------
    total drift:                               -0.000000      0.000000     -0.000000


--------------------------------------------------------------------------------------------------------



  FREE ENERGIE OF THE ION-ELECTRON SYSTEM (eV)
  ---------------------------------------------------
  free  energy   TOTEN  =      -364.3126530335 eV

  energy  without entropy=     -364.3095092352  energy(sigma->0) =     -364.31108113
 


--------------------------------------------------------------------------------------------------------


    POTLOK:  cpu time    0.2009: real time    0.2013


--------------------------------------------------------------------------------------------------------


 Quasi-Newton relaxation of ions (Broydens 2nd method)
  g(Force)  = 0.233E-03   g(Stress)= 0.160E-03

 Reset! Starting new Quasi-Newton update for ions 


--------------------------------------------------------------------------------------------------------


  
 reached required accuracy - stopping structural energy minimisation
     LOOP+:  cpu time  106.2190: real time  106.6431
    4ORBIT:  cpu time    0.0000: real time    0.0000

volume of typ            1:    17.8 %

volume of typ            2:    19.4 %

volume of typ            3:     9.9 %
 
total charge     
 
# of ion       s       p       d       tot
------------------------------------------
    1        2.078   0.252   0.091   2.421
    2        2.078   0.252   0.091   2.421
    3        2.078   0.252   0.091   2.421
    4        2.078   0.252   0.091   2.421
    5        2.079   0.249   0.094   2.422
    6        2.079   0.249   0.094   2.422
    7        2.077   0.252   0.091   2.420
    8        2.077   0.252   0.091   2.420
    9        2.077   0.252   0.091   2.420
   10        2.077   0.252   0.091   2.420
   11        2.079   0.249   0.094   2.422
   12        2.079   0.249   0.094   2.422
   13        0.282   0.388   7.847   8.517
   14        0.262   0.345   7.862   8.469
   15        0.262   0.345   7.862   8.469
   16        0.262   0.345   7.862   8.469
   17        0.262   0.345   7.862   8.469
   18        0.280   0.379   7.870   8.529
   19        0.281   0.387   7.847   8.515
   20        0.280   0.378   7.869   8.528
   21        0.281   0.386   7.848   8.515
   22        0.262   0.345   7.862   8.469
   23        0.262   0.345   7.862   8.469
   24        0.262   0.345   7.862   8.469
   25        0.262   0.345   7.862   8.469
   26        0.280   0.378   7.871   8.530
   27        0.282   0.388   7.847   8.517
   28        0.280   0.379   7.873   8.532
   29        1.261   2.785   0.006   4.053
   30        1.261   2.785   0.006   4.053
   31        1.261   2.785   0.006   4.053
   32        1.261   2.785   0.006   4.053
   33        1.263   2.778   0.006   4.048
   34        1.263   2.778   0.006   4.048
   35        1.263   2.778   0.006   4.048
   36        1.263   2.778   0.006   4.048
   37        1.263   2.778   0.006   4.048
   38        1.263   2.778   0.006   4.048
   39        1.263   2.778   0.006   4.048
   40        1.263   2.778   0.006   4.048
   41        1.257   2.794   0.005   4.056
   42        1.257   2.794   0.005   4.056
   43        1.257   2.793   0.005   4.056
   44        1.257   2.793   0.005   4.056
   45        1.261   2.785   0.006   4.053
   46        1.261   2.785   0.006   4.053
   47        1.261   2.786   0.006   4.053
   48        1.261   2.786   0.006   4.053
   49        1.263   2.778   0.006   4.048
   50        1.263   2.778   0.006   4.048
   51        1.263   2.778   0.006   4.048
   52        1.263   2.778   0.006   4.048
   53        1.263   2.778   0.007   4.048
   54        1.263   2.778   0.007   4.048
   55        1.263   2.778   0.007   4.048
   56        1.263   2.778   0.007   4.048
   57        1.257   2.794   0.006   4.056
   58        1.257   2.794   0.006   4.056
   59        1.257   2.794   0.006   4.056
   60        1.257   2.794   0.006   4.056
--------------------------------------------------
tot          69.63   97.92  127.08  294.62
 
magnetization (x)
 
# of ion       s       p       d       tot
------------------------------------------
    1        0.005   0.017  -0.001   0.021
    2        0.005   0.017  -0.001   0.021
    3        0.005   0.017  -0.001   0.021
    4        0.005   0.017  -0.001   0.021
    5        0.006   0.011   0.001   0.017
    6        0.006   0.011   0.001   0.017
    7        0.005   0.017  -0.001   0.021
    8        0.005   0.017  -0.001   0.021
    9        0.005   0.017  -0.001   0.021
   10        0.005   0.017  -0.001   0.021
   11        0.006   0.011   0.001   0.017
   12        0.006   0.011   0.001   0.017
   13       -0.001  -0.000   0.241   0.240
   14        0.001  -0.000   0.676   0.676
   15        0.001  -0.000   0.676   0.676
   16        0.001  -0.000   0.676   0.676
   17        0.001  -0.000   0.676   0.676
   18        0.004  -0.000   0.605   0.609
   19       -0.001  -0.000   0.246   0.245
   20        0.005  -0.000   0.609   0.613
   21       -0.001  -0.000   0.247   0.246
   22        0.001  -0.000   0.675   0.676
   23        0.001  -0.000   0.675   0.676
   24        0.001  -0.000   0.675   0.676
   25        0.001  -0.000   0.675   0.676
   26        0.005  -0.000   0.609   0.613
   27       -0.001  -0.000   0.240   0.239
   28        0.004  -0.000   0.604   0.608
   29        0.009   0.037   0.000   0.046
   30        0.009   0.037   0.000   0.046
   31        0.009   0.037   0.000   0.046
   32        0.009   0.037   0.000   0.046
   33        0.008   0.052   0.000   0.060
   34        0.008   0.052   0.000   0.060
   35        0.008   0.052   0.000   0.060
   36        0.008   0.052   0.000   0.060
   37        0.008   0.052   0.000   0.060
   38        0.008   0.052   0.000   0.060
   39        0.008   0.052   0.000   0.060
   40        0.008   0.052   0.000   0.060
   41        0.012   0.090   0.000   0.102
   42        0.012   0.090   0.000   0.102
   43        0.012   0.089   0.000   0.102
   44        0.012   0.089   0.000   0.102
   45        0.009   0.036   0.000   0.045
   46        0.009   0.036   0.000   0.045
   47        0.009   0.036   0.000   0.045
   48        0.009   0.036   0.000   0.045
   49        0.008   0.052   0.000   0.060
   50        0.008   0.052   0.000   0.060
   51        0.008   0.052   0.000   0.060
   52        0.008   0.052   0.000   0.060
   53        0.008   0.052   0.000   0.060
   54        0.008   0.052   0.000   0.060
   55        0.008   0.052   0.000   0.060
   56        0.008   0.052   0.000   0.060
   57        0.012   0.088   0.000   0.100
   58        0.012   0.088   0.000   0.100
   59        0.012   0.088   0.000   0.100
   60        0.012   0.088   0.000   0.100
--------------------------------------------------
tot           0.37    2.01    8.81   11.19
 

 total amount of memory used by VASP MPI-rank0   100462. kBytes
=======================================================================

   base      :      30000. kBytes
   nonlr-proj:      24543. kBytes
   fftplans  :       6149. kBytes
   grid      :      35266. kBytes
   one-center:        933. kBytes
   wavefun   :       3571. kBytes
 
  
  
 General timing and accounting informations for this job:
 ========================================================
  
                  Total CPU time used (sec):      112.971
                            User time (sec):      110.663
                          System time (sec):        2.307
                         Elapsed time (sec):      117.457
  
                   Maximum memory used (kb):      130976.
                   Average memory used (kb):           0.
  
                          Minor page faults:        47856
                          Major page faults:           43
                 Voluntary context switches:         1195
