 vasp.5.4.4.18Apr17-6-g9f103f2a35 (build May 12 2020 05:39:39) gamma-only       
  
 MD_VERSION_INFO: Compiled 2020-05-12T12:39:39-UTC in devlin.sd.materialsdesign.
 com:/home/medea2/data/build/wwolf/vasp-gpu5.4.4/13047/x86_64/src/src/build/gam 
 from svn 13047
 
 This VASP executable licensed from Materials Design, Inc.
 
 executed on                        Lin64 date 2023.01.19  17:59:42
 running on   16 total cores
 distrk:  each k-point on   16 cores,    1 groups
 distr:  one band on NCORES_PER_BAND=   1 cores,   16 groups


--------------------------------------------------------------------------------------------------------


 INCAR:
 POTCAR:    PAW_PBE Li_sv 10Sep2004               
 POTCAR:    PAW_PBE Ni 02Aug2007                  
 POTCAR:    PAW_PBE O 08Apr2002                   

 ----------------------------------------------------------------------------- 
|                                                                             |
|           W    W    AA    RRRRR   N    N  II  N    N   GGGG   !!!           |
|           W    W   A  A   R    R  NN   N  II  NN   N  G    G  !!!           |
|           W    W  A    A  R    R  N N  N  II  N N  N  G       !!!           |
|           W WW W  AAAAAA  RRRRR   N  N N  II  N  N N  G  GGG   !            |
|           WW  WW  A    A  R   R   N   NN  II  N   NN  G    G                |
|           W    W  A    A  R    R  N    N  II  N    N   GGGG   !!!           |
|                                                                             |
|      For optimal performance we recommend to set                            |
|        NCORE= 4 - approx SQRT( number of cores)                             |
|      NCORE specifies how many cores store one orbital (NPAR=cpu/NCORE).     |
|      This setting can  greatly improve the performance of VASP for DFT.     |
|      The default,   NCORE=1            might be grossly inefficient         |
|      on modern multi-core architectures or massively parallel machines.     |
|      Do your own testing !!!!                                               |
|      Unfortunately you need to use the default for GW and RPA calculations. |
|      (for HF NCORE is supported but not extensively tested yet)             |
|                                                                             |
 ----------------------------------------------------------------------------- 

 POTCAR:    PAW_PBE Li_sv 10Sep2004               
  local pseudopotential read in
  atomic valenz-charges read in
  non local Contribution for L=           0  read in
    real space projection operators read in
  non local Contribution for L=           0  read in
    real space projection operators read in
  non local Contribution for L=           1  read in
    real space projection operators read in
    PAW grid and wavefunctions read in
 
   number of l-projection  operators is LMAX  =           3
   number of lm-projection operators is LMMAX =           5
 
 POTCAR:    PAW_PBE Ni 02Aug2007                  
  local pseudopotential read in
  partial core-charges read in
  partial kinetic energy density read in
  atomic valenz-charges read in
  non local Contribution for L=           2  read in
    real space projection operators read in
  non local Contribution for L=           2  read in
    real space projection operators read in
  non local Contribution for L=           0  read in
    real space projection operators read in
  non local Contribution for L=           0  read in
    real space projection operators read in
  non local Contribution for L=           1  read in
    real space projection operators read in
  non local Contribution for L=           1  read in
    real space projection operators read in
    PAW grid and wavefunctions read in
 
   number of l-projection  operators is LMAX  =           6
   number of lm-projection operators is LMMAX =          18
 
 POTCAR:    PAW_PBE O 08Apr2002                   
  local pseudopotential read in
  partial core-charges read in
  partial kinetic energy density read in
  kinetic energy density of atom read in
  atomic valenz-charges read in
  non local Contribution for L=           0  read in
    real space projection operators read in
  non local Contribution for L=           0  read in
    real space projection operators read in
  non local Contribution for L=           1  read in
    real space projection operators read in
  non local Contribution for L=           1  read in
    real space projection operators read in
    PAW grid and wavefunctions read in
 
   number of l-projection  operators is LMAX  =           4
   number of lm-projection operators is LMMAX =           8
 
 Optimization of the real space projectors (new method)

 maximal supplied QI-value         = 22.11
 optimisation between [QCUT,QGAM] = [ 11.28, 22.77] = [ 35.61,145.23] Ry 
 Optimized for a Real-space Cutoff    1.10 Angstroem

   l    n(q)    QCUT    max X(q) W(low)/X(q) W(high)/X(q)  e(spline) 
   0      7    11.276    10.506    0.54E-04    0.58E-04    0.16E-07
   0      7    11.276     8.367    0.11E-03    0.14E-03    0.35E-07
   1      7    11.276     8.983    0.23E-03    0.43E-03    0.86E-07
 Optimization of the real space projectors (new method)

 maximal supplied QI-value         = 16.25
 optimisation between [QCUT,QGAM] = [ 11.38, 22.75] = [ 36.24,144.96] Ry 
 Optimized for a Real-space Cutoff    1.47 Angstroem

   l    n(q)    QCUT    max X(q) W(low)/X(q) W(high)/X(q)  e(spline) 
   2      9    11.376    60.317    0.17E-03    0.16E-04    0.16E-06
   2      9    11.376    55.921    0.17E-03    0.16E-04    0.17E-06
   0     10    11.376    51.690    0.45E-04    0.60E-04    0.21E-06
   0     10    11.376    30.015    0.37E-04    0.55E-04    0.19E-06
   1     10    11.376    18.849    0.83E-04    0.11E-03    0.92E-07
   1     10    11.376    14.624    0.69E-04    0.92E-04    0.82E-07
 Optimization of the real space projectors (new method)

 maximal supplied QI-value         = 24.76
 optimisation between [QCUT,QGAM] = [ 11.39, 22.77] = [ 36.31,145.25] Ry 
 Optimized for a Real-space Cutoff    1.10 Angstroem

   l    n(q)    QCUT    max X(q) W(low)/X(q) W(high)/X(q)  e(spline) 
   0      7    11.387    20.381    0.22E-03    0.48E-03    0.18E-06
   0      7    11.387    15.268    0.22E-03    0.52E-03    0.19E-06
   1      7    11.387     5.964    0.22E-03    0.73E-03    0.24E-06
   1      7    11.387     5.382    0.19E-03    0.60E-03    0.21E-06

 ----------------------------------------------------------------------------- 
|                                                                             |
|  ADVICE TO THIS USER RUNNING 'VASP/VAMP'   (HEAR YOUR MASTER'S VOICE ...):  |
|                                                                             |
|      You enforced a specific xc-type in the INCAR file,                     |
|      a different type was found on the POTCAR file                          |
|          I HOPE YOU KNOW, WHAT YOU ARE  DOING                               |
|                                                                             |
 ----------------------------------------------------------------------------- 

  PAW_PBE Li_sv 10Sep2004               :
 energy of atom  1       EATOM= -202.7858
 kinetic energy error for atom=    0.0143 (will be added to EATOM!!)
  PAW_PBE Ni 02Aug2007                  :
 energy of atom  2       EATOM=-1077.6739
 kinetic energy error for atom=    0.0030 (will be added to EATOM!!)
  PAW_PBE O 08Apr2002                   :
 energy of atom  3       EATOM= -432.3788
 kinetic energy error for atom=    0.0224 (will be added to EATOM!!)
 
 
 POSCAR: ce373082_1                              
  positions in direct lattice
  No initial velocities read in
 exchange correlation table for  LEXCH =       14
   RHO(1)=    0.500       N(1)  =     2000
   RHO(2)=  100.500       N(2)  =     4000
 


--------------------------------------------------------------------------------------------------------


 ion  position               nearest neighbor table
   1  0.978  0.500  0.998-  90 2.01  55 2.01  91 2.14  42 2.16  43 2.23  78 2.23  37 2.81  20 2.81

   2  0.111  0.833  0.223-  57 2.11  56 2.12  62 2.12  39 2.12  63 2.13  44 2.13
   3  0.223  0.167  0.111-  46 2.10  41 2.10  47 2.11  40 2.11  64 2.12  77 2.12
   4  0.333  0.500  0.000-  43 2.10  84 2.10  78 2.11  49 2.11  79 2.12  48 2.12
   5  0.577  0.167  0.113-  53 2.01  52 2.01  70 2.14  83 2.16  46 2.23  47 2.23  19 2.81  18 2.81

   6  0.221  0.167  0.463-  82 2.01  59 2.03  58 2.14  65 2.14  64 2.23  41 2.24  33 2.81  22 2.81

   7  0.686  0.500  0.352-  73 2.01  72 2.02  54 2.14  67 2.14  49 2.20  48 2.23  28 2.79  29 2.81

   8  0.778  0.833  0.556-  87 2.11  74 2.11  75 2.12  68 2.12  69 2.13  92 2.13
   9  0.334  0.500  0.648-  61 2.01  66 2.03  85 2.14  60 2.14  79 2.23  84 2.24  23 2.81  25 2.81

  10  0.445  0.833  0.888-  86 2.11  51 2.12  81 2.12  50 2.12  80 2.13  45 2.13
  11  0.869  0.167  0.759-  88 2.01  71 2.02  89 2.14  76 2.14  40 2.20  77 2.23  28 2.79  36 2.81

  12  1.000  0.999  0.000-  56 1.86  89 1.87  77 1.88  44 1.88  92 1.91  41 1.92  18 2.79  15 2.80
                            21 2.81  30 2.81  36 2.82  24 2.82
  13  0.110  0.335  0.221-  55 1.86  58 1.87  64 1.87  43 1.91  61 1.93  40 1.95  16 2.79  19 2.80
                            37 2.81  25 2.82  31 2.82  22 2.83
  14  0.224  0.668  0.112-  63 1.86  39 1.88  78 1.88  42 1.88  45 1.90  48 1.91  26 2.78  17 2.80
                            32 2.80  23 2.81  38 2.82  20 2.83
  15  0.331  0.999  0.999-  80 1.86  50 1.88  47 1.88  83 1.88  44 1.90  77 1.91  30 2.78  12 2.80
                            24 2.80  33 2.81  27 2.82  18 2.83
  16  0.444  0.334  0.225-  67 1.87  49 1.87  46 1.88  70 1.88  64 1.90  43 1.92  25 2.78  13 2.79
                            28 2.80  31 2.82  34 2.82  19 2.83
  17  0.556  0.668  0.111-  51 1.86  54 1.87  48 1.88  45 1.88  69 1.91  84 1.92  20 2.79  14 2.80
                            35 2.81  26 2.81  29 2.82  32 2.82
  18  0.668  0.999  1.000-  86 1.87  53 1.88  50 1.88  83 1.88  89 1.90  56 1.90  12 2.79  36 2.79
                            21 2.80   5 2.81  33 2.82  27 2.82  15 2.83
  19  0.779  0.335  0.223-  73 1.87  52 1.87  70 1.89  58 1.90  55 1.90  49 1.92  13 2.80  22 2.80
                            34 2.81  37 2.81   5 2.81  28 2.81  16 2.83
  20  0.887  0.668  0.111-  57 1.87  90 1.88  39 1.88  42 1.88  54 1.90  51 1.90  17 2.79  29 2.79
                            35 2.80   1 2.81  23 2.82  38 2.82  14 2.83
  21  0.999  0.000  0.333-  59 1.87  56 1.87  62 1.89  53 1.90  74 1.92  41 1.94  18 2.80  27 2.81
                            30 2.81  12 2.81  33 2.81  24 2.84
  22  0.110  0.335  0.556-  61 1.88  58 1.88  82 1.88  73 1.90  76 1.90  79 1.91  31 2.78  28 2.80
                            19 2.80   6 2.81  34 2.82  25 2.83  13 2.83
  23  0.222  0.668  0.445-  63 1.87  57 1.87  60 1.87  66 1.88  81 1.91  42 1.91  29 2.79  26 2.80
                             9 2.81  14 2.81  35 2.81  32 2.82  20 2.82
  24  0.336  0.999  0.334-  65 1.87  62 1.87  41 1.88  44 1.88  68 1.89  47 1.91  27 2.77  36 2.79
                            15 2.80  33 2.82  12 2.82  21 2.84
  25  0.446  0.332  0.555-  82 1.88  85 1.88  61 1.88  88 1.90  67 1.90  64 1.91  16 2.78  28 2.80
                            37 2.80   9 2.81  13 2.82  22 2.83  34 2.83
  26  0.554  0.666  0.443-  87 1.87  72 1.88  69 1.88  66 1.90  63 1.90  48 1.91  14 2.78  23 2.80
                            35 2.81  17 2.81  38 2.83  29 2.83
  27  0.666  0.000  0.333-  53 1.86  68 1.87  74 1.87  47 1.91  71 1.93  50 1.93  24 2.77  21 2.81
                            36 2.82  15 2.82  18 2.82  30 2.83
  28  0.778  0.333  0.556-  76 1.87  67 1.87  88 1.88  73 1.88  70 1.90  91 1.90  11 2.79   7 2.79
                            22 2.80  25 2.80  31 2.80  16 2.80  37 2.81  19 2.81
  29  0.890  0.667  0.444-  75 1.87  54 1.87  72 1.88  69 1.88  57 1.90  60 1.90  32 2.79  23 2.79
                            20 2.79   7 2.81  38 2.82  17 2.82  26 2.83
  30  0.002  0.000  0.668-  74 1.87  71 1.88  92 1.88  59 1.90  80 1.90  77 1.91  15 2.78  33 2.80
                            21 2.81  12 2.81  27 2.83  36 2.83
  31  0.112  0.333  0.886-  76 1.87  40 1.87  43 1.88  91 1.88  79 1.90  46 1.92  22 2.78  34 2.79
                            28 2.80  16 2.82  13 2.82  37 2.83
  32  0.219  0.667  0.777-  60 1.87  81 1.87  84 1.88  45 1.88  75 1.89  78 1.91  38 2.77  29 2.79
                            14 2.80  23 2.82  17 2.82  35 2.84
  33  0.333  0.999  0.666-  80 1.87  86 1.87  65 1.87  59 1.88  62 1.91  83 1.91  36 2.79  30 2.80
                             6 2.81  15 2.81  21 2.81  24 2.82  18 2.82
  34  0.445  0.332  0.891-  52 1.86  85 1.87  79 1.87  46 1.91  82 1.93  49 1.95  31 2.79  37 2.80
                            19 2.81  22 2.82  16 2.82  25 2.83
  35  0.557  0.666  0.778-  66 1.87  51 1.87  81 1.89  90 1.90  87 1.92  84 1.94  20 2.80  38 2.81
                            26 2.81  17 2.81  23 2.81  32 2.84
  36  0.665  0.999  0.667-  68 1.87  89 1.87  71 1.88  92 1.88  86 1.90  65 1.90  24 2.79  33 2.79
                            18 2.79  11 2.81  27 2.82  12 2.82  30 2.83
  37  0.777  0.332  0.888-  88 1.87  55 1.87  91 1.89  85 1.90  52 1.90  40 1.92  34 2.80  25 2.80
                            13 2.81  19 2.81   1 2.81  28 2.81  31 2.83
  38  0.890  0.666  0.778-  90 1.86  75 1.87  87 1.87  78 1.91  72 1.93  39 1.93  32 2.77  35 2.81
                            29 2.82  14 2.82  20 2.82  26 2.83
  39  0.003  0.735  0.005-  14 1.88  20 1.88  38 1.93   2 2.12
  40  0.002  0.263  0.995-  31 1.87  37 1.92  13 1.95   3 2.11  11 2.20
  41  0.119  0.070  0.224-  24 1.88  12 1.92  21 1.94   3 2.10   6 2.24
  42  0.109  0.600  0.219-  14 1.88  20 1.88  23 1.91   1 2.16
  43  0.219  0.403  0.104-  31 1.88  13 1.91  16 1.92   4 2.10   1 2.23
  44  0.221  0.932  0.114-  24 1.88  12 1.88  15 1.90   2 2.13
  45  0.334  0.735  0.997-  32 1.88  17 1.88  14 1.90  10 2.13
  46  0.337  0.263  0.008-  16 1.88  34 1.91  31 1.92   3 2.10   5 2.23
  47  0.441  0.069  0.215-  15 1.88  24 1.91  27 1.91   3 2.11   5 2.23
  48  0.447  0.597  0.220-  17 1.88  26 1.91  14 1.91   4 2.12   7 2.23
  49  0.553  0.404  0.116-  16 1.87  19 1.92  34 1.95   4 2.11   7 2.20
  50  0.553  0.932  0.106-  15 1.88  18 1.88  27 1.93  10 2.12
  51  0.661  0.734  0.996-  17 1.86  35 1.87  20 1.90  10 2.12
  52  0.666  0.266  0.005-  34 1.86  19 1.87  37 1.90   5 2.01
  53  0.772  0.067  0.220-  27 1.86  18 1.88  21 1.90   5 2.01
  54  0.776  0.600  0.224-  17 1.87  29 1.87  20 1.90   7 2.14
  55  0.890  0.401  0.106-  13 1.86  37 1.87  19 1.90   1 2.01
  56  0.894  0.932  0.115-  12 1.86  21 1.87  18 1.90   2 2.12
  57  0.002  0.735  0.331-  23 1.87  20 1.87  29 1.90   2 2.11
  58  0.004  0.267  0.335-  13 1.87  22 1.88  19 1.90   6 2.14
  59  0.112  0.067  0.553-  21 1.87  33 1.88  30 1.90   6 2.03
  60  0.115  0.600  0.558-  32 1.87  23 1.87  29 1.90   9 2.14
  61  0.226  0.401  0.450-  22 1.88  25 1.88  13 1.93   9 2.01
  62  0.221  0.932  0.440-  24 1.87  21 1.89  33 1.91   2 2.12
  63  0.330  0.735  0.332-  14 1.86  23 1.87  26 1.90   2 2.13
  64  0.327  0.264  0.330-  13 1.87  16 1.90  25 1.91   3 2.12   6 2.23
  65  0.440  0.067  0.553-  24 1.87  33 1.87  36 1.90   6 2.14
  66  0.443  0.600  0.558-  35 1.87  23 1.88  26 1.90   9 2.03
  67  0.557  0.401  0.443-  16 1.87  28 1.87  25 1.90   7 2.14
  68  0.560  0.932  0.447-  27 1.87  36 1.87  24 1.89   8 2.12
  69  0.668  0.735  0.337-  29 1.88  26 1.88  17 1.91   8 2.13
  70  0.666  0.266  0.331-  16 1.88  19 1.89  28 1.90   5 2.14
  71  0.780  0.068  0.562-  30 1.88  36 1.88  27 1.93  11 2.02
  72  0.775  0.599  0.549-  26 1.88  29 1.88  38 1.93   7 2.02
  73  0.885  0.402  0.443-  19 1.87  28 1.88  22 1.90   7 2.01
  74  0.886  0.933  0.449-  30 1.87  27 1.87  21 1.92   8 2.11
  75  0.995  0.734  0.664-  38 1.87  29 1.87  32 1.89   8 2.12
  76  0.999  0.266  0.668-  31 1.87  28 1.87  22 1.90  11 2.14
  77  0.108  0.069  0.891-  12 1.88  30 1.91  15 1.91   3 2.12  11 2.23
  78  0.115  0.597  0.896-  14 1.88  32 1.91  38 1.91   4 2.11   1 2.23
  79  0.229  0.403  0.781-  34 1.87  31 1.90  22 1.91   4 2.12   9 2.23
  80  0.225  0.932  0.779-  15 1.86  33 1.87  30 1.90  10 2.13
  81  0.334  0.734  0.671-  32 1.87  35 1.89  23 1.91  10 2.12
  82  0.330  0.265  0.661-  25 1.88  22 1.88  34 1.93   6 2.01
  83  0.446  0.067  0.892-  15 1.88  18 1.88  33 1.91   5 2.16
  84  0.437  0.597  0.887-  32 1.88  17 1.92  35 1.94   4 2.10   9 2.24
  85  0.551  0.399  0.776-  34 1.87  25 1.88  37 1.90   9 2.14
  86  0.554  0.932  0.780-  33 1.87  18 1.87  36 1.90  10 2.11
  87  0.669  0.734  0.662-  26 1.87  38 1.87  35 1.92   8 2.11
  88  0.670  0.265  0.668-  37 1.87  28 1.88  25 1.90  11 2.01
  89  0.780  0.067  0.887-  12 1.87  36 1.87  18 1.90  11 2.14
  90  0.783  0.600  0.891-  38 1.86  20 1.88  35 1.90   1 2.01
  91  0.890  0.400  0.780-  31 1.88  37 1.89  28 1.90   1 2.14
  92  0.887  0.932  0.774-  36 1.88  30 1.88  12 1.91   8 2.13
 
  LATTYP: Found a triclinic cell.
 ALAT       =    16.5549746350
 B/A-ratio  =     0.8592774654
 C/A-ratio  =     0.5085759774
 COS(alpha) =     0.0005959429
 COS(beta)  =     0.2546793281
 COS(gamma) =     0.8606554595
  
  Lattice vectors:
  
 A1 = (  -4.2356131568,  -7.3100649068, -14.2369139005)
 A2 = (  -0.0147315921,  -0.0133162479, -14.2253027837)
 A3 = (   4.2107291557,  -7.2908916240,  -0.0025531420)


Analysis of symmetry for initial positions (statically):
=====================================================================
 Subroutine PRICEL returns:
 Original cell was already a primitive cell.
 

 Routine SETGRP: Setting up the symmetry group for a 
 triclinic supercell.


 Subroutine GETGRP returns: Found  2 space group operations
 (whereof  1 operations were pure point group operations)
 out of a pool of  2 trial point group operations.


The static configuration has the point symmetry C_1 .
 The point group associated with its full space group is S_2 .


Analysis of symmetry for dynamics (positions and initial velocities):
=====================================================================
 Subroutine PRICEL returns:
 Original cell was already a primitive cell.
 

 Routine SETGRP: Setting up the symmetry group for a 
 triclinic supercell.


 Subroutine GETGRP returns: Found  2 space group operations
 (whereof  1 operations were pure point group operations)
 out of a pool of  2 trial point group operations.


The dynamic configuration has the point symmetry C_1 .
 The point group associated with its full space group is S_2 .


Analysis of structural, dynamic, and magnetic symmetry:
=====================================================================
 Subroutine PRICEL returns:
 Original cell was already a primitive cell.
 

 Routine SETGRP: Setting up the symmetry group for a 
 triclinic supercell.


 Subroutine GETGRP returns: Found  2 space group operations
 (whereof  1 operations were pure point group operations)
 out of a pool of  2 trial point group operations.


The magnetic configuration has the point symmetry C_1 .
 The point group associated with its full space group is S_2 .


 Subroutine INISYM returns: Found  2 space group operations
 (whereof  1 operations are pure point group operations),
 and found     1 'primitive' translations

 
 
 KPOINTS: Automatic mesh                          

Automatic generation of k-mesh.
Space group operators:
 irot       det(A)        alpha          n_x          n_y          n_z        tau_x        tau_y        tau_z
    1     1.000000     0.000001     1.000000     0.000000     0.000000     0.000000     0.000000     0.000000
    2    -1.000000     0.000001     1.000000     0.000000     0.000000    -1.444444    -1.333333    -0.888889
 
 Subroutine IBZKPT returns following result:
 ===========================================
 
 Found      1 irreducible k-points:
 
 Following reciprocal coordinates:
            Coordinates               Weight
  0.000000  0.000000  0.000000      1.000000
 
 Following cartesian coordinates:
            Coordinates               Weight
  0.000000  0.000000  0.000000      1.000000
 


--------------------------------------------------------------------------------------------------------




 Dimension of arrays:
   k-points           NKPTS =      1   k-points in BZ     NKDIM =      1   number of bands    NBANDS=    416
   number of dos      NEDOS =    301   number of ions     NIONS =     92
   non local maximal  LDIM  =      6   non local SUM 2l+1 LMDIM =     18
   total plane-waves  NPLWV = 442368
   max r-space proj   IRMAX =   6838   max aug-charges    IRDMAX=  16588
   dimension x,y,z NGX =    64 NGY =  108 NGZ =   64
   dimension x,y,z NGXF=   128 NGYF=  216 NGZF=  128
   support grid    NGXF=   128 NGYF=  216 NGZF=  128
   ions per type =              11  27  54
   NGX,Y,Z   is equivalent  to a cutoff of  12.64, 12.62, 12.62 a.u.
   NGXF,Y,Z  is equivalent  to a cutoff of  25.27, 25.24, 25.24 a.u.

 SYSTEM =  unknown system                          
 POSCAR =  ce373082_1                              

 Startparameter for this run:
   NWRITE =      1    write-flag & timer
   PREC   = accura    normal or accurate (medium, high low for compatibility)
   ISTART =      0    job   : 0-new  1-cont  2-samecut
   ICHARG =      2    charge: 1-file 2-atom 10-const
   ISPIN  =      2    spin polarized calculation?
   LNONCOLLINEAR =      F non collinear calculations
   LSORBIT =      F    spin-orbit coupling
   INIWAV =      1    electr: 0-lowe 1-rand  2-diag
   LASPH  =      F    aspherical Exc in radial PAW
   METAGGA=      F    non-selfconsistent MetaGGA calc.

 Electronic Relaxation 1
   ENCUT  =  500.0 eV  36.75 Ry    6.06 a.u.  15.35 25.94 15.37*2*pi/ulx,y,z
   ENINI  =  500.0     initial cutoff
   ENAUG  =  628.9 eV  augmentation charge cutoff
   NELM   =     80;   NELMIN=  2; NELMDL= -5     # of ELM steps 
   EDIFF  = 0.1E-04   stopping-criterion for ELM
   LREAL  =      T    real-space projection
   NLSPLINE    = F    spline interpolate recip. space projectors
   LCOMPAT=      F    compatible to vasp.4.4
   GGA_COMPAT  = T    GGA compatible to vasp.4.4-vasp.4.6
   LMAXPAW     = -100 max onsite density
   LMAXMIX     =    2 max onsite mixed and CHGCAR
   VOSKOWN=      1    Vosko Wilk Nusair interpolation
   ROPT   =   -0.00025  -0.00025  -0.00025
 Ionic relaxation
   EDIFFG = -.2E-01   stopping-criterion for IOM
   NSW    =     20    number of steps for IOM
   NBLOCK =      1;   KBLOCK =     20    inner block; outer block 
   IBRION =      1    ionic relax: 0-MD 1-quasi-New 2-CG
   NFREE  =      0    steps in history (QN), initial steepest desc. (CG)
   ISIF   =      3    stress and relaxation
   IWAVPR =     11    prediction:  0-non 1-charg 2-wave 3-comb
   ISYM   =      2    0-nonsym 1-usesym 2-fastsym
   LCORR  =      T    Harris-Foulkes like correction to forces

   POTIM  = 0.5000    time-step for ionic-motion
   TEIN   =    0.0    initial temperature
   TEBEG  =    0.0;   TEEND  =   0.0 temperature during run
   SMASS  =  -3.00    Nose mass-parameter (am)
   estimated Nose-frequenzy (Omega)   =  0.10E-29 period in steps =****** mass=  -0.162E-26a.u.
   SCALEE = 1.0000    scale energy and forces
   NPACO  =    256;   APACO  = 16.0  distance and # of slots for P.C.
   PSTRESS=    0.0 pullay stress

  Mass of Ions in am
   POMASS =   7.01 58.69 16.00
  Ionic Valenz
   ZVAL   =   3.00 10.00  6.00
  Atomic Wigner-Seitz radii
   RWIGS  =   1.23  1.15  0.73
  virtual crystal weights 
   VCA    =   1.00  1.00  1.00
   NELECT =     627.0000    total number of electrons
   NUPDOWN=      -1.0000    fix difference up-down

 DOS related values:
   EMIN   =  10.00;   EMAX   =-10.00  energy-range for DOS
   EFERMI =   0.00
   ISMEAR =     0;   SIGMA  =   0.05  broadening in eV -4-tet -1-fermi 0-gaus

 Electronic relaxation 2 (details)
   IALGO  =     38    algorithm
   LDIAG  =      T    sub-space diagonalisation (order eigenvalues)
   LSUBROT=      F    optimize rotation matrix (better conditioning)
   TURBO    =      0    0=normal 1=particle mesh
   IRESTART =      0    0=no restart 2=restart with 2 vectors
   NREBOOT  =      0    no. of reboots
   NMIN     =      0    reboot dimension
   EREF     =   0.00    reference energy to select bands
   IMIX   =      4    mixing-type and parameters
     AMIX     =   0.40;   BMIX     =  1.00
     AMIX_MAG =   1.60;   BMIX_MAG =  1.00
     AMIN     =   0.10
     WC   =   100.;   INIMIX=   1;  MIXPRE=   1;  MAXMIX= -45

 Intra band minimization:
   WEIMIN = 0.0010     energy-eigenvalue tresh-hold
   EBREAK =  0.60E-08  absolut break condition
   DEPER  =   0.30     relativ break condition  

   TIME   =   0.40     timestep for ELM

  volume/ion in A,a.u.               =       9.51        64.17
  Fermi-wavevector in a.u.,A,eV,Ry     =   1.465060  2.768561 29.203546  2.146400
  Thomas-Fermi vector in A             =   2.580962
 
 Write flags
   LWAVE        =      F    write WAVECAR
   LDOWNSAMPLE  =      F    k-point downsampling of WAVECAR
   LCHARG       =      T    write CHGCAR
   LVTOT        =      F    write LOCPOT, total local potential
   LVHAR        =      F    write LOCPOT, Hartree potential only
   LELF         =      F    write electronic localiz. function (ELF)
   LORBIT       =      0    0 simple, 1 ext, 2 COOP (PROOUT), +10 PAW based schemes


 Dipole corrections
   LMONO  =      F    monopole corrections only (constant potential shift)
   LDIPOL =      F    correct potential (dipole corrections)
   IDIPOL =      0    1-x, 2-y, 3-z, 4-all directions 
   EPSILON=  1.0000000 bulk dielectric constant

 Exchange correlation treatment:
   GGA     =    PS    GGA type
   LEXCH   =    14    internal setting for exchange type
   VOSKOWN=      1    Vosko Wilk Nusair interpolation
   LHFCALC =     F    Hartree Fock is set to
   LHFONE  =     F    Hartree Fock one center treatment
   AEXX    =    0.0000 exact exchange contribution

 Linear response parameters
   LEPSILON=     F    determine dielectric tensor
   LRPA    =     F    only Hartree local field effects (RPA)
   LNABLA  =     F    use nabla operator in PAW spheres
   LVEL    =     F    velocity operator in full k-point grid
   LINTERFAST=   F  fast interpolation
   KINTER  =     0    interpolate to denser k-point grid
   CSHIFT  =0.1000    complex shift for real part using Kramers Kronig
   OMEGAMAX=  -1.0    maximum frequency
   DEG_THRESHOLD= 0.2000000E-02 threshold for treating states as degnerate
   RTIME   =   -0.100 relaxation time in fs
  (WPLASMAI=    0.000 imaginary part of plasma frequency in eV, 0.658/RTIME)
   DFIELD  = 0.0000000 0.0000000 0.0000000 field for delta impulse in time
 
 Orbital magnetization related:
   ORBITALMAG=     F  switch on orbital magnetization
   LCHIMAG   =     F  perturbation theory with respect to B field
   DQ        =  0.001000  dq finite difference perturbation B field
   LLRAUG    =     F  two centre corrections for induced B field



--------------------------------------------------------------------------------------------------------


 quasi-Newton-method for relaxation of ions
 charge density and potential will be updated during run
 spin polarized calculation
 Variant of blocked Davidson
 Davidson routine will perform the subspace rotation
 perform sub-space diagonalisation
    after iterative eigenvector-optimisation
 modified Broyden-mixing scheme, WC =      100.0
 initial mixing is a Kerker type mixing with AMIX =  0.4000 and BMIX =      1.0000
 Hartree-type preconditioning will be used
 using additional bands          102
 real space projection scheme for non local part
 use partial core corrections
 calculate Harris-corrections to forces 
   (improved forces if not selfconsistent)
 use gradient corrections 
 use of overlap-Matrix (Vanderbilt PP)
 Gauss-broadening in eV      SIGMA  =   0.05


--------------------------------------------------------------------------------------------------------


  energy-cutoff  :      500.00
  volume of cell :      874.83
      direct lattice vectors                 reciprocal lattice vectors
    -4.210729156  7.290891624  0.002553142    -0.000095101  0.137102557 -0.000128243
     0.014731592  0.013316248 14.225302784    -0.000075472 -0.000068205  0.070297415
     8.431610720  0.005857035  0.009057975     0.118553940  0.068468856 -0.000186867

  length of vectors
     8.419462406 14.225316644  8.431617620     0.137102650  0.070297489  0.136905280


 
 k-points in units of 2pi/SCALE and weight: Automatic mesh                          
   0.00000000  0.00000000  0.00000000       1.000
 
 k-points in reciprocal lattice and weights: Automatic mesh                          
   0.00000000  0.00000000  0.00000000       1.000
 
 position of ions in fractional coordinates (direct lattice) 
   0.97817958  0.49993025  0.99824158
   0.11086997  0.83333661  0.22348460
   0.22289211  0.16683465  0.11093147
   0.33266344  0.49983202  0.00017964
   0.57737598  0.16673642  0.11286953
   0.22146921  0.16693677  0.46349744
   0.68609351  0.49979710  0.35194874
   0.77777778  0.83333333  0.55555556
   0.33408634  0.49972990  0.64761367
   0.44468558  0.83333005  0.88762651
   0.86946205  0.16686957  0.75916237
   0.99988529  0.99902716  0.00046123
   0.11014295  0.33495740  0.22057167
   0.22422362  0.66783297  0.11243847
   0.33133193  0.99883370  0.99867264
   0.44360856  0.33352720  0.22464061
   0.55567027  0.66763951  0.11064988
   0.66830043  0.99899300  0.99995849
   0.77905554  0.33477167  0.22279087
   0.88725513  0.66767367  0.11115262
   0.99884907  0.00035094  0.33329131
   0.11005203  0.33451886  0.55617006
   0.22237468  0.66753665  0.44500001
   0.33640060  0.99917573  0.33368517
   0.44550352  0.33214780  0.55494106
   0.55379502  0.66620355  0.44331779
   0.66553680  0.00027199  0.33324686
   0.77777778  0.33333333  0.55555556
   0.89048100  0.66736012  0.44412191
   0.00176054  0.00046312  0.66779332
   0.11194699  0.33313946  0.88647050
   0.21915495  0.66749094  0.77742594
   0.33318087  0.99913002  0.66611110
   0.44541260  0.33170926  0.89053944
   0.55670649  0.66631573  0.77781980
   0.66507456  0.99930655  0.66698920
   0.77650002  0.33189499  0.88832024
   0.89001876  0.66639468  0.77786425
   0.00274984  0.73496955  0.00535852
   0.00248224  0.26292854  0.99463092
   0.11900975  0.06973726  0.22407810
   0.10924070  0.60008841  0.21861338
   0.21855793  0.40348817  0.10356859
   0.22107397  0.93155893  0.11372103
   0.33448158  0.73510774  0.99739008
   0.33699762  0.26317850  0.00754252
   0.44078639  0.06924757  0.21536069
   0.44707880  0.59746564  0.21975649
   0.55307332  0.40373813  0.11648019
   0.55280572  0.93169712  0.10575259
   0.66129225  0.73422819  0.99605296
   0.66583981  0.26592722  0.00481256
   0.77220111  0.06679700  0.21968942
   0.77603508  0.59990869  0.22414525
   0.88971575  0.40073945  0.10629855
   0.89426331  0.93243848  0.11505815
   0.00157467  0.73504621  0.33133702
   0.00445353  0.26743259  0.33535448
   0.11241135  0.06695408  0.55286188
   0.11514287  0.59967568  0.55810899
   0.22602594  0.40127449  0.45042923
   0.22110470  0.93231914  0.43983195
   0.33019638  0.73461804  0.33171212
   0.32689903  0.26397312  0.32985469
   0.44041268  0.06699098  0.55300213
   0.44314420  0.59971258  0.55824924
   0.55695065  0.40086415  0.44336086
   0.56017986  0.93235193  0.44671777
   0.66843379  0.73455732  0.33738050
   0.66596353  0.26620456  0.33148271
   0.78030819  0.06779380  0.56190502
   0.77524737  0.59887286  0.54920610
   0.88540792  0.40169772  0.44302712
   0.88607569  0.93290980  0.44897203
   0.99537570  0.73431474  0.66439334
   0.99860491  0.26580252  0.66775025
   0.10847675  0.06920102  0.89135462
   0.11476916  0.59741909  0.89575042
   0.22865652  0.40269355  0.78125642
   0.22535917  0.93204863  0.77939899
   0.33445085  0.73434753  0.67127916
   0.32952961  0.26539218  0.66068188
   0.44631485  0.06657825  0.89249773
   0.43654580  0.59692940  0.88703301
   0.55110203  0.39923408  0.77575663
   0.55398089  0.93162046  0.77977409
   0.66947987  0.73375687  0.66213908
   0.67014764  0.26496895  0.66808399
   0.77952048  0.06675797  0.88696586
   0.78335445  0.59986966  0.89142169
   0.88959203  0.40046211  0.77962840
   0.88712177  0.93210935  0.77373061
 
 position of ions in cartesian coordinates  (Angst):
   4.30529990  7.14430524  7.12319866
   1.42976811  0.82074681 11.85677298
  -0.00074959  1.62795356  2.37484730
  -1.39187767  2.43207003  7.11111279
  -1.47704564  4.21246708  2.37437255
   2.97794237  1.61964570  2.37948989
   0.08590363  5.01095022  7.11470471
   1.42149297  5.68504428 11.86143692
   4.06104109  2.44623492  7.11552818
   5.62394694  3.25845006 11.86354772
   2.74235063  6.34582209  2.38286649
  -4.19163997  7.30336128 14.21402087
   1.40092678  0.80879258  4.76714958
   0.01373072  1.64434170  9.50171715
   7.03998433  2.43485517 14.21860370
   0.03108006  3.24005899  4.74769279
  -1.39698490  4.06087025  9.49979515
   5.63194538  4.89166564 14.22174177
  -1.39697427  5.68577231  4.76623544
  -2.78895953  6.47842293  9.50113222
  -1.39569515  7.28445709  0.01056138
   4.23093814  0.81008947  4.76395082
   2.82554118  1.63280516  9.50050952
   1.41173109  2.46791999 14.21745868
   2.80804540  3.25579115  4.73106710
   1.41581643  4.04912733  9.48237669
   0.00741660  4.85431214  0.00858689
   1.41412717  5.67838616  4.74878553
   0.00492003  6.50388843  9.49969614
   5.62316698  0.01675336  0.01264137
   7.00790339  0.82582163  4.74732513
   5.64198396  1.61127688  9.50286217
   4.22817386  2.44639171 14.21981133
   5.63805667  3.25708804  4.72786835
   4.22394941  4.07231523  9.48700983
   2.83806583  4.86620013 14.22317785
   4.22522853  5.67100001  4.73133562
   2.82083766  6.50246018  9.48898432
   0.04442939  0.02986721 10.45521994
   8.37976204  0.02742455  3.74925377
   1.38924883  0.86992826  0.99436718
   1.39212018  0.80573346  8.53869843
  -0.04109419  1.59946173  5.74123752
   0.04169219  1.62489729 13.25330236
   7.01202286  2.45429958 10.46701849
  -1.35153307  2.46056185  3.74472257
  -0.03917447  3.21590929  0.98814377
  -0.02082494  3.26884620  8.50226164
  -1.34077863  4.03845614  5.74576429
  -1.42232511  4.04347270 13.25604293
   5.62462461  4.83702121 10.45532891
  -2.75917594  4.85813523  3.78463880
  -1.39821003  5.63221082  0.95416903
  -1.36893043  5.66728902  8.53789439
  -2.84418052  6.49278005  5.70387443
  -2.78163876  6.53306736 13.26754508
   2.79790266  0.02320946 10.45926016
   2.81276553  0.03799559  3.80735857
   4.18916875  0.82370868  0.95773687
   4.22975648  0.85074848  8.53591743
   2.85202132  1.65591228  5.71290817
   2.79121432  1.62704151 13.26707056
   1.41732204  2.41915123 10.45401173
   1.40861181  2.38883250  3.75891999
   2.80922706  3.21513214  0.95910049
   2.84981479  3.24217194  8.53728105
   1.39898321  4.06860162  5.70785183
   1.42151970  4.09924252 13.26846508
   0.04088859  4.88523592 10.45406288
  -0.00533726  4.86095427  3.79154333
   1.45309666  5.69333630  0.97146929
   1.37515769  5.66343602  8.52610177
   0.01313692  6.46335712  5.72054520
   0.06827589  6.47533433 13.27725343
   1.42146615  7.27084605 10.45440891
   1.42927105  7.28817070  3.78971937
   7.05980840  0.79703442  0.99275629
   7.07815793  0.84997133  8.50687415
   5.63037165  1.67704812  5.73609807
   5.63639301  1.66004564 13.26630912
   4.26250072  2.45215536 10.45325029
   4.18696214  2.40996834  3.78210989
   5.64686328  3.26014716  0.95631949
   5.64973463  3.19595236  8.50065074
   4.22621789  4.02788511  5.68765950
   4.25581234  4.05598748 13.26106069
   2.77470996  4.89475424 10.44562056
   2.81511734  4.89341520  3.77702601
   4.19718469  5.68948329  0.95967668
   4.22646429  5.72456150  8.54340203
   2.83359152  6.49581804  5.70602788
   2.80209726  6.48485265 13.26881111
 


--------------------------------------------------------------------------------------------------------


 use serial FFT for orbitals x direction half grid
 k-point  1 :   0.0000 0.0000 0.0000  plane waves:   11112

 maximum and minimum number of plane-waves per node :     11112    11112

 maximum number of plane-waves:     11112
 maximum index in each direction: 
   IXMAX=   15   IYMAX=   25   IZMAX=   13
   IXMIN=    0   IYMIN=  -25   IZMIN=  -15

 The following grids will avoid any aliasing or wrap around errors in the Hartre
 e energy
  - symmetry arguments have not been applied
  - exchange correlation energies might require even more grid points
  - we recommend to set PREC=Normal or Accurate and rely on VASP defaults
 NGX is ok and might be reduce to    64
 NGY is ok and might be reduce to   108
 NGZ is ok and might be reduce to    60

 serial   3D FFT for wavefunctions
 parallel 3D FFT for charge:
    minimum data exchange during FFTs selected (reduces bandwidth)


 total amount of memory used by VASP MPI-rank0   145551. kBytes
=======================================================================

   base      :      30000. kBytes
   nonlr-proj:      39783. kBytes
   fftplans  :       9349. kBytes
   grid      :      55332. kBytes
   one-center:       1430. kBytes
   wavefun   :       9657. kBytes
 
     INWAV:  cpu time    0.0000: real time    0.0000
 Broyden mixing: mesh for mixing (old mesh)
   NGX = 31   NGY = 51   NGZ = 31
  (NGX  =128   NGY  =216   NGZ  =128)
  gives a total of  49011 points

 initial charge density was supplied:
 charge density of overlapping atoms calculated
 number of electron     627.0000000 magnetization      67.5000000
 keeping initial charge density in first step


--------------------------------------------------------------------------------------------------------


 Maximum index for non-local projection operator         6598
 Maximum index for augmentation-charges         1088 (set IRDMAX)


--------------------------------------------------------------------------------------------------------


 First call to EWALD:  gamma=   0.185
 Maximum number of real-space cells 3x 2x 3
 Maximum number of reciprocal cells 2x 4x 2

    FEWALD:  cpu time    0.0034: real time    0.0035


--------------------------------------- Iteration      1(   1)  ---------------------------------------


    POTLOK:  cpu time    0.2586: real time    0.2607
    SETDIJ:  cpu time    0.0280: real time    0.0281
     EDDAV:  cpu time    4.5608: real time    4.5926
    --------------------------------------------
      LOOP:  cpu time    4.8480: real time    4.8819

 eigenvalue-minimisations  :  1680
 total energy-change (2. order) : 0.1130703E+05  (-0.2893110E+05)
 number of electron     627.0000000 magnetization      67.5000000
 augmentation part      627.0000000 magnetization      67.5000000

 Free energy of the ion-electron system (eV)
  ---------------------------------------------------
  alpha Z        PSCENC =      1943.69454471
  Ewald energy   TEWEN  =    -36496.73885360
  -Hartree energ DENC   =    -19339.53764893
  -exchange      EXHF   =         0.00000000
  -V(xc)+E(xc)   XCENC  =      2547.43061912
  PAW double counting   =     45535.01588895   -47585.20232930
  entropy T*S    EENTRO =        -0.01377990
  eigenvalues    EBANDS =     10155.62355274
  atomic energy  EATOM  =     54546.76284294
  Solvation  Ediel_sol  =         0.00000000
  ---------------------------------------------------
  free energy    TOTEN  =     11307.03483673 eV

  energy without entropy =    11307.04861663  energy(sigma->0) =    11307.04172668


--------------------------------------------------------------------------------------------------------




--------------------------------------- Iteration      1(   2)  ---------------------------------------


     EDDAV:  cpu time    4.6794: real time    4.6906
    --------------------------------------------
      LOOP:  cpu time    4.6792: real time    4.6904

 eigenvalue-minimisations  :  1744
 total energy-change (2. order) :-0.9150106E+04  (-0.8367642E+04)
 number of electron     627.0000000 magnetization      67.5000000
 augmentation part      627.0000000 magnetization      67.5000000

 Free energy of the ion-electron system (eV)
  ---------------------------------------------------
  alpha Z        PSCENC =      1943.69454471
  Ewald energy   TEWEN  =    -36496.73885360
  -Hartree energ DENC   =    -19339.53764893
  -exchange      EXHF   =         0.00000000
  -V(xc)+E(xc)   XCENC  =      2547.43061912
  PAW double counting   =     45535.01588895   -47585.20232930
  entropy T*S    EENTRO =        -0.03242947
  eigenvalues    EBANDS =      1005.53618578
  atomic energy  EATOM  =     54546.76284294
  Solvation  Ediel_sol  =         0.00000000
  ---------------------------------------------------
  free energy    TOTEN  =      2156.92882020 eV

  energy without entropy =     2156.96124967  energy(sigma->0) =     2156.94503494


--------------------------------------------------------------------------------------------------------




--------------------------------------- Iteration      1(   3)  ---------------------------------------


     EDDAV:  cpu time    4.8747: real time    4.8864
    --------------------------------------------
      LOOP:  cpu time    4.8748: real time    4.8864

 eigenvalue-minimisations  :  1840
 total energy-change (2. order) :-0.2484090E+04  (-0.2100198E+04)
 number of electron     627.0000000 magnetization      67.5000000
 augmentation part      627.0000000 magnetization      67.5000000

 Free energy of the ion-electron system (eV)
  ---------------------------------------------------
  alpha Z        PSCENC =      1943.69454471
  Ewald energy   TEWEN  =    -36496.73885360
  -Hartree energ DENC   =    -19339.53764893
  -exchange      EXHF   =         0.00000000
  -V(xc)+E(xc)   XCENC  =      2547.43061912
  PAW double counting   =     45535.01588895   -47585.20232930
  entropy T*S    EENTRO =        -0.13577875
  eigenvalues    EBANDS =     -1478.45076102
  atomic energy  EATOM  =     54546.76284294
  Solvation  Ediel_sol  =         0.00000000
  ---------------------------------------------------
  free energy    TOTEN  =      -327.16147588 eV

  energy without entropy =     -327.02569713  energy(sigma->0) =     -327.09358651


--------------------------------------------------------------------------------------------------------




--------------------------------------- Iteration      1(   4)  ---------------------------------------


     EDDAV:  cpu time    5.0406: real time    5.0527
    --------------------------------------------
      LOOP:  cpu time    5.0406: real time    5.0527

 eigenvalue-minimisations  :  1920
 total energy-change (2. order) :-0.4076429E+03  (-0.3911539E+03)
 number of electron     627.0000000 magnetization      67.5000000
 augmentation part      627.0000000 magnetization      67.5000000

 Free energy of the ion-electron system (eV)
  ---------------------------------------------------
  alpha Z        PSCENC =      1943.69454471
  Ewald energy   TEWEN  =    -36496.73885360
  -Hartree energ DENC   =    -19339.53764893
  -exchange      EXHF   =         0.00000000
  -V(xc)+E(xc)   XCENC  =      2547.43061912
  PAW double counting   =     45535.01588895   -47585.20232930
  entropy T*S    EENTRO =        -0.33286051
  eigenvalues    EBANDS =     -1885.89659531
  atomic energy  EATOM  =     54546.76284294
  Solvation  Ediel_sol  =         0.00000000
  ---------------------------------------------------
  free energy    TOTEN  =      -734.80439192 eV

  energy without entropy =     -734.47153141  energy(sigma->0) =     -734.63796167


--------------------------------------------------------------------------------------------------------




--------------------------------------- Iteration      1(   5)  ---------------------------------------


     EDDAV:  cpu time    6.0678: real time    6.0823
    CHARGE:  cpu time    0.3208: real time    0.3216
    MIXING:  cpu time    0.0049: real time    0.0049
    --------------------------------------------
      LOOP:  cpu time    6.3932: real time    6.4085

 eigenvalue-minimisations  :  2416
 total energy-change (2. order) :-0.1975538E+02  (-0.1954221E+02)
 number of electron     626.9999920 magnetization      71.7909406
 augmentation part      185.4446522 magnetization      51.0437016

 Broyden mixing:
  rms(total) = 0.15910E+02    rms(broyden)= 0.15909E+02
  rms(prec ) = 0.17490E+02
  weight for this iteration     100.00

 Free energy of the ion-electron system (eV)
  ---------------------------------------------------
  alpha Z        PSCENC =      1943.69454471
  Ewald energy   TEWEN  =    -36496.73885360
  -Hartree energ DENC   =    -19339.53764893
  -exchange      EXHF   =         0.00000000
  -V(xc)+E(xc)   XCENC  =      2547.43061912
  PAW double counting   =     45535.01588895   -47585.20232930
  entropy T*S    EENTRO =        -0.32238334
  eigenvalues    EBANDS =     -1905.66245483
  atomic energy  EATOM  =     54546.76284294
  Solvation  Ediel_sol  =         0.00000000
  ---------------------------------------------------
  free energy    TOTEN  =      -754.55977427 eV

  energy without entropy =     -754.23739094  energy(sigma->0) =     -754.39858261


--------------------------------------------------------------------------------------------------------




--------------------------------------- Iteration      1(   6)  ---------------------------------------


    POTLOK:  cpu time    0.2267: real time    0.2273
    SETDIJ:  cpu time    0.0286: real time    0.0286
     EDDAV:  cpu time    6.2611: real time    6.2761
    CHARGE:  cpu time    0.3099: real time    0.3106
    MIXING:  cpu time    0.0050: real time    0.0050
    --------------------------------------------
      LOOP:  cpu time    6.8313: real time    6.8476

 eigenvalue-minimisations  :  2528
 total energy-change (2. order) :-0.1027936E+03  (-0.1771029E+03)
 number of electron     626.9999913 magnetization      68.2187817
 augmentation part      234.5241836 magnetization      63.1636205

 Broyden mixing:
  rms(total) = 0.29301E+02    rms(broyden)= 0.29300E+02
  rms(prec ) = 0.31729E+02
  weight for this iteration     100.00

 eigenvalues of (default mixing * dielectric matrix)
  average eigenvalue GAMMA=   0.2271
  0.2271

 Free energy of the ion-electron system (eV)
  ---------------------------------------------------
  alpha Z        PSCENC =      1943.69454471
  Ewald energy   TEWEN  =    -36496.73885360
  -Hartree energ DENC   =    -18437.97401925
  -exchange      EXHF   =         0.00000000
  -V(xc)+E(xc)   XCENC  =      2578.32927181
  PAW double counting   =     50290.06142300   -52046.85868643
  entropy T*S    EENTRO =        -0.10663021
  eigenvalues    EBANDS =     -3234.52325825
  atomic energy  EATOM  =     54546.76284294
  Solvation  Ediel_sol  =         0.00000000
  ---------------------------------------------------
  free energy    TOTEN  =      -857.35336529 eV

  energy without entropy =     -857.24673508  energy(sigma->0) =     -857.30005018


--------------------------------------------------------------------------------------------------------




--------------------------------------- Iteration      1(   7)  ---------------------------------------


    POTLOK:  cpu time    0.2258: real time    0.2264
    SETDIJ:  cpu time    0.0288: real time    0.0289
     EDDAV:  cpu time    5.6756: real time    5.6891
    CHARGE:  cpu time    0.3082: real time    0.3090
    MIXING:  cpu time    0.0057: real time    0.0057
    --------------------------------------------
      LOOP:  cpu time    6.2441: real time    6.2590

 eigenvalue-minimisations  :  2240
 total energy-change (2. order) : 0.1754508E+03  (-0.5443979E+02)
 number of electron     626.9999896 magnetization      63.8893136
 augmentation part      230.7640472 magnetization      59.5991541

 Broyden mixing:
  rms(total) = 0.17102E+02    rms(broyden)= 0.17101E+02
  rms(prec ) = 0.19565E+02
  weight for this iteration     100.00

 eigenvalues of (default mixing * dielectric matrix)
  average eigenvalue GAMMA=   0.3542
  0.3542  0.3542

 Free energy of the ion-electron system (eV)
  ---------------------------------------------------
  alpha Z        PSCENC =      1943.69454471
  Ewald energy   TEWEN  =    -36496.73885360
  -Hartree energ DENC   =    -18658.67340254
  -exchange      EXHF   =         0.00000000
  -V(xc)+E(xc)   XCENC  =      2555.45158434
  PAW double counting   =     51909.17295436   -53811.83588822
  entropy T*S    EENTRO =        -0.04109790
  eigenvalues    EBANDS =     -2669.69522260
  atomic energy  EATOM  =     54546.76284294
  Solvation  Ediel_sol  =         0.00000000
  ---------------------------------------------------
  free energy    TOTEN  =      -681.90253852 eV

  energy without entropy =     -681.86144061  energy(sigma->0) =     -681.88198956


--------------------------------------------------------------------------------------------------------




--------------------------------------- Iteration      1(   8)  ---------------------------------------


    POTLOK:  cpu time    0.2262: real time    0.2268
    SETDIJ:  cpu time    0.0284: real time    0.0285
     EDDAV:  cpu time    5.9394: real time    5.9536
    CHARGE:  cpu time    0.3084: real time    0.3091
    MIXING:  cpu time    0.0053: real time    0.0053
    --------------------------------------------
      LOOP:  cpu time    6.5078: real time    6.5233

 eigenvalue-minimisations  :  2368
 total energy-change (2. order) :-0.1097012E+03  (-0.3339929E+02)
 number of electron     626.9999898 magnetization      58.6322791
 augmentation part      208.6335974 magnetization      56.8401969

 Broyden mixing:
  rms(total) = 0.21225E+02    rms(broyden)= 0.21224E+02
  rms(prec ) = 0.31188E+02
  weight for this iteration     100.00

 eigenvalues of (default mixing * dielectric matrix)
  average eigenvalue GAMMA=   0.3675
  0.4818  0.4818  0.1388

 Free energy of the ion-electron system (eV)
  ---------------------------------------------------
  alpha Z        PSCENC =      1943.69454471
  Ewald energy   TEWEN  =    -36496.73885360
  -Hartree energ DENC   =    -18885.83271320
  -exchange      EXHF   =         0.00000000
  -V(xc)+E(xc)   XCENC  =      2544.74439888
  PAW double counting   =     53377.98977528   -55415.59386539
  entropy T*S    EENTRO =        -0.01111768
  eigenvalues    EBANDS =     -2406.61874343
  atomic energy  EATOM  =     54546.76284294
  Solvation  Ediel_sol  =         0.00000000
  ---------------------------------------------------
  free energy    TOTEN  =      -791.60373148 eV

  energy without entropy =     -791.59261380  energy(sigma->0) =     -791.59817264


--------------------------------------------------------------------------------------------------------




--------------------------------------- Iteration      1(   9)  ---------------------------------------


    POTLOK:  cpu time    0.2259: real time    0.2265
    SETDIJ:  cpu time    0.0301: real time    0.0302
     EDDAV:  cpu time    5.4511: real time    5.4641
    CHARGE:  cpu time    0.3087: real time    0.3094
    MIXING:  cpu time    0.0060: real time    0.0060
    --------------------------------------------
      LOOP:  cpu time    6.0218: real time    6.0362

 eigenvalue-minimisations  :  2128
 total energy-change (2. order) : 0.1256390E+03  (-0.2899119E+02)
 number of electron     626.9999917 magnetization      51.6043238
 augmentation part      198.8377704 magnetization      47.4930551

 Broyden mixing:
  rms(total) = 0.15823E+02    rms(broyden)= 0.15821E+02
  rms(prec ) = 0.18546E+02
  weight for this iteration     100.00

 eigenvalues of (default mixing * dielectric matrix)
  average eigenvalue GAMMA=   0.3856
  0.5902  0.5902  0.2521  0.1100

 Free energy of the ion-electron system (eV)
  ---------------------------------------------------
  alpha Z        PSCENC =      1943.69454471
  Ewald energy   TEWEN  =    -36496.73885360
  -Hartree energ DENC   =    -18891.25682102
  -exchange      EXHF   =         0.00000000
  -V(xc)+E(xc)   XCENC  =      2539.88701232
  PAW double counting   =     54615.96675069   -56696.22621571
  entropy T*S    EENTRO =        -0.11364610
  eigenvalues    EBANDS =     -2227.94030352
  atomic energy  EATOM  =     54546.76284294
  Solvation  Ediel_sol  =         0.00000000
  ---------------------------------------------------
  free energy    TOTEN  =      -665.96468929 eV

  energy without entropy =     -665.85104319  energy(sigma->0) =     -665.90786624


--------------------------------------------------------------------------------------------------------




--------------------------------------- Iteration      1(  10)  ---------------------------------------


    POTLOK:  cpu time    0.2257: real time    0.2262
    SETDIJ:  cpu time    0.0289: real time    0.0290
     EDDAV:  cpu time    5.7432: real time    5.7569
    CHARGE:  cpu time    0.3147: real time    0.3154
    MIXING:  cpu time    0.0062: real time    0.0062
    --------------------------------------------
      LOOP:  cpu time    6.3187: real time    6.3338

 eigenvalue-minimisations  :  2272
 total energy-change (2. order) : 0.3001759E+02  (-0.1671436E+02)
 number of electron     626.9999934 magnetization      48.3768643
 augmentation part      203.1657662 magnetization      38.1722307

 Broyden mixing:
  rms(total) = 0.14385E+02    rms(broyden)= 0.14384E+02
  rms(prec ) = 0.17096E+02
  weight for this iteration     100.00

 eigenvalues of (default mixing * dielectric matrix)
  average eigenvalue GAMMA=   0.3673
  0.6247  0.6247  0.2417  0.2189  0.1264

 Free energy of the ion-electron system (eV)
  ---------------------------------------------------
  alpha Z        PSCENC =      1943.69454471
  Ewald energy   TEWEN  =    -36496.73885360
  -Hartree energ DENC   =    -18756.54171998
  -exchange      EXHF   =         0.00000000
  -V(xc)+E(xc)   XCENC  =      2535.69881084
  PAW double counting   =     56315.34786834   -58409.18490078
  entropy T*S    EENTRO =        -0.09569014
  eigenvalues    EBANDS =     -2314.88999789
  atomic energy  EATOM  =     54546.76284294
  Solvation  Ediel_sol  =         0.00000000
  ---------------------------------------------------
  free energy    TOTEN  =      -635.94709557 eV

  energy without entropy =     -635.85140543  energy(sigma->0) =     -635.89925050


--------------------------------------------------------------------------------------------------------




--------------------------------------- Iteration      1(  11)  ---------------------------------------


    POTLOK:  cpu time    0.2267: real time    0.2272
    SETDIJ:  cpu time    0.0285: real time    0.0286
     EDDAV:  cpu time    5.2994: real time    5.3120
    CHARGE:  cpu time    0.3082: real time    0.3089
    MIXING:  cpu time    0.0060: real time    0.0060
    --------------------------------------------
      LOOP:  cpu time    5.8687: real time    5.8827

 eigenvalue-minimisations  :  2064
 total energy-change (2. order) : 0.6014313E+02  (-0.1622741E+02)
 number of electron     626.9999907 magnetization      42.9265799
 augmentation part      208.8126918 magnetization      37.6432137

 Broyden mixing:
  rms(total) = 0.68196E+01    rms(broyden)= 0.68186E+01
  rms(prec ) = 0.84566E+01
  weight for this iteration     100.00

 eigenvalues of (default mixing * dielectric matrix)
  average eigenvalue GAMMA=   0.4522
  0.8863  0.8863  0.3339  0.3339  0.1180  0.1547

 Free energy of the ion-electron system (eV)
  ---------------------------------------------------
  alpha Z        PSCENC =      1943.69454471
  Ewald energy   TEWEN  =    -36496.73885360
  -Hartree energ DENC   =    -18746.45820995
  -exchange      EXHF   =         0.00000000
  -V(xc)+E(xc)   XCENC  =      2534.58082033
  PAW double counting   =     57347.85939448   -59466.11192112
  entropy T*S    EENTRO =        -0.07470653
  eigenvalues    EBANDS =     -2239.31787685
  atomic energy  EATOM  =     54546.76284294
  Solvation  Ediel_sol  =         0.00000000
  ---------------------------------------------------
  free energy    TOTEN  =      -575.80396561 eV

  energy without entropy =     -575.72925907  energy(sigma->0) =     -575.76661234


--------------------------------------------------------------------------------------------------------




--------------------------------------- Iteration      1(  12)  ---------------------------------------


    POTLOK:  cpu time    0.2257: real time    0.2262
    SETDIJ:  cpu time    0.0286: real time    0.0287
     EDDAV:  cpu time    5.5268: real time    5.5399
    CHARGE:  cpu time    0.3090: real time    0.3097
    MIXING:  cpu time    0.0063: real time    0.0063
    --------------------------------------------
      LOOP:  cpu time    6.0964: real time    6.1109

 eigenvalue-minimisations  :  2176
 total energy-change (2. order) :-0.9219532E+01  (-0.1506643E+02)
 number of electron     626.9999920 magnetization      39.7296996
 augmentation part      204.1404478 magnetization      33.4853856

 Broyden mixing:
  rms(total) = 0.11084E+02    rms(broyden)= 0.11084E+02
  rms(prec ) = 0.12806E+02
  weight for this iteration     100.00

 eigenvalues of (default mixing * dielectric matrix)
  average eigenvalue GAMMA=   0.4444
  0.9672  0.9672  0.3573  0.3573  0.2072  0.1180  0.1366

 Free energy of the ion-electron system (eV)
  ---------------------------------------------------
  alpha Z        PSCENC =      1943.69454471
  Ewald energy   TEWEN  =    -36496.73885360
  -Hartree energ DENC   =    -18798.01509162
  -exchange      EXHF   =         0.00000000
  -V(xc)+E(xc)   XCENC  =      2534.94334214
  PAW double counting   =     58113.67306382   -60260.75607119
  entropy T*S    EENTRO =        -0.09512829
  eigenvalues    EBANDS =     -2168.49214612
  atomic energy  EATOM  =     54546.76284294
  Solvation  Ediel_sol  =         0.00000000
  ---------------------------------------------------
  free energy    TOTEN  =      -585.02349721 eV

  energy without entropy =     -584.92836892  energy(sigma->0) =     -584.97593306


--------------------------------------------------------------------------------------------------------




--------------------------------------- Iteration      1(  13)  ---------------------------------------


    POTLOK:  cpu time    0.2258: real time    0.2263
    SETDIJ:  cpu time    0.0287: real time    0.0288
     EDDAV:  cpu time    5.7827: real time    5.7965
    CHARGE:  cpu time    0.3086: real time    0.3094
    MIXING:  cpu time    0.0069: real time    0.0069
    --------------------------------------------
      LOOP:  cpu time    6.3527: real time    6.3679

 eigenvalue-minimisations  :  2304
 total energy-change (2. order) : 0.1809717E+02  (-0.6779676E+01)
 number of electron     626.9999897 magnetization      37.3271119
 augmentation part      205.8707200 magnetization      33.2205481

 Broyden mixing:
  rms(total) = 0.56466E+01    rms(broyden)= 0.56457E+01
  rms(prec ) = 0.64119E+01
  weight for this iteration     100.00

 eigenvalues of (default mixing * dielectric matrix)
  average eigenvalue GAMMA=   0.4227
  0.9934  0.9934  0.3579  0.3579  0.2803  0.1174  0.1407  0.1407

 Free energy of the ion-electron system (eV)
  ---------------------------------------------------
  alpha Z        PSCENC =      1943.69454471
  Ewald energy   TEWEN  =    -36496.73885360
  -Hartree energ DENC   =    -18817.56366726
  -exchange      EXHF   =         0.00000000
  -V(xc)+E(xc)   XCENC  =      2534.29664989
  PAW double counting   =     58435.24760438   -60588.53109608
  entropy T*S    EENTRO =        -0.03493193
  eigenvalues    EBANDS =     -2124.05942283
  atomic energy  EATOM  =     54546.76284294
  Solvation  Ediel_sol  =         0.00000000
  ---------------------------------------------------
  free energy    TOTEN  =      -566.92632978 eV

  energy without entropy =     -566.89139785  energy(sigma->0) =     -566.90886382


--------------------------------------------------------------------------------------------------------




--------------------------------------- Iteration      1(  14)  ---------------------------------------


    POTLOK:  cpu time    0.2259: real time    0.2264
    SETDIJ:  cpu time    0.0286: real time    0.0286
     EDDAV:  cpu time    5.8770: real time    5.8911
    CHARGE:  cpu time    0.3084: real time    0.3092
    MIXING:  cpu time    0.0068: real time    0.0068
    --------------------------------------------
      LOOP:  cpu time    6.4467: real time    6.4621

 eigenvalue-minimisations  :  2352
 total energy-change (2. order) : 0.1320121E+02  (-0.2658417E+01)
 number of electron     626.9999900 magnetization      36.0835707
 augmentation part      208.6782936 magnetization      32.0335032

 Broyden mixing:
  rms(total) = 0.41195E+01    rms(broyden)= 0.41188E+01
  rms(prec ) = 0.45484E+01
  weight for this iteration     100.00

 eigenvalues of (default mixing * dielectric matrix)
  average eigenvalue GAMMA=   0.4295
  1.0459  1.0459  0.3873  0.3873  0.2845  0.2845  0.1170  0.1567  0.1567

 Free energy of the ion-electron system (eV)
  ---------------------------------------------------
  alpha Z        PSCENC =      1943.69454471
  Ewald energy   TEWEN  =    -36496.73885360
  -Hartree energ DENC   =    -18797.03764918
  -exchange      EXHF   =         0.00000000
  -V(xc)+E(xc)   XCENC  =      2533.59025015
  PAW double counting   =     58723.63142523   -60873.78879150
  entropy T*S    EENTRO =        -0.04457311
  eigenvalues    EBANDS =     -2133.79431491
  atomic energy  EATOM  =     54546.76284294
  Solvation  Ediel_sol  =         0.00000000
  ---------------------------------------------------
  free energy    TOTEN  =      -553.72511928 eV

  energy without entropy =     -553.68054617  energy(sigma->0) =     -553.70283273


--------------------------------------------------------------------------------------------------------




--------------------------------------- Iteration      1(  15)  ---------------------------------------


    POTLOK:  cpu time    0.2256: real time    0.2262
    SETDIJ:  cpu time    0.0293: real time    0.0294
     EDDAV:  cpu time    5.7810: real time    5.7948
    CHARGE:  cpu time    0.3086: real time    0.3093
    MIXING:  cpu time    0.0073: real time    0.0073
    --------------------------------------------
      LOOP:  cpu time    6.3518: real time    6.3670

 eigenvalue-minimisations  :  2304
 total energy-change (2. order) :-0.2407370E+01  (-0.2991452E+01)
 number of electron     626.9999900 magnetization      35.3607244
 augmentation part      207.1644688 magnetization      30.7586960

 Broyden mixing:
  rms(total) = 0.36707E+01    rms(broyden)= 0.36702E+01
  rms(prec ) = 0.40902E+01
  weight for this iteration     100.00

 eigenvalues of (default mixing * dielectric matrix)
  average eigenvalue GAMMA=   0.4354
  1.0346  1.0346  0.5120  0.5120  0.3382  0.3382  0.1174  0.1560  0.1560  0.1546

 Free energy of the ion-electron system (eV)
  ---------------------------------------------------
  alpha Z        PSCENC =      1943.69454471
  Ewald energy   TEWEN  =    -36496.73885360
  -Hartree energ DENC   =    -18824.11687538
  -exchange      EXHF   =         0.00000000
  -V(xc)+E(xc)   XCENC  =      2533.11528172
  PAW double counting   =     58659.44946537   -60809.25903757
  entropy T*S    EENTRO =        -0.03937931
  eigenvalues    EBANDS =     -2109.00047838
  atomic energy  EATOM  =     54546.76284294
  Solvation  Ediel_sol  =         0.00000000
  ---------------------------------------------------
  free energy    TOTEN  =      -556.13248951 eV

  energy without entropy =     -556.09311020  energy(sigma->0) =     -556.11279985


--------------------------------------------------------------------------------------------------------




--------------------------------------- Iteration      1(  16)  ---------------------------------------


    POTLOK:  cpu time    0.2255: real time    0.2260
    SETDIJ:  cpu time    0.0285: real time    0.0285
     EDDAV:  cpu time    5.9107: real time    5.9248
    CHARGE:  cpu time    0.3125: real time    0.3132
    MIXING:  cpu time    0.0073: real time    0.0073
    --------------------------------------------
      LOOP:  cpu time    6.4844: real time    6.4999

 eigenvalue-minimisations  :  2352
 total energy-change (2. order) : 0.9004213E+00  (-0.7289349E+00)
 number of electron     626.9999901 magnetization      34.0589477
 augmentation part      206.0887469 magnetization      29.4471651

 Broyden mixing:
  rms(total) = 0.26518E+01    rms(broyden)= 0.26515E+01
  rms(prec ) = 0.28917E+01
  weight for this iteration     100.00

 eigenvalues of (default mixing * dielectric matrix)
  average eigenvalue GAMMA=   0.4342
  1.0024  1.0024  0.6059  0.6059  0.3550  0.3550  0.2313  0.1171  0.1821  0.1597
  0.1597

 Free energy of the ion-electron system (eV)
  ---------------------------------------------------
  alpha Z        PSCENC =      1943.69454471
  Ewald energy   TEWEN  =    -36496.73885360
  -Hartree energ DENC   =    -18846.30168224
  -exchange      EXHF   =         0.00000000
  -V(xc)+E(xc)   XCENC  =      2532.54879012
  PAW double counting   =     58612.60593909   -60764.69837633
  entropy T*S    EENTRO =        -0.06908715
  eigenvalues    EBANDS =     -2083.03618578
  atomic energy  EATOM  =     54546.76284294
  Solvation  Ediel_sol  =         0.00000000
  ---------------------------------------------------
  free energy    TOTEN  =      -555.23206825 eV

  energy without entropy =     -555.16298110  energy(sigma->0) =     -555.19752467


--------------------------------------------------------------------------------------------------------




--------------------------------------- Iteration      1(  17)  ---------------------------------------


    POTLOK:  cpu time    0.2256: real time    0.2261
    SETDIJ:  cpu time    0.0287: real time    0.0288
     EDDAV:  cpu time    6.0523: real time    6.0668
    CHARGE:  cpu time    0.3123: real time    0.3131
    MIXING:  cpu time    0.0075: real time    0.0075
    --------------------------------------------
      LOOP:  cpu time    6.6265: real time    6.6423

 eigenvalue-minimisations  :  2416
 total energy-change (2. order) :-0.2079321E+01  (-0.4286618E+00)
 number of electron     626.9999902 magnetization      32.5609248
 augmentation part      205.9013085 magnetization      28.1704298

 Broyden mixing:
  rms(total) = 0.25371E+01    rms(broyden)= 0.25368E+01
  rms(prec ) = 0.27821E+01
  weight for this iteration     100.00

 eigenvalues of (default mixing * dielectric matrix)
  average eigenvalue GAMMA=   0.4309
  0.9938  0.9938  0.6812  0.6812  0.3695  0.3695  0.2503  0.2503  0.1172  0.1563
  0.1563  0.1520

 Free energy of the ion-electron system (eV)
  ---------------------------------------------------
  alpha Z        PSCENC =      1943.69454471
  Ewald energy   TEWEN  =    -36496.73885360
  -Hartree energ DENC   =    -18848.29751259
  -exchange      EXHF   =         0.00000000
  -V(xc)+E(xc)   XCENC  =      2531.55742936
  PAW double counting   =     58687.24346737   -60836.29345834
  entropy T*S    EENTRO =        -0.06644191
  eigenvalues    EBANDS =     -2085.17340683
  atomic energy  EATOM  =     54546.76284294
  Solvation  Ediel_sol  =         0.00000000
  ---------------------------------------------------
  free energy    TOTEN  =      -557.31138889 eV

  energy without entropy =     -557.24494699  energy(sigma->0) =     -557.27816794


--------------------------------------------------------------------------------------------------------




--------------------------------------- Iteration      1(  18)  ---------------------------------------


    POTLOK:  cpu time    0.2255: real time    0.2260
    SETDIJ:  cpu time    0.0286: real time    0.0287
     EDDAV:  cpu time    5.6885: real time    5.7021
    CHARGE:  cpu time    0.3116: real time    0.3124
    MIXING:  cpu time    0.0084: real time    0.0084
    --------------------------------------------
      LOOP:  cpu time    6.2625: real time    6.2775

 eigenvalue-minimisations  :  2240
 total energy-change (2. order) :-0.9416334E+00  (-0.3160084E+00)
 number of electron     626.9999901 magnetization      29.4608065
 augmentation part      206.0787227 magnetization      25.2119280

 Broyden mixing:
  rms(total) = 0.21218E+01    rms(broyden)= 0.21215E+01
  rms(prec ) = 0.23684E+01
  weight for this iteration     100.00

 eigenvalues of (default mixing * dielectric matrix)
  average eigenvalue GAMMA=   0.4595
  1.0634  1.0634  0.8123  0.8123  0.4131  0.4131  0.3254  0.3254  0.1171  0.1594
  0.1594  0.1545  0.1545

 Free energy of the ion-electron system (eV)
  ---------------------------------------------------
  alpha Z        PSCENC =      1943.69454471
  Ewald energy   TEWEN  =    -36496.73885360
  -Hartree energ DENC   =    -18847.50807869
  -exchange      EXHF   =         0.00000000
  -V(xc)+E(xc)   XCENC  =      2530.79254324
  PAW double counting   =     58798.24659992   -60944.05366077
  entropy T*S    EENTRO =        -0.06022952
  eigenvalues    EBANDS =     -2089.38873048
  atomic energy  EATOM  =     54546.76284294
  Solvation  Ediel_sol  =         0.00000000
  ---------------------------------------------------
  free energy    TOTEN  =      -558.25302226 eV

  energy without entropy =     -558.19279274  energy(sigma->0) =     -558.22290750


--------------------------------------------------------------------------------------------------------




--------------------------------------- Iteration      1(  19)  ---------------------------------------


    POTLOK:  cpu time    0.2256: real time    0.2262
    SETDIJ:  cpu time    0.0286: real time    0.0286
     EDDAV:  cpu time    5.7636: real time    5.7774
    CHARGE:  cpu time    0.3127: real time    0.3135
    MIXING:  cpu time    0.0082: real time    0.0082
    --------------------------------------------
      LOOP:  cpu time    6.3387: real time    6.3539

 eigenvalue-minimisations  :  2256
 total energy-change (2. order) :-0.2263811E+01  (-0.2836614E+00)
 number of electron     626.9999901 magnetization      27.2277020
 augmentation part      206.1736273 magnetization      23.0732011

 Broyden mixing:
  rms(total) = 0.19577E+01    rms(broyden)= 0.19574E+01
  rms(prec ) = 0.22429E+01
  weight for this iteration     100.00

 eigenvalues of (default mixing * dielectric matrix)
  average eigenvalue GAMMA=   0.4698
  1.1659  1.1659  0.8271  0.8271  0.4534  0.4534  0.3361  0.3361  0.2645  0.1172
  0.1613  0.1613  0.1541  0.1541

 Free energy of the ion-electron system (eV)
  ---------------------------------------------------
  alpha Z        PSCENC =      1943.69454471
  Ewald energy   TEWEN  =    -36496.73885360
  -Hartree energ DENC   =    -18849.18762641
  -exchange      EXHF   =         0.00000000
  -V(xc)+E(xc)   XCENC  =      2529.68368205
  PAW double counting   =     59056.34088876   -61198.68865609
  entropy T*S    EENTRO =        -0.07301367
  eigenvalues    EBANDS =     -2092.31064240
  atomic energy  EATOM  =     54546.76284294
  Solvation  Ediel_sol  =         0.00000000
  ---------------------------------------------------
  free energy    TOTEN  =      -560.51683372 eV

  energy without entropy =     -560.44382005  energy(sigma->0) =     -560.48032688


--------------------------------------------------------------------------------------------------------




--------------------------------------- Iteration      1(  20)  ---------------------------------------


    POTLOK:  cpu time    0.2272: real time    0.2277
    SETDIJ:  cpu time    0.0287: real time    0.0287
     EDDAV:  cpu time    5.7093: real time    5.7229
    CHARGE:  cpu time    0.3126: real time    0.3134
    MIXING:  cpu time    0.0083: real time    0.0083
    --------------------------------------------
      LOOP:  cpu time    6.2861: real time    6.3011

 eigenvalue-minimisations  :  2240
 total energy-change (2. order) :-0.1216136E+01  (-0.2857205E+00)
 number of electron     626.9999902 magnetization      21.4456651
 augmentation part      206.0301272 magnetization      17.3581967

 Broyden mixing:
  rms(total) = 0.17049E+01    rms(broyden)= 0.17045E+01
  rms(prec ) = 0.19165E+01
  weight for this iteration     100.00

 eigenvalues of (default mixing * dielectric matrix)
  average eigenvalue GAMMA=   0.5100
  1.3727  1.3727  0.8269  0.8269  0.5979  0.5979  0.4558  0.3522  0.3522  0.1172
  0.1608  0.1608  0.1574  0.1574  0.1410

 Free energy of the ion-electron system (eV)
  ---------------------------------------------------
  alpha Z        PSCENC =      1943.69454471
  Ewald energy   TEWEN  =    -36496.73885360
  -Hartree energ DENC   =    -18852.24616143
  -exchange      EXHF   =         0.00000000
  -V(xc)+E(xc)   XCENC  =      2529.01396088
  PAW double counting   =     59246.33679022   -61388.36826493
  entropy T*S    EENTRO =        -0.05015193
  eigenvalues    EBANDS =     -2090.13767654
  atomic energy  EATOM  =     54546.76284294
  Solvation  Ediel_sol  =         0.00000000
  ---------------------------------------------------
  free energy    TOTEN  =      -561.73296968 eV

  energy without entropy =     -561.68281776  energy(sigma->0) =     -561.70789372


--------------------------------------------------------------------------------------------------------




--------------------------------------- Iteration      1(  21)  ---------------------------------------


    POTLOK:  cpu time    0.2258: real time    0.2263
    SETDIJ:  cpu time    0.0350: real time    0.0351
     EDDAV:  cpu time    5.8327: real time    5.8467
    CHARGE:  cpu time    0.3170: real time    0.3178
    MIXING:  cpu time    0.0095: real time    0.0096
    --------------------------------------------
      LOOP:  cpu time    6.4200: real time    6.4354

 eigenvalue-minimisations  :  2256
 total energy-change (2. order) :-0.2363691E+01  (-0.2974468E+00)
 number of electron     626.9999902 magnetization      20.3772820
 augmentation part      206.2580661 magnetization      16.6465233

 Broyden mixing:
  rms(total) = 0.16485E+01    rms(broyden)= 0.16481E+01
  rms(prec ) = 0.17964E+01
  weight for this iteration     100.00

 eigenvalues of (default mixing * dielectric matrix)
  average eigenvalue GAMMA=   0.4893
  1.3570  1.3570  0.8115  0.8115  0.6275  0.6275  0.4570  0.3531  0.3531  0.1172
  0.1715  0.1715  0.1580  0.1580  0.1581  0.1397

 Free energy of the ion-electron system (eV)
  ---------------------------------------------------
  alpha Z        PSCENC =      1943.69454471
  Ewald energy   TEWEN  =    -36496.73885360
  -Hartree energ DENC   =    -18851.36082665
  -exchange      EXHF   =         0.00000000
  -V(xc)+E(xc)   XCENC  =      2527.58430462
  PAW double counting   =     59746.53522010   -61887.45112684
  entropy T*S    EENTRO =        -0.06420583
  eigenvalues    EBANDS =     -2093.05855965
  atomic energy  EATOM  =     54546.76284294
  Solvation  Ediel_sol  =         0.00000000
  ---------------------------------------------------
  free energy    TOTEN  =      -564.09666021 eV

  energy without entropy =     -564.03245437  energy(sigma->0) =     -564.06455729


--------------------------------------------------------------------------------------------------------




--------------------------------------- Iteration      1(  22)  ---------------------------------------


    POTLOK:  cpu time    0.2285: real time    0.2290
    SETDIJ:  cpu time    0.0285: real time    0.0286
     EDDAV:  cpu time    5.6575: real time    5.6710
    CHARGE:  cpu time    0.3203: real time    0.3210
    MIXING:  cpu time    0.0095: real time    0.0095
    --------------------------------------------
      LOOP:  cpu time    6.2443: real time    6.2592

 eigenvalue-minimisations  :  2192
 total energy-change (2. order) :-0.1340749E+00  (-0.2233261E+00)
 number of electron     626.9999902 magnetization      18.4735262
 augmentation part      206.4458176 magnetization      14.4872851

 Broyden mixing:
  rms(total) = 0.11396E+01    rms(broyden)= 0.11394E+01
  rms(prec ) = 0.12307E+01
  weight for this iteration     100.00

 eigenvalues of (default mixing * dielectric matrix)
  average eigenvalue GAMMA=   0.5055
  1.3253  1.3253  1.0565  0.8225  0.8225  0.5037  0.4771  0.4771  0.3575  0.3575
  0.1965  0.1172  0.1592  0.1592  0.1602  0.1383  0.1383

 Free energy of the ion-electron system (eV)
  ---------------------------------------------------
  alpha Z        PSCENC =      1943.69454471
  Ewald energy   TEWEN  =    -36496.73885360
  -Hartree energ DENC   =    -18849.36946802
  -exchange      EXHF   =         0.00000000
  -V(xc)+E(xc)   XCENC  =      2527.31572634
  PAW double counting   =     59839.63902845   -61980.62607484
  entropy T*S    EENTRO =        -0.05646128
  eigenvalues    EBANDS =     -2094.85201981
  atomic energy  EATOM  =     54546.76284294
  Solvation  Ediel_sol  =         0.00000000
  ---------------------------------------------------
  free energy    TOTEN  =      -564.23073511 eV

  energy without entropy =     -564.17427382  energy(sigma->0) =     -564.20250447


--------------------------------------------------------------------------------------------------------




--------------------------------------- Iteration      1(  23)  ---------------------------------------


    POTLOK:  cpu time    0.2309: real time    0.2315
    SETDIJ:  cpu time    0.0285: real time    0.0286
     EDDAV:  cpu time    5.6304: real time    5.6439
    CHARGE:  cpu time    0.3207: real time    0.3215
    MIXING:  cpu time    0.0092: real time    0.0092
    --------------------------------------------
      LOOP:  cpu time    6.2198: real time    6.2346

 eigenvalue-minimisations  :  2176
 total energy-change (2. order) :-0.7916234E+00  (-0.9054025E-01)
 number of electron     626.9999901 magnetization      17.1317462
 augmentation part      206.9029249 magnetization      13.1184872

 Broyden mixing:
  rms(total) = 0.10010E+01    rms(broyden)= 0.10009E+01
  rms(prec ) = 0.10894E+01
  weight for this iteration     100.00

 eigenvalues of (default mixing * dielectric matrix)
  average eigenvalue GAMMA=   0.5442
  1.5468  1.4079  1.4079  0.8809  0.8809  0.5226  0.5226  0.4401  0.4401  0.3528
  0.3528  0.1172  0.1597  0.1597  0.1659  0.1659  0.1401  0.1320

 Free energy of the ion-electron system (eV)
  ---------------------------------------------------
  alpha Z        PSCENC =      1943.69454471
  Ewald energy   TEWEN  =    -36496.73885360
  -Hartree energ DENC   =    -18841.48808125
  -exchange      EXHF   =         0.00000000
  -V(xc)+E(xc)   XCENC  =      2526.88038283
  PAW double counting   =     60038.60305190   -62181.90948373
  entropy T*S    EENTRO =        -0.04640727
  eigenvalues    EBANDS =     -2100.78035499
  atomic energy  EATOM  =     54546.76284294
  Solvation  Ediel_sol  =         0.00000000
  ---------------------------------------------------
  free energy    TOTEN  =      -565.02235846 eV

  energy without entropy =     -564.97595119  energy(sigma->0) =     -564.99915483


--------------------------------------------------------------------------------------------------------




--------------------------------------- Iteration      1(  24)  ---------------------------------------


    POTLOK:  cpu time    0.2256: real time    0.2261
    SETDIJ:  cpu time    0.0285: real time    0.0286
     EDDAV:  cpu time    5.6097: real time    5.6230
    CHARGE:  cpu time    0.3258: real time    0.3265
    MIXING:  cpu time    0.0105: real time    0.0105
    --------------------------------------------
      LOOP:  cpu time    6.2000: real time    6.2147

 eigenvalue-minimisations  :  2176
 total energy-change (2. order) :-0.7693587E+00  (-0.9792739E-01)
 number of electron     626.9999902 magnetization      16.2367549
 augmentation part      207.1055479 magnetization      12.2703963

 Broyden mixing:
  rms(total) = 0.10971E+01    rms(broyden)= 0.10969E+01
  rms(prec ) = 0.12489E+01
[...]
   0.284E+02 -.145E+02 0.361E+03   -.304E+02 0.159E+02 -.383E+03   0.203E+01 -.133E+01 0.225E+02   -.161E-02 -.340E-01 0.197E-01
   -.259E+02 0.149E+02 -.356E+03   0.279E+02 -.164E+02 0.376E+03   -.198E+01 0.142E+01 -.208E+02   0.347E-02 -.168E-01 -.385E-03
   -.150E+01 0.340E+02 0.349E+03   0.166E+01 -.366E+02 -.370E+03   -.151E+00 0.266E+01 0.210E+02   -.166E-01 0.161E-01 0.186E-01
   -.266E+02 0.223E+02 -.340E+03   0.284E+02 -.233E+02 0.362E+03   -.186E+01 0.102E+01 -.223E+02   -.130E-02 -.240E-01 0.200E-01
   0.235E+01 0.353E+02 0.336E+03   -.214E+01 -.381E+02 -.357E+03   -.210E+00 0.285E+01 0.210E+02   0.487E-02 0.163E-02 -.215E-01
   0.307E+02 0.335E+02 -.364E+03   -.339E+02 -.356E+02 0.384E+03   0.327E+01 0.212E+01 -.199E+02   -.897E-02 -.913E-02 -.253E-01
   -.291E+02 -.180E+02 0.371E+03   0.327E+02 0.204E+02 -.391E+03   -.362E+01 -.245E+01 0.203E+02   -.191E-01 -.988E-02 -.267E-02
 -----------------------------------------------------------------------------------------------
   0.173E-02 0.109E-02 -.351E-02   -.412E-12 -.277E-12 0.227E-12   0.133E-14 0.444E-14 -.142E-13   0.119E-06 0.154E-06 0.157E-06
 
 
 POSITION                                       TOTAL-FORCE (eV/Angst)
 -----------------------------------------------------------------------------------
      4.35249      7.13200      7.20559         0.003749     -0.009501     -0.000145
      1.45162      0.83537     11.97420        -0.003102     -0.000065     -0.000684
      0.00934      1.61713      2.39426        -0.001610     -0.002463     -0.000993
     -1.37417      2.43567      7.18252         0.001610      0.002463      0.000993
     -1.46233      4.21282      2.39674        -0.003749      0.009501      0.000145
      3.00408      1.61201      2.39761         0.002005     -0.009787     -0.000506
      0.10686      5.01153      7.18581        -0.010755      0.005520      0.002159
      1.46414      5.68585     11.98074        -0.000000      0.000000      0.000000
      4.07786      2.47733      7.20208        -0.002005      0.009787      0.000506
      5.66843      3.28085     11.98466         0.003102      0.000065      0.000684
      2.78330      6.33328      2.41651         0.010755     -0.005520     -0.002159
     -4.14495      7.28122     14.34302        -0.000494      0.000036     -0.001935
      1.41404      0.81752      4.82294         0.004126      0.001590      0.003162
      0.03710      1.64674      9.59237        -0.003205      0.005083     -0.001546
      7.08295      2.46947     14.36648         0.003205     -0.005083      0.001546
      0.04841      3.23468      4.79721        -0.001328      0.000120      0.001822
     -1.37354      4.05395      9.59556         0.000494     -0.000036      0.001935
      5.67793      4.90983     14.36719        -0.002389     -0.001473     -0.001480
     -1.37282      5.67007      4.82030         0.001076     -0.000145      0.004517
     -2.74966      6.46187      9.59430         0.002389      0.001473      0.001480
     -1.37135      7.25430      0.01864         0.002414      0.005099      0.004732
      4.24989      0.82996      4.82205         0.001957     -0.000010      0.002401
      2.85120      1.64768      9.59596        -0.001086     -0.000360     -0.003959
      1.44909      2.47834     14.35723         0.003679     -0.001013      0.004633
      2.83205      3.25938      4.77765        -0.001957      0.000010     -0.002401
      1.44644      4.04971      9.57248         0.002123     -0.001553     -0.005257
      0.01785      4.83935      0.01613        -0.001469      0.000002      0.002896
      1.44508      5.67241      4.80116        -0.000000      0.000000      0.000000
      0.04310      6.49278      9.59299         0.004642      0.000946     -0.002328
      5.63549      0.03963      0.02721        -0.002123      0.001553      0.005257
      7.03353      0.85465      4.80249         0.001328     -0.000120     -0.001822
      5.67096      1.63788      9.60163        -0.003679      0.001013     -0.004633
      4.26884      2.46854     14.36290         0.001086      0.000360      0.003959
      5.66790      3.27181      4.77675        -0.004126     -0.001590     -0.003162
      4.26152      4.09052      9.58369        -0.002414     -0.005099     -0.004732
      2.88518      4.87891     14.36850        -0.004642     -0.000946      0.002328
      4.26299      5.67475      4.78203        -0.001076      0.000145     -0.004517
      2.87232      6.50547      9.58619         0.001469     -0.000002     -0.002896
      0.10256      0.06114     10.56404         0.004692      0.004886      0.003150
      8.36280      0.04185      3.78229         0.001887     -0.004734     -0.003982
      1.43120      0.87817      1.01631         0.021416      0.003226      0.005913
      1.39809      0.80344      8.61712        -0.003319     -0.002503     -0.002415
     -0.03686      1.59454      5.78951         0.001724     -0.001388     -0.003287
      0.07945      1.63813     13.39418         0.005361     -0.001207      0.004864
      7.04059      2.47808     10.56468        -0.005361      0.001207     -0.004864
     -1.32797      2.45826      3.78727        -0.001724      0.001388      0.003287
     -0.04076      3.20439      0.99266        -0.000389     -0.003209      0.001238
      0.00360      3.26397      8.59674        -0.000316      0.001222      0.002622
     -1.28086      4.04748      5.81741        -0.001887      0.004734      0.003982
     -1.42927      4.01854     13.37190        -0.004692     -0.004886     -0.003150
      5.66193      4.85551     10.55944        -0.004990      0.000989      0.000267
     -2.73083      4.83981      3.82988        -0.002454      0.002643     -0.001585
     -1.39286      5.60575      0.95585        -0.004410      0.001834      0.000056
     -1.33417      5.65707      8.63421         0.000811      0.001923      0.004101
     -2.82577      6.46848      5.74953         0.002454     -0.002643      0.001585
     -2.73366      6.51618     13.40205         0.004990     -0.000989     -0.000267
      2.81708      0.04000     10.55112        -0.000427      0.000741     -0.001864
      2.83634      0.05423      3.87080         0.003142     -0.001877      0.006228
      4.19536      0.83485      0.96970         0.000662      0.002378      0.003090
      4.25842      0.87847      8.63471        -0.001129     -0.002967     -0.002713
      2.90674      1.69150      5.78300         0.002830      0.003072      0.004321
      2.81386      1.62577     13.40372         0.001099     -0.001174      0.000786
      1.43952      2.42120     10.54348        -0.001760      0.000607     -0.003061
      1.42940      2.39487      3.81661        -0.000630     -0.001357      0.004304
      2.82351      3.21087      0.96498         0.001129      0.002967      0.002713
      2.88658      3.25449      8.63000        -0.000662     -0.002378     -0.003090
      1.41816      4.06495      5.75234        -0.002461      0.000629     -0.002586
      1.46344      4.11479     13.41785        -0.002403     -0.000656      0.007194
      0.09682      4.89137     10.55662         0.016275      0.007751      0.002642
     -0.01236      4.83833      3.83243        -0.007171      0.000175      0.001994
      1.51412      5.70322      0.99641         0.001450      0.004604      0.007051
      1.37604      5.64160      8.60591        -0.001450     -0.004604     -0.007051
      0.03844      6.44962      5.77335         0.001792      0.000332      0.002583
      0.11225      6.47595     13.43143        -0.008316      0.006278      0.008376
      1.46483      7.25691     10.54364         0.002403      0.000656     -0.007194
      1.47201      7.27986      3.84999         0.002461     -0.000629      0.002586
      7.07833      0.82537      1.00295         0.000316     -0.001222     -0.002622
      7.12270      0.88495      8.60703         0.000389      0.003209     -0.001238
      5.65253      1.69447      5.78309         0.000630      0.001357     -0.004304
      5.68053      1.69502     13.41537         0.001760     -0.000607      0.003061
      4.30619      2.49044     10.55514        -0.001099      0.001174     -0.000786
      4.17520      2.39783      3.81670        -0.002830     -0.003072     -0.004321
      5.68385      3.28589      0.98258         0.003319      0.002503      0.002415
      5.65074      3.21116      8.58339        -0.021416     -0.003226     -0.005913
      4.24559      4.03511      5.72889        -0.003142      0.001877     -0.006228
      4.30297      4.07621     13.40774         0.000427     -0.000741      0.001864
      2.81603      4.89575     10.53006         0.008316     -0.006278     -0.008376
      2.85173      4.89520      3.82898        -0.001792     -0.000332     -0.002583
      4.22433      5.68775      0.96812        -0.000811     -0.001923     -0.004101
      4.28303      5.73907      8.64647         0.004410     -0.001834     -0.000056
      2.90253      6.50648      5.76990         0.007171     -0.000175     -0.001994
      2.83146      6.48032     13.40487        -0.016275     -0.007751     -0.002642
 -----------------------------------------------------------------------------------
    total drift:                                0.001734      0.001088     -0.003511


--------------------------------------------------------------------------------------------------------



  FREE ENERGIE OF THE ION-ELECTRON SYSTEM (eV)
  ---------------------------------------------------
  free  energy   TOTEN  =      -566.5058055112 eV

  energy  without entropy=     -566.4636945498  energy(sigma->0) =     -566.48475003
 
 d Force =-0.1654802E-03[-0.150E-03,-0.181E-03]  d Energy =-0.1772496E-03 0.118E-04
 d Force =-0.2044919E+00[-0.205E+00,-0.204E+00]  d Ewald  = 0.3539360E-01-0.240E+00


--------------------------------------------------------------------------------------------------------


    POTLOK:  cpu time    0.2581: real time    0.2588


--------------------------------------------------------------------------------------------------------


 Quasi-Newton relaxation of ions (Broydens 2nd method)
  g(Force)  = 0.227E-03   g(Stress)= 0.146E-03

 retain information from N=  1 steps
 eigenvalues of (default step * inverse Hessian matrix)
  average eigenvalue of G=   0.0143
 eigenvalue spectrum of G is  0.0143


--------------------------------------------------------------------------------------------------------


     LOOP+:  cpu time   38.9916: real time   39.2064
    4ORBIT:  cpu time    0.0000: real time    0.0000

volume of typ            1:     9.7 %

volume of typ            2:    19.5 %

volume of typ            3:    10.0 %
 
total charge     
 
# of ion       s       p       d       tot
------------------------------------------
    1        2.071   0.232   0.088   2.391
    2        2.066   0.220   0.084   2.370
    3        2.070   0.230   0.087   2.387
    4        2.070   0.230   0.087   2.387
    5        2.071   0.232   0.088   2.391
    6        2.071   0.233   0.088   2.392
    7        2.073   0.237   0.090   2.400
    8        2.064   0.216   0.081   2.361
    9        2.071   0.233   0.088   2.392
   10        2.066   0.220   0.084   2.370
   11        2.073   0.237   0.090   2.400
   12        0.284   0.386   7.845   8.514
   13        0.275   0.366   7.851   8.491
   14        0.294   0.407   7.833   8.533
   15        0.294   0.407   7.833   8.533
   16        0.293   0.406   7.838   8.537
   17        0.284   0.386   7.844   8.514
   18        0.294   0.407   7.829   8.530
   19        0.287   0.393   7.832   8.511
   20        0.294   0.407   7.829   8.530
   21        0.285   0.390   7.832   8.507
   22        0.290   0.399   7.831   8.520
   23        0.285   0.389   7.837   8.511
   24        0.292   0.403   7.834   8.529
   25        0.290   0.399   7.831   8.520
   26        0.288   0.395   7.831   8.514
   27        0.277   0.370   7.845   8.492
   28        0.285   0.387   7.840   8.512
   29        0.293   0.406   7.830   8.528
   30        0.288   0.395   7.831   8.514
   31        0.293   0.406   7.838   8.537
   32        0.292   0.403   7.834   8.529
   33        0.285   0.389   7.837   8.511
   34        0.275   0.366   7.851   8.491
   35        0.285   0.390   7.832   8.507
   36        0.293   0.406   7.830   8.528
   37        0.287   0.393   7.832   8.511
   38        0.277   0.370   7.845   8.492
   39        1.278   2.743   0.007   4.028
   40        1.270   2.763   0.006   4.038
   41        1.271   2.759   0.006   4.036
   42        1.279   2.739   0.007   4.025
   43        1.266   2.772   0.006   4.045
   44        1.273   2.754   0.007   4.035
   45        1.273   2.754   0.007   4.035
   46        1.266   2.772   0.006   4.045
   47        1.266   2.773   0.007   4.046
   48        1.267   2.772   0.007   4.045
   49        1.270   2.763   0.006   4.038
   50        1.278   2.743   0.007   4.028
   51        1.273   2.757   0.007   4.037
   52        1.270   2.767   0.007   4.044
   53        1.270   2.767   0.007   4.044
   54        1.273   2.756   0.007   4.037
   55        1.270   2.767   0.007   4.044
   56        1.273   2.757   0.007   4.037
   57        1.273   2.755   0.007   4.036
   58        1.275   2.751   0.007   4.033
   59        1.271   2.764   0.007   4.042
   60        1.274   2.754   0.007   4.035
   61        1.276   2.752   0.007   4.035
   62        1.278   2.743   0.007   4.028
   63        1.273   2.756   0.007   4.036
   64        1.266   2.773   0.007   4.047
   65        1.274   2.754   0.007   4.035
   66        1.271   2.764   0.007   4.042
   67        1.273   2.755   0.007   4.036
   68        1.272   2.758   0.007   4.038
   69        1.279   2.741   0.007   4.027
   70        1.278   2.743   0.007   4.028
   71        1.276   2.750   0.007   4.033
   72        1.276   2.750   0.007   4.033
   73        1.271   2.763   0.007   4.041
   74        1.276   2.749   0.007   4.032
   75        1.272   2.758   0.007   4.038
   76        1.273   2.755   0.007   4.036
   77        1.267   2.772   0.007   4.045
   78        1.266   2.773   0.007   4.046
   79        1.266   2.773   0.007   4.047
   80        1.273   2.756   0.007   4.036
   81        1.278   2.743   0.007   4.028
   82        1.276   2.752   0.007   4.035
   83        1.279   2.739   0.007   4.025
   84        1.271   2.759   0.006   4.036
   85        1.275   2.751   0.007   4.033
   86        1.273   2.755   0.007   4.036
   87        1.276   2.749   0.007   4.032
   88        1.271   2.763   0.007   4.041
   89        1.273   2.756   0.007   4.037
   90        1.270   2.767   0.007   4.044
   91        1.278   2.743   0.007   4.028
   92        1.279   2.741   0.007   4.027
--------------------------------------------------
tot          99.26  162.00  212.91  474.16
 
magnetization (x)
 
# of ion       s       p       d       tot
------------------------------------------
    1        0.006   0.009   0.000   0.015
    2        0.005   0.009   0.000   0.014
    3        0.005   0.008   0.000   0.013
    4        0.005   0.008   0.000   0.013
    5        0.006   0.009   0.000   0.015
    6        0.006   0.011   0.001   0.018
    7        0.006   0.010   0.001   0.017
    8        0.005   0.012   0.000   0.018
    9        0.006   0.011   0.001   0.018
   10        0.005   0.009   0.000   0.014
   11        0.006   0.010   0.001   0.017
   12        0.000  -0.000   0.424   0.424
   13        0.001  -0.000   0.626   0.627
   14       -0.000  -0.000   0.161   0.160
   15       -0.000  -0.000   0.161   0.160
   16       -0.001  -0.000   0.189   0.188
   17        0.000  -0.000   0.424   0.424
   18       -0.000  -0.000   0.134   0.133
   19       -0.001  -0.001   0.235   0.234
   20       -0.000  -0.000   0.134   0.133
   21       -0.000  -0.001   0.269   0.268
   22       -0.001  -0.001   0.182   0.181
   23        0.000  -0.000   0.354   0.354
   24       -0.000  -0.000   0.193   0.192
   25       -0.001  -0.001   0.182   0.181
   26       -0.001  -0.001   0.226   0.225
   27        0.001  -0.001   0.561   0.561
   28        0.000  -0.001   0.390   0.390
   29       -0.001  -0.000   0.147   0.146
   30       -0.001  -0.001   0.226   0.225
   31       -0.001  -0.000   0.189   0.188
   32       -0.000  -0.000   0.193   0.192
   33        0.000  -0.000   0.354   0.354
   34        0.001  -0.000   0.626   0.627
   35       -0.000  -0.001   0.269   0.268
   36       -0.001  -0.000   0.147   0.146
   37       -0.001  -0.001   0.235   0.234
   38        0.001  -0.001   0.561   0.561
   39        0.009   0.076   0.000   0.085
   40        0.010   0.079   0.000   0.090
   41        0.010   0.069   0.000   0.079
   42        0.008   0.054   0.000   0.062
   43        0.005   0.018   0.000   0.023
   44        0.004   0.013   0.000   0.017
   45        0.004   0.013   0.000   0.017
   46        0.005   0.018   0.000   0.023
   47        0.004   0.014   0.000   0.018
   48        0.005   0.013   0.000   0.018
   49        0.010   0.079   0.000   0.090
   50        0.009   0.076   0.000   0.085
   51        0.003   0.009   0.000   0.012
   52        0.004   0.012   0.000   0.016
   53        0.004   0.012   0.000   0.015
   54        0.003   0.009   0.000   0.012
   55        0.004   0.012   0.000   0.016
   56        0.003   0.009   0.000   0.012
   57        0.003   0.007   0.000   0.010
   58        0.007   0.048   0.000   0.055
   59        0.004   0.017   0.000   0.021
   60        0.003   0.010   0.000   0.014
   61        0.010   0.082   0.000   0.092
   62        0.009   0.068   0.000   0.077
   63        0.003   0.006   0.000   0.009
   64        0.004   0.007   0.000   0.011
   65        0.003   0.010   0.000   0.014
   66        0.004   0.017   0.000   0.021
   67        0.003   0.004   0.000   0.008
   68        0.004   0.010   0.000   0.013
   69        0.009   0.064   0.000   0.073
   70        0.009   0.066   0.000   0.076
   71        0.010   0.081   0.000   0.091
   72        0.010   0.081   0.000   0.091
   73        0.004   0.014   0.000   0.018
   74        0.008   0.056   0.000   0.064
   75        0.004   0.010   0.000   0.013
   76        0.003   0.004   0.000   0.008
   77        0.005   0.013   0.000   0.018
   78        0.004   0.014   0.000   0.018
   79        0.004   0.007   0.000   0.011
   80        0.003   0.006   0.000   0.009
   81        0.009   0.068   0.000   0.077
   82        0.010   0.082   0.000   0.092
   83        0.008   0.054   0.000   0.062
   84        0.010   0.069   0.000   0.079
   85        0.007   0.048   0.000   0.055
   86        0.003   0.007   0.000   0.010
   87        0.008   0.056   0.000   0.064
   88        0.004   0.014   0.000   0.018
   89        0.003   0.009   0.000   0.012
   90        0.004   0.012   0.000   0.015
   91        0.009   0.066   0.000   0.076
   92        0.009   0.064   0.000   0.073
--------------------------------------------------
tot           0.38    1.93    7.81   10.11
 

 total amount of memory used by VASP MPI-rank0   145551. kBytes
=======================================================================

   base      :      30000. kBytes
   nonlr-proj:      39783. kBytes
   fftplans  :       9349. kBytes
   grid      :      55332. kBytes
   one-center:       1430. kBytes
   wavefun   :       9657. kBytes
 
  
  
 General timing and accounting informations for this job:
 ========================================================
  
                  Total CPU time used (sec):     1397.652
                            User time (sec):     1388.925
                          System time (sec):        8.726
                         Elapsed time (sec):     1408.738
  
                   Maximum memory used (kb):      211056.
                   Average memory used (kb):           0.
  
                          Minor page faults:        35073
                          Major page faults:           53
                 Voluntary context switches:         1014
