 vasp.5.4.4.18Apr17-6-g9f103f2a35 (build May 12 2020 05:39:39) gamma-only       
  
 MD_VERSION_INFO: Compiled 2020-05-12T12:39:39-UTC in devlin.sd.materialsdesign.
 com:/home/medea2/data/build/wwolf/vasp-gpu5.4.4/13047/x86_64/src/src/build/gam 
 from svn 13047
 
 This VASP executable licensed from Materials Design, Inc.
 
 executed on                        Lin64 date 2023.01.19  20:24:16
 running on   16 total cores
 distrk:  each k-point on   16 cores,    1 groups
 distr:  one band on NCORES_PER_BAND=   1 cores,   16 groups


--------------------------------------------------------------------------------------------------------


 INCAR:
 POTCAR:    PAW_PBE Li_sv 10Sep2004               
 POTCAR:    PAW_PBE Ni 02Aug2007                  
 POTCAR:    PAW_PBE O 08Apr2002                   

 ----------------------------------------------------------------------------- 
|                                                                             |
|           W    W    AA    RRRRR   N    N  II  N    N   GGGG   !!!           |
|           W    W   A  A   R    R  NN   N  II  NN   N  G    G  !!!           |
|           W    W  A    A  R    R  N N  N  II  N N  N  G       !!!           |
|           W WW W  AAAAAA  RRRRR   N  N N  II  N  N N  G  GGG   !            |
|           WW  WW  A    A  R   R   N   NN  II  N   NN  G    G                |
|           W    W  A    A  R    R  N    N  II  N    N   GGGG   !!!           |
|                                                                             |
|      For optimal performance we recommend to set                            |
|        NCORE= 4 - approx SQRT( number of cores)                             |
|      NCORE specifies how many cores store one orbital (NPAR=cpu/NCORE).     |
|      This setting can  greatly improve the performance of VASP for DFT.     |
|      The default,   NCORE=1            might be grossly inefficient         |
|      on modern multi-core architectures or massively parallel machines.     |
|      Do your own testing !!!!                                               |
|      Unfortunately you need to use the default for GW and RPA calculations. |
|      (for HF NCORE is supported but not extensively tested yet)             |
|                                                                             |
 ----------------------------------------------------------------------------- 

 POTCAR:    PAW_PBE Li_sv 10Sep2004               
  local pseudopotential read in
  atomic valenz-charges read in
  non local Contribution for L=           0  read in
    real space projection operators read in
  non local Contribution for L=           0  read in
    real space projection operators read in
  non local Contribution for L=           1  read in
    real space projection operators read in
    PAW grid and wavefunctions read in
 
   number of l-projection  operators is LMAX  =           3
   number of lm-projection operators is LMMAX =           5
 
 POTCAR:    PAW_PBE Ni 02Aug2007                  
  local pseudopotential read in
  partial core-charges read in
  partial kinetic energy density read in
  atomic valenz-charges read in
  non local Contribution for L=           2  read in
    real space projection operators read in
  non local Contribution for L=           2  read in
    real space projection operators read in
  non local Contribution for L=           0  read in
    real space projection operators read in
  non local Contribution for L=           0  read in
    real space projection operators read in
  non local Contribution for L=           1  read in
    real space projection operators read in
  non local Contribution for L=           1  read in
    real space projection operators read in
    PAW grid and wavefunctions read in
 
   number of l-projection  operators is LMAX  =           6
   number of lm-projection operators is LMMAX =          18
 
 POTCAR:    PAW_PBE O 08Apr2002                   
  local pseudopotential read in
  partial core-charges read in
  partial kinetic energy density read in
  kinetic energy density of atom read in
  atomic valenz-charges read in
  non local Contribution for L=           0  read in
    real space projection operators read in
  non local Contribution for L=           0  read in
    real space projection operators read in
  non local Contribution for L=           1  read in
    real space projection operators read in
  non local Contribution for L=           1  read in
    real space projection operators read in
    PAW grid and wavefunctions read in
 
   number of l-projection  operators is LMAX  =           4
   number of lm-projection operators is LMMAX =           8
 
 Optimization of the real space projectors (new method)

 maximal supplied QI-value         = 22.11
 optimisation between [QCUT,QGAM] = [ 11.28, 22.77] = [ 35.61,145.23] Ry 
 Optimized for a Real-space Cutoff    1.10 Angstroem

   l    n(q)    QCUT    max X(q) W(low)/X(q) W(high)/X(q)  e(spline) 
   0      7    11.276    10.506    0.54E-04    0.58E-04    0.16E-07
   0      7    11.276     8.367    0.11E-03    0.14E-03    0.35E-07
   1      7    11.276     8.983    0.23E-03    0.43E-03    0.86E-07
 Optimization of the real space projectors (new method)

 maximal supplied QI-value         = 16.25
 optimisation between [QCUT,QGAM] = [ 11.38, 22.75] = [ 36.24,144.96] Ry 
 Optimized for a Real-space Cutoff    1.47 Angstroem

   l    n(q)    QCUT    max X(q) W(low)/X(q) W(high)/X(q)  e(spline) 
   2      9    11.376    60.317    0.17E-03    0.16E-04    0.16E-06
   2      9    11.376    55.921    0.17E-03    0.16E-04    0.17E-06
   0     10    11.376    51.690    0.45E-04    0.60E-04    0.21E-06
   0     10    11.376    30.015    0.37E-04    0.55E-04    0.19E-06
   1     10    11.376    18.849    0.83E-04    0.11E-03    0.92E-07
   1     10    11.376    14.624    0.69E-04    0.92E-04    0.82E-07
 Optimization of the real space projectors (new method)

 maximal supplied QI-value         = 24.76
 optimisation between [QCUT,QGAM] = [ 11.39, 22.77] = [ 36.31,145.25] Ry 
 Optimized for a Real-space Cutoff    1.10 Angstroem

   l    n(q)    QCUT    max X(q) W(low)/X(q) W(high)/X(q)  e(spline) 
   0      7    11.387    20.381    0.22E-03    0.48E-03    0.18E-06
   0      7    11.387    15.268    0.22E-03    0.52E-03    0.19E-06
   1      7    11.387     5.964    0.22E-03    0.73E-03    0.24E-06
   1      7    11.387     5.382    0.19E-03    0.60E-03    0.21E-06

 ----------------------------------------------------------------------------- 
|                                                                             |
|  ADVICE TO THIS USER RUNNING 'VASP/VAMP'   (HEAR YOUR MASTER'S VOICE ...):  |
|                                                                             |
|      You enforced a specific xc-type in the INCAR file,                     |
|      a different type was found on the POTCAR file                          |
|          I HOPE YOU KNOW, WHAT YOU ARE  DOING                               |
|                                                                             |
 ----------------------------------------------------------------------------- 

  PAW_PBE Li_sv 10Sep2004               :
 energy of atom  1       EATOM= -202.7858
 kinetic energy error for atom=    0.0143 (will be added to EATOM!!)
  PAW_PBE Ni 02Aug2007                  :
 energy of atom  2       EATOM=-1077.6739
 kinetic energy error for atom=    0.0030 (will be added to EATOM!!)
  PAW_PBE O 08Apr2002                   :
 energy of atom  3       EATOM= -432.3788
 kinetic energy error for atom=    0.0224 (will be added to EATOM!!)
 
 
 POSCAR: ce425579_1                              
  positions in direct lattice
  No initial velocities read in
 exchange correlation table for  LEXCH =       14
   RHO(1)=    0.500       N(1)  =     2000
   RHO(2)=  100.500       N(2)  =     4000
 


--------------------------------------------------------------------------------------------------------


 ion  position               nearest neighbor table
   1  0.001  0.500  0.001-  38 2.09  39 2.11  51 2.11  86 2.12  74 2.12  87 2.12
   2  0.112  0.833  0.223-  59 2.11  53 2.11  58 2.11  52 2.11  40 2.11  35 2.12
   3  0.555  0.167  0.109-  48 2.11  42 2.11  49 2.12  43 2.12  66 2.13  79 2.13
   4  0.223  0.167  0.446-  61 2.11  55 2.11  54 2.12  60 2.12  37 2.13  78 2.13
   5  0.666  0.501  0.332-  44 2.11  50 2.11  45 2.11  69 2.11  63 2.11  68 2.12
   6  0.777  0.833  0.554-  65 2.09  64 2.11  70 2.11  71 2.12  83 2.12  88 2.12
   7  0.889  0.167  0.778-  36 2.11  67 2.11  84 2.13  72 2.13  73 2.13  85 2.13
   8  0.000  1.000  0.000-  40 1.87  52 1.87  85 1.87  73 1.87  37 1.91  88 1.91  11 2.79  14 2.79
                            17 2.80  20 2.80  26 2.81  32 2.81
   9  0.111  0.333  0.222-  54 1.87  60 1.87  51 1.87  39 1.87  57 1.87  36 1.91  15 2.79  12 2.79
                            18 2.80  21 2.80  33 2.80  27 2.80
  10  0.224  0.666  0.111-  74 1.87  41 1.87  59 1.87  35 1.88  38 1.88  44 1.89  13 2.79  22 2.79
                            28 2.79  34 2.80  19 2.81  16 2.82
  11  0.332  0.997  1.000-  76 1.86  79 1.87  46 1.87  43 1.88  40 1.89  73 1.90  26 2.79   8 2.79
                            20 2.79  29 2.79  23 2.80  14 2.81
  12  0.443  0.334  0.222-  63 1.87  42 1.87  66 1.87  45 1.88  39 1.89  60 1.90  27 2.78   9 2.79
                            21 2.79  24 2.80  30 2.81  15 2.82
  13  0.555  0.670  0.110-  47 1.86  41 1.86  80 1.87  50 1.88  44 1.88  65 1.90  16 2.79  10 2.79
                            31 2.79  28 2.79  22 2.81  25 2.81
  14  0.667  0.997  1.000-  82 1.86  79 1.87  46 1.87  49 1.88  52 1.89  85 1.90  32 2.79   8 2.79
                            17 2.79  29 2.79  23 2.80  11 2.81
  15  0.779  0.334  0.222-  69 1.87  48 1.87  66 1.87  45 1.88  51 1.89  54 1.90  33 2.78   9 2.79
                            18 2.79  24 2.80  30 2.81  12 2.82
  16  0.887  0.666  0.111-  86 1.87  47 1.87  53 1.87  35 1.88  38 1.88  50 1.89  13 2.79  25 2.79
                            31 2.79  34 2.80  19 2.81  10 2.82
  17  0.999  1.000  0.333-  52 1.87  55 1.87  37 1.87  58 1.88  70 1.89  49 1.90  26 2.78  23 2.79
                            14 2.79   8 2.80  29 2.81  20 2.82
  18  0.110  0.336  0.556-  75 1.86  78 1.87  57 1.87  54 1.88  69 1.89  72 1.90  27 2.79  24 2.79
                            15 2.79  30 2.79   9 2.80  21 2.81
  19  0.223  0.664  0.445-  62 1.86  56 1.86  77 1.87  59 1.88  53 1.88  38 1.90  25 2.79  22 2.79
                            28 2.79  31 2.79  10 2.81  16 2.81
  20  0.335  1.000  0.333-  40 1.87  61 1.87  37 1.87  58 1.88  64 1.89  43 1.90  32 2.78  23 2.79
                            11 2.79   8 2.80  29 2.81  17 2.82
  21  0.446  0.336  0.556-  81 1.86  78 1.87  57 1.87  60 1.88  63 1.89  84 1.90  33 2.79  24 2.79
                            12 2.79  30 2.79   9 2.80  18 2.81
  22  0.554  0.668  0.445-  83 1.87  62 1.87  44 1.87  68 1.88  65 1.88  59 1.89  19 2.79  10 2.79
                            31 2.79  34 2.80  13 2.81  25 2.82
  23  0.667  0.000  0.333-  49 1.87  43 1.87  70 1.87  64 1.87  46 1.87  67 1.91  17 2.79  20 2.79
                            14 2.80  11 2.80  26 2.80  32 2.80
  24  0.778  0.334  0.555-  63 1.87  69 1.87  72 1.87  84 1.87  66 1.91  87 1.91  18 2.79  21 2.79
                            15 2.80  12 2.80  33 2.81  27 2.81
  25  0.890  0.668  0.445-  71 1.87  56 1.87  50 1.87  68 1.88  65 1.88  53 1.89  19 2.79  16 2.79
                            28 2.79  34 2.80  13 2.81  22 2.82
  26  0.001  0.000  0.666-  73 1.87  76 1.87  70 1.87  88 1.88  67 1.88  55 1.89  17 2.78  29 2.78
                            11 2.79  23 2.80   8 2.81  32 2.82
  27  0.113  0.333  0.889-  72 1.87  75 1.87  39 1.87  87 1.88  36 1.88  42 1.89  12 2.78  30 2.78
                            18 2.79   9 2.80  24 2.81  33 2.82
  28  0.222  0.667  0.778-  77 1.87  80 1.87  41 1.87  56 1.87  71 1.90  74 1.90  10 2.79  25 2.79
                            13 2.79  19 2.79  34 2.79  31 2.80
  29  0.334  0.997  0.668-  82 1.86  76 1.86  61 1.88  55 1.88  79 1.90  58 1.90  32 2.78  26 2.78
                            11 2.79  14 2.79  20 2.81  17 2.81
  30  0.444  0.336  0.888-  75 1.86  81 1.86  42 1.88  48 1.88  78 1.90  45 1.90  27 2.78  33 2.78
                            18 2.79  21 2.79  12 2.81  15 2.81
  31  0.556  0.667  0.778-  77 1.87  80 1.87  47 1.87  62 1.87  83 1.90  86 1.90  16 2.79  22 2.79
                            13 2.79  19 2.79  34 2.79  28 2.80
  32  0.665  0.000  0.666-  85 1.87  82 1.87  64 1.87  88 1.88  67 1.88  61 1.89  20 2.78  29 2.78
                            14 2.79  23 2.80   8 2.81  26 2.82
  33  0.776  0.333  0.889-  84 1.87  81 1.87  51 1.87  87 1.88  36 1.88  48 1.89  15 2.78  30 2.78
                            21 2.79   9 2.80  24 2.81  27 2.82
  34  0.889  0.667  0.778-  83 1.87  71 1.87  74 1.87  86 1.87  35 1.90  68 1.90  31 2.79  28 2.79
                            16 2.80  10 2.80  22 2.80  25 2.80
  35  0.002  0.734  0.004-  10 1.88  16 1.88  34 1.90   2 2.12
  36  0.998  0.264  0.997-  33 1.88  27 1.88   9 1.91   7 2.11
  37  0.113  0.068  0.227-  20 1.87  17 1.87   8 1.91   4 2.13
  38  0.109  0.597  0.218-  16 1.88  10 1.88  19 1.90   1 2.09
  39  0.218  0.401  0.109-   9 1.87  27 1.87  12 1.89   1 2.11
  40  0.220  0.931  0.114-  20 1.87   8 1.87  11 1.89   2 2.11
  41  0.332  0.734  0.999-  13 1.86  10 1.87  28 1.87
  42  0.338  0.266  0.001-  12 1.87  30 1.88  27 1.89   3 2.11
  43  0.445  0.067  0.218-  23 1.87  11 1.88  20 1.90   3 2.12
  44  0.449  0.600  0.224-  22 1.87  13 1.88  10 1.89   5 2.11
  45  0.558  0.402  0.115-  15 1.88  12 1.88  30 1.90   5 2.11
  46  0.556  0.932  0.113-  14 1.87  11 1.87  23 1.87
  47  0.667  0.734  0.999-  13 1.86  16 1.87  31 1.87
  48  0.664  0.266  0.001-  15 1.87  30 1.88  33 1.89   3 2.11
  49  0.773  0.067  0.218-  23 1.87  14 1.88  17 1.90   3 2.12
  50  0.775  0.600  0.224-  25 1.87  13 1.88  16 1.89   5 2.11
  51  0.891  0.401  0.109-   9 1.87  33 1.87  15 1.89   1 2.11
  52  0.894  0.931  0.114-  17 1.87   8 1.87  14 1.89   2 2.11
  53  0.003  0.734  0.332-  16 1.87  19 1.88  25 1.89   2 2.11
  54  0.005  0.266  0.337-   9 1.87  18 1.88  15 1.90   4 2.12
  55  0.114  0.067  0.554-  17 1.87  29 1.88  26 1.89   4 2.11
  56  0.110  0.599  0.557-  19 1.86  25 1.87  28 1.87
  57  0.221  0.401  0.443-  21 1.87  18 1.87   9 1.87
  58  0.220  0.931  0.440-  20 1.88  17 1.88  29 1.90   2 2.11
  59  0.329  0.734  0.332-  10 1.87  19 1.88  22 1.89   2 2.11
  60  0.332  0.266  0.337-   9 1.87  21 1.88  12 1.90   4 2.12
  61  0.440  0.067  0.554-  20 1.87  29 1.88  32 1.89   4 2.11
  62  0.446  0.599  0.557-  19 1.86  22 1.87  31 1.87
  63  0.557  0.402  0.442-  12 1.87  24 1.87  21 1.89   5 2.11
  64  0.560  0.932  0.446-  23 1.87  32 1.87  20 1.89   6 2.11
  65  0.669  0.736  0.337-  25 1.88  22 1.88  13 1.90   6 2.09
  66  0.664  0.266  0.329-  15 1.87  12 1.87  24 1.91   3 2.13
  67  0.779  0.069  0.559-  26 1.88  32 1.88  23 1.91   7 2.11
  68  0.776  0.599  0.551-  22 1.88  25 1.88  34 1.90   5 2.12
  69  0.884  0.402  0.442-  15 1.87  24 1.87  18 1.89   5 2.11
  70  0.887  0.932  0.446-  23 1.87  26 1.87  17 1.89   6 2.11
  71  0.997  0.735  0.665-  25 1.87  34 1.87  28 1.90   6 2.12
  72  0.999  0.266  0.668-  27 1.87  24 1.87  18 1.90   7 2.13
  73  0.109  0.067  0.887-  26 1.87   8 1.87  11 1.90   7 2.13
  74  0.110  0.598  0.891-  10 1.87  34 1.87  28 1.90   1 2.12
  75  0.221  0.402  0.778-  18 1.86  30 1.86  27 1.87
  76  0.221  0.932  0.778-  11 1.86  29 1.86  26 1.87
  77  0.332  0.732  0.665-  28 1.87  31 1.87  19 1.87
  78  0.332  0.268  0.663-  18 1.87  21 1.87  30 1.90   4 2.13
  79  0.446  0.065  0.892-  14 1.87  11 1.87  29 1.90   3 2.13
  80  0.445  0.602  0.891-  28 1.87  31 1.87  13 1.87
  81  0.557  0.402  0.778-  21 1.86  30 1.86  33 1.87
  82  0.557  0.932  0.778-  14 1.86  29 1.86  32 1.87
  83  0.668  0.735  0.665-  22 1.87  34 1.87  31 1.90   6 2.12
  84  0.669  0.266  0.668-  33 1.87  24 1.87  21 1.90   7 2.13
  85  0.779  0.067  0.887-  32 1.87   8 1.87  14 1.90   7 2.13
  86  0.781  0.598  0.891-  16 1.87  34 1.87  31 1.90   1 2.12
  87  0.891  0.401  0.783-  33 1.88  27 1.88  24 1.91   1 2.12
  88  0.887  0.932  0.773-  26 1.88  32 1.88   8 1.91   6 2.12
 
  LATTYP: Found a base centered monoclinic cell.
 ALAT       =    14.5405379818
 B/A-ratio  =     0.5771817596
 C/A-ratio  =     1.3961585626
 COS(beta)  =    -0.6216531490
  
  Lattice vectors:
  
 A1 = (   4.1981004781,   7.2692058068,   0.0080212478)
 A2 = (   8.3943671285,   0.0010587699,   0.0080212478)
 A3 = ( -12.6056820534,  -7.2778939956, -14.1511639818)


Analysis of symmetry for initial positions (statically):
=====================================================================
 Subroutine PRICEL returns:
 Original cell was already a primitive cell.
 

 Routine SETGRP: Setting up the symmetry group for a 
 base centered monoclinic supercell.


 Subroutine GETGRP returns: Found  4 space group operations
 (whereof  2 operations were pure point group operations)
 out of a pool of  4 trial point group operations.


The static configuration has the point symmetry C_1h.
 The point group associated with its full space group is C_2h.


Analysis of symmetry for dynamics (positions and initial velocities):
=====================================================================
 Subroutine PRICEL returns:
 Original cell was already a primitive cell.
 

 Routine SETGRP: Setting up the symmetry group for a 
 base centered monoclinic supercell.


 Subroutine GETGRP returns: Found  4 space group operations
 (whereof  2 operations were pure point group operations)
 out of a pool of  4 trial point group operations.


The dynamic configuration has the point symmetry C_1h.
 The point group associated with its full space group is C_2h.


Analysis of structural, dynamic, and magnetic symmetry:
=====================================================================
 Subroutine PRICEL returns:
 Original cell was already a primitive cell.
 

 Routine SETGRP: Setting up the symmetry group for a 
 base centered monoclinic supercell.


 Subroutine GETGRP returns: Found  4 space group operations
 (whereof  2 operations were pure point group operations)
 out of a pool of  4 trial point group operations.


The magnetic configuration has the point symmetry C_1h.
 The point group associated with its full space group is C_2h.


 Subroutine INISYM returns: Found  4 space group operations
 (whereof  2 operations are pure point group operations),
 and found     1 'primitive' translations

 
 
 KPOINTS: Automatic mesh                          

Automatic generation of k-mesh.
Space group operators:
 irot       det(A)        alpha          n_x          n_y          n_z        tau_x        tau_y        tau_z
    1     1.000000     0.000001     1.000000     0.000000     0.000000     0.000000     0.000000     0.000000
    2    -1.000000   179.999999    -0.500000     0.866025    -0.000000     0.000000     0.000000     0.000000
    3    -1.000000     0.000001     1.000000     0.000000     0.000000    -0.222222    -0.666667    -0.444444
    4     1.000000   179.999999    -0.500000     0.866025    -0.000000    -0.222222    -0.666667    -0.444444
 
 Subroutine IBZKPT returns following result:
 ===========================================
 
 Found      1 irreducible k-points:
 
 Following reciprocal coordinates:
            Coordinates               Weight
  0.000000  0.000000  0.000000      1.000000
 
 Following cartesian coordinates:
            Coordinates               Weight
  0.000000  0.000000  0.000000      1.000000
 


--------------------------------------------------------------------------------------------------------




 Dimension of arrays:
   k-points           NKPTS =      1   k-points in BZ     NKDIM =      1   number of bands    NBANDS=    416
   number of dos      NEDOS =    301   number of ions     NIONS =     88
   non local maximal  LDIM  =      6   non local SUM 2l+1 LMDIM =     18
   total plane-waves  NPLWV = 442368
   max r-space proj   IRMAX =   6936   max aug-charges    IRDMAX=  16823
   dimension x,y,z NGX =    64 NGY =  108 NGZ =   64
   dimension x,y,z NGXF=   128 NGYF=  216 NGZF=  128
   support grid    NGXF=   128 NGYF=  216 NGZF=  128
   ions per type =               7  27  54
   NGX,Y,Z   is equivalent  to a cutoff of  12.68, 12.70, 12.67 a.u.
   NGXF,Y,Z  is equivalent  to a cutoff of  25.36, 25.40, 25.35 a.u.

 SYSTEM =  unknown system                          
 POSCAR =  ce425579_1                              

 Startparameter for this run:
   NWRITE =      1    write-flag & timer
   PREC   = accura    normal or accurate (medium, high low for compatibility)
   ISTART =      0    job   : 0-new  1-cont  2-samecut
   ICHARG =      2    charge: 1-file 2-atom 10-const
   ISPIN  =      2    spin polarized calculation?
   LNONCOLLINEAR =      F non collinear calculations
   LSORBIT =      F    spin-orbit coupling
   INIWAV =      1    electr: 0-lowe 1-rand  2-diag
   LASPH  =      F    aspherical Exc in radial PAW
   METAGGA=      F    non-selfconsistent MetaGGA calc.

 Electronic Relaxation 1
   ENCUT  =  500.0 eV  36.75 Ry    6.06 a.u.  15.30 25.77 15.30*2*pi/ulx,y,z
   ENINI  =  500.0     initial cutoff
   ENAUG  =  628.9 eV  augmentation charge cutoff
   NELM   =     80;   NELMIN=  2; NELMDL= -5     # of ELM steps 
   EDIFF  = 0.1E-04   stopping-criterion for ELM
   LREAL  =      T    real-space projection
   NLSPLINE    = F    spline interpolate recip. space projectors
   LCOMPAT=      F    compatible to vasp.4.4
   GGA_COMPAT  = T    GGA compatible to vasp.4.4-vasp.4.6
   LMAXPAW     = -100 max onsite density
   LMAXMIX     =    2 max onsite mixed and CHGCAR
   VOSKOWN=      1    Vosko Wilk Nusair interpolation
   ROPT   =   -0.00025  -0.00025  -0.00025
 Ionic relaxation
   EDIFFG = -.2E-01   stopping-criterion for IOM
   NSW    =     20    number of steps for IOM
   NBLOCK =      1;   KBLOCK =     20    inner block; outer block 
   IBRION =      1    ionic relax: 0-MD 1-quasi-New 2-CG
   NFREE  =      0    steps in history (QN), initial steepest desc. (CG)
   ISIF   =      3    stress and relaxation
   IWAVPR =     11    prediction:  0-non 1-charg 2-wave 3-comb
   ISYM   =      2    0-nonsym 1-usesym 2-fastsym
   LCORR  =      T    Harris-Foulkes like correction to forces

   POTIM  = 0.5000    time-step for ionic-motion
   TEIN   =    0.0    initial temperature
   TEBEG  =    0.0;   TEEND  =   0.0 temperature during run
   SMASS  =  -3.00    Nose mass-parameter (am)
   estimated Nose-frequenzy (Omega)   =  0.10E-29 period in steps =****** mass=  -0.161E-26a.u.
   SCALEE = 1.0000    scale energy and forces
   NPACO  =    256;   APACO  = 16.0  distance and # of slots for P.C.
   PSTRESS=    0.0 pullay stress

  Mass of Ions in am
   POMASS =   7.01 58.69 16.00
  Ionic Valenz
   ZVAL   =   3.00 10.00  6.00
  Atomic Wigner-Seitz radii
   RWIGS  =   1.23  1.15  0.73
  virtual crystal weights 
   VCA    =   1.00  1.00  1.00
   NELECT =     615.0000    total number of electrons
   NUPDOWN=      -1.0000    fix difference up-down

 DOS related values:
   EMIN   =  10.00;   EMAX   =-10.00  energy-range for DOS
   EFERMI =   0.00
   ISMEAR =     0;   SIGMA  =   0.05  broadening in eV -4-tet -1-fermi 0-gaus

 Electronic relaxation 2 (details)
   IALGO  =     38    algorithm
   LDIAG  =      T    sub-space diagonalisation (order eigenvalues)
   LSUBROT=      F    optimize rotation matrix (better conditioning)
   TURBO    =      0    0=normal 1=particle mesh
   IRESTART =      0    0=no restart 2=restart with 2 vectors
   NREBOOT  =      0    no. of reboots
   NMIN     =      0    reboot dimension
   EREF     =   0.00    reference energy to select bands
   IMIX   =      4    mixing-type and parameters
     AMIX     =   0.40;   BMIX     =  1.00
     AMIX_MAG =   1.60;   BMIX_MAG =  1.00
     AMIN     =   0.10
     WC   =   100.;   INIMIX=   1;  MIXPRE=   1;  MAXMIX= -45

 Intra band minimization:
   WEIMIN = 0.0010     energy-eigenvalue tresh-hold
   EBREAK =  0.60E-08  absolut break condition
   DEPER  =   0.30     relativ break condition  

   TIME   =   0.40     timestep for ELM

  volume/ion in A,a.u.               =       9.80        66.14
  Fermi-wavevector in a.u.,A,eV,Ry     =   1.462578  2.763872 29.104699  2.139135
  Thomas-Fermi vector in A             =   2.578775
 
 Write flags
   LWAVE        =      F    write WAVECAR
   LDOWNSAMPLE  =      F    k-point downsampling of WAVECAR
   LCHARG       =      T    write CHGCAR
   LVTOT        =      F    write LOCPOT, total local potential
   LVHAR        =      F    write LOCPOT, Hartree potential only
   LELF         =      F    write electronic localiz. function (ELF)
   LORBIT       =      0    0 simple, 1 ext, 2 COOP (PROOUT), +10 PAW based schemes


 Dipole corrections
   LMONO  =      F    monopole corrections only (constant potential shift)
   LDIPOL =      F    correct potential (dipole corrections)
   IDIPOL =      0    1-x, 2-y, 3-z, 4-all directions 
   EPSILON=  1.0000000 bulk dielectric constant

 Exchange correlation treatment:
   GGA     =    PS    GGA type
   LEXCH   =    14    internal setting for exchange type
   VOSKOWN=      1    Vosko Wilk Nusair interpolation
   LHFCALC =     F    Hartree Fock is set to
   LHFONE  =     F    Hartree Fock one center treatment
   AEXX    =    0.0000 exact exchange contribution

 Linear response parameters
   LEPSILON=     F    determine dielectric tensor
   LRPA    =     F    only Hartree local field effects (RPA)
   LNABLA  =     F    use nabla operator in PAW spheres
   LVEL    =     F    velocity operator in full k-point grid
   LINTERFAST=   F  fast interpolation
   KINTER  =     0    interpolate to denser k-point grid
   CSHIFT  =0.1000    complex shift for real part using Kramers Kronig
   OMEGAMAX=  -1.0    maximum frequency
   DEG_THRESHOLD= 0.2000000E-02 threshold for treating states as degnerate
   RTIME   =   -0.100 relaxation time in fs
  (WPLASMAI=    0.000 imaginary part of plasma frequency in eV, 0.658/RTIME)
   DFIELD  = 0.0000000 0.0000000 0.0000000 field for delta impulse in time
 
 Orbital magnetization related:
   ORBITALMAG=     F  switch on orbital magnetization
   LCHIMAG   =     F  perturbation theory with respect to B field
   DQ        =  0.001000  dq finite difference perturbation B field
   LLRAUG    =     F  two centre corrections for induced B field



--------------------------------------------------------------------------------------------------------


 quasi-Newton-method for relaxation of ions
 charge density and potential will be updated during run
 spin polarized calculation
 Variant of blocked Davidson
 Davidson routine will perform the subspace rotation
 perform sub-space diagonalisation
    after iterative eigenvector-optimisation
 modified Broyden-mixing scheme, WC =      100.0
 initial mixing is a Kerker type mixing with AMIX =  0.4000 and BMIX =      1.0000
 Hartree-type preconditioning will be used
 using additional bands          108
 real space projection scheme for non local part
 use partial core corrections
 calculate Harris-corrections to forces 
   (improved forces if not selfconsistent)
 use gradient corrections 
 use of overlap-Matrix (Vanderbilt PP)
 Gauss-broadening in eV      SIGMA  =   0.05


--------------------------------------------------------------------------------------------------------


  energy-cutoff  :      500.00
  volume of cell :      862.47
      direct lattice vectors                 reciprocal lattice vectors
    -4.196266650  7.268147037  0.000000000    -0.000017281  0.137576672 -0.000074241
     0.013214447  0.007629419 14.135121486    -0.000067596 -0.000039027  0.070745850
     8.394367128  0.001058770  0.008021248     0.119118971  0.068773370 -0.000148481

  length of vectors
     8.392533298 14.135129722  8.394371028     0.137576693  0.070745894  0.137546820


 
 k-points in units of 2pi/SCALE and weight: Automatic mesh                          
   0.00000000  0.00000000  0.00000000       1.000
 
 k-points in reciprocal lattice and weights: Automatic mesh                          
   0.00000000  0.00000000  0.00000000       1.000
 
 position of ions in fractional coordinates (direct lattice) 
   0.00064669  0.50008141  0.00129339
   0.11159097  0.83259890  0.22318194
   0.55456082  0.16652930  0.10912163
   0.22321696  0.16680404  0.44643392
   0.66618681  0.50073443  0.33237361
   0.77713109  0.83325192  0.55426217
   0.88888889  0.16666667  0.77777778
   0.00016447  0.99962729  0.00032894
   0.11120428  0.33292880  0.22240857
   0.22352424  0.66579470  0.11100237
   0.33224908  0.99733114  0.99967217
   0.44303250  0.33375239  0.22224387
   0.55509964  0.66979135  0.11019927
   0.66742309  0.99733114  0.99967217
   0.77921137  0.33375239  0.22224387
   0.88747813  0.66579470  0.11100237
   0.99856641  0.99958094  0.33331168
   0.11035469  0.33600219  0.55588339
   0.22267814  0.66354199  0.44535628
   0.33474527  0.99958094  0.33331168
   0.44552869  0.33600219  0.55588339
   0.55425354  0.66753864  0.44455318
   0.66657350  0.00040453  0.33314698
   0.77761331  0.33370604  0.55522662
   0.89029965  0.66753864  0.44455318
   0.00147105  0.00038967  0.66649095
   0.11275789  0.33294366  0.88906461
   0.22187083  0.66666667  0.77777778
   0.33383605  0.99726630  0.66767210
   0.44394172  0.33606703  0.88788346
   0.55590695  0.66666667  0.77777778
   0.66501989  0.00038967  0.66649095
   0.77630673  0.33294366  0.88906461
   0.88888889  0.66666667  0.77777778
   0.00209911  0.73396343  0.00419822
   0.99842474  0.26445635  0.99684948
   0.11330571  0.06769221  0.22661142
   0.10913265  0.59703673  0.21826530
   0.21817583  0.40133050  0.10905878
   0.22040250  0.93108245  0.11396924
   0.33154120  0.73410284  0.99884681
   0.33772265  0.26605666  0.00146967
   0.44529355  0.06743294  0.21847608
   0.44900399  0.59961928  0.22370067
   0.55761438  0.40220080  0.11522876
   0.55644379  0.93194779  0.11288756
   0.66730561  0.73410284  0.99884681
   0.66374702  0.26605666  0.00146967
   0.77318253  0.06743294  0.21847608
   0.77469669  0.59961928  0.22370067
   0.89088294  0.40133050  0.10905878
   0.89356674  0.93108245  0.11396924
   0.00308109  0.73371405  0.33185488
   0.00459525  0.26590039  0.33707947
   0.11403076  0.06727667  0.55408589
   0.11047217  0.59923049  0.55670875
   0.22133399  0.40138555  0.44266799
   0.22016340  0.93113254  0.44032679
   0.32877378  0.73371405  0.33185488
   0.33248422  0.26590039  0.33707947
   0.44005512  0.06727667  0.55408589
   0.44623657  0.59923049  0.55670875
   0.55737528  0.40225089  0.44158631
   0.55960195  0.93200284  0.44649677
   0.66864513  0.73629660  0.33729025
   0.66447207  0.26564112  0.32894413
   0.77935304  0.06887698  0.55870608
   0.77567867  0.59936990  0.55135734
   0.88421104  0.40225089  0.44158631
   0.88689484  0.93200284  0.44649677
   0.99692502  0.73485064  0.66499344
   0.99910356  0.26597334  0.66817755
   0.10870379  0.06735999  0.88737801
   0.10970936  0.59848269  0.89056212
   0.22117018  0.40162200  0.77787346
   0.22107450  0.93171134  0.77768210
   0.33241983  0.73182365  0.66483967
   0.33161501  0.26808963  0.66323004
   0.44616276  0.06524370  0.89232552
   0.44535794  0.60150968  0.89071589
   0.55670328  0.40162200  0.77787346
   0.55660760  0.93171134  0.77768210
   0.66806842  0.73485064  0.66499344
   0.66907399  0.26597334  0.66817755
   0.77867422  0.06735999  0.88737801
   0.78085276  0.59848269  0.89056212
   0.89126204  0.40115949  0.78252408
   0.88651574  0.93217385  0.77303148
 
 position of ions in cartesian coordinates  (Angst):
   0.01475181  0.00851694  7.06872186
   1.41620801  0.81764812 11.77067680
  -1.40887746  4.03201564  2.35478718
   2.81305656  1.62411898  2.36137633
   0.00118554  4.84611591  7.08060805
   1.40264183  5.65524709 11.78256299
   2.80113983  6.46267021  2.36209238
   0.01528060  0.00882232 14.12985582
   1.40473585  0.81102459  4.70777303
   0.00262544  1.62980420  9.41197935
   7.01058865  2.42350265 14.10541544
   0.01092449  3.22280699  4.71941325
  -1.39544206  4.03977260  9.46846604
   5.60410913  4.85959663 14.10541544
  -1.39977170  5.66620445  4.71941325
  -2.78350213  6.45551869  9.41197935
  -1.37910141  7.26570662 14.13187160
   4.20765163  0.80522617  4.75389065
   2.81283560  1.62399143  9.38281895
   1.40646911  2.44095696 14.13187160
   2.80117216  3.24132008  4.75389065
   1.41476811  4.03395984  9.43930564
  -0.00055674  4.84511002  0.00839034
   1.40211303  5.65494172  4.72142903
   0.00462902  6.47639237  9.43930564
   5.58860195  0.01140044  0.01085412
   6.99437223  0.82302241  4.71333049
   5.60673270  1.61849958  9.42965312
   4.21699797  2.43468497 14.10183587
   5.59476284  3.23013776  4.75747023
   4.20502807  4.04632322  9.42965312
   2.80417409  4.83417098  0.01085412
   4.20994436  5.64579294  4.71333049
   2.80774706  6.46648492  9.42965312
   0.03613190  0.02086080 10.37469592
   4.18175871  7.25977090  3.74611861
   1.42769300  0.82427894  0.95865532
   1.38213887  0.79797828  8.44093747
   0.00525884  1.58891140  5.67373016
   0.04413572  1.60914206 13.16187772
   7.00315231  2.41634852 10.38464482
  -1.40132155  2.45664929  3.76075500
  -0.03371096  3.23720479  0.95492525
   0.00160872  3.26823861  8.47748573
  -1.36731125  4.05601386  5.68608145
  -1.37505172  4.05154503 13.17410073
   5.59419531  4.85673362 10.38464482
  -2.76940674  4.82624235  3.76075500
  -1.40962055  5.62035010  0.95492525
  -1.36508470  5.63542105  8.47748573
  -2.81759957  6.47824559  5.67373016
  -2.78064093  6.50179874 13.16187772
   2.78247825  0.02834298 10.37379912
   2.81379965  0.03578451  3.76123811
   4.17358593  0.82989226  0.95540836
   4.21756545  0.80808918  8.47466127
   2.79244527  1.61221901  5.67718426
   2.78470480  1.60775017 13.16520354
   1.41578487  2.39552534 10.37379912
   1.43789011  2.41892975  3.76123811
   2.80550078  3.19948525  0.95540836
   2.80860849  3.24847421  8.47466127
   1.37325783  4.05462197  5.68940727
   1.41213471  4.07485263 13.17755483
   0.03525468  4.86578575 10.41034738
  -0.02351390  4.83185567  3.75750805
   1.42052095  5.66556952  0.97806600
   1.38126174  5.64290323  8.47658893
   0.00176783  6.43011233  5.68940727
   0.03872647  6.45366548 13.17755483
   1.40854650  7.25210819 10.39253715
   1.41993740  7.26436825  3.76492509
   6.99371683  0.79152858  0.95925952
   7.02324428  0.80289274  8.46676895
   5.60697356  1.61138512  5.68321528
   5.61277355  1.61473377 13.17609096
   4.19565667  2.42236350 10.34974904
   4.17939410  2.41297423  3.79479942
   5.61915226  3.24421908  0.92938519
   5.61610413  3.24245922  8.50955705
   4.19898721  4.05008903  5.68321528
   4.20478720  4.05343768 13.17609096
   2.78851649  4.86193007 10.39253715
   2.80482948  4.86566481  3.76492509
   4.18234226  5.66097217  0.95925952
   4.20694761  5.68086165  8.46676895
   2.83412234  6.48171268  5.67671495
   2.78137177  6.45125716 13.18259129
 


--------------------------------------------------------------------------------------------------------


 use serial FFT for orbitals x direction half grid
 k-point  1 :   0.0000 0.0000 0.0000  plane waves:   10912

 maximum and minimum number of plane-waves per node :     10912    10912

 maximum number of plane-waves:     10912
 maximum index in each direction: 
   IXMAX=   15   IYMAX=   25   IZMAX=   13
   IXMIN=    0   IYMIN=  -25   IZMIN=  -15

 The following grids will avoid any aliasing or wrap around errors in the Hartre
 e energy
  - symmetry arguments have not been applied
  - exchange correlation energies might require even more grid points
  - we recommend to set PREC=Normal or Accurate and rely on VASP defaults
 NGX is ok and might be reduce to    64
 NGY is ok and might be reduce to   108
 NGZ is ok and might be reduce to    60

 serial   3D FFT for wavefunctions
 parallel 3D FFT for charge:
    minimum data exchange during FFTs selected (reduces bandwidth)


 total amount of memory used by VASP MPI-rank0   145399. kBytes
=======================================================================

   base      :      30000. kBytes
   nonlr-proj:      39872. kBytes
   fftplans  :       9349. kBytes
   grid      :      55332. kBytes
   one-center:       1368. kBytes
   wavefun   :       9478. kBytes
 
     INWAV:  cpu time    0.0000: real time    0.0000
 Broyden mixing: mesh for mixing (old mesh)
   NGX = 31   NGY = 51   NGZ = 31
  (NGX  =128   NGY  =216   NGZ  =128)
  gives a total of  49011 points

 initial charge density was supplied:
 charge density of overlapping atoms calculated
 number of electron     615.0000000 magnetization      67.5000000
 keeping initial charge density in first step


--------------------------------------------------------------------------------------------------------


 Maximum index for non-local projection operator         6697
 Maximum index for augmentation-charges         1104 (set IRDMAX)


--------------------------------------------------------------------------------------------------------


 First call to EWALD:  gamma=   0.186
 Maximum number of real-space cells 3x 2x 3
 Maximum number of reciprocal cells 2x 4x 2

    FEWALD:  cpu time    0.0034: real time    0.0034


--------------------------------------- Iteration      1(   1)  ---------------------------------------


    POTLOK:  cpu time    0.2594: real time    0.3122
    SETDIJ:  cpu time    0.0280: real time    0.0280
     EDDAV:  cpu time    4.4980: real time    4.5261
    --------------------------------------------
      LOOP:  cpu time    4.7859: real time    4.8669

 eigenvalue-minimisations  :  1664
 total energy-change (2. order) : 0.1097537E+05  (-0.2818047E+05)
 number of electron     615.0000000 magnetization      67.5000000
 augmentation part      615.0000000 magnetization      67.5000000

 Free energy of the ion-electron system (eV)
  ---------------------------------------------------
  alpha Z        PSCENC =      1911.94809052
  Ewald energy   TEWEN  =    -35416.70507901
  -Hartree energ DENC   =    -19692.91280715
  -exchange      EXHF   =         0.00000000
  -V(xc)+E(xc)   XCENC  =      2494.44307122
  PAW double counting   =     45216.04084387   -47205.31274247
  entropy T*S    EENTRO =        -0.01767136
  eigenvalues    EBANDS =      9925.18955541
  atomic energy  EATOM  =     53742.69348082
  Solvation  Ediel_sol  =         0.00000000
  ---------------------------------------------------
  free energy    TOTEN  =     10975.36674185 eV

  energy without entropy =    10975.38441321  energy(sigma->0) =    10975.37557753


--------------------------------------------------------------------------------------------------------




--------------------------------------- Iteration      1(   2)  ---------------------------------------


     EDDAV:  cpu time    4.6723: real time    4.6834
    --------------------------------------------
      LOOP:  cpu time    4.6721: real time    4.6832

 eigenvalue-minimisations  :  1760
 total energy-change (2. order) :-0.8893798E+04  (-0.8042695E+04)
 number of electron     615.0000000 magnetization      67.5000000
 augmentation part      615.0000000 magnetization      67.5000000

 Free energy of the ion-electron system (eV)
  ---------------------------------------------------
  alpha Z        PSCENC =      1911.94809052
  Ewald energy   TEWEN  =    -35416.70507901
  -Hartree energ DENC   =    -19692.91280715
  -exchange      EXHF   =         0.00000000
  -V(xc)+E(xc)   XCENC  =      2494.44307122
  PAW double counting   =     45216.04084387   -47205.31274247
  entropy T*S    EENTRO =        -0.01808080
  eigenvalues    EBANDS =      1031.39241648
  atomic energy  EATOM  =     53742.69348082
  Solvation  Ediel_sol  =         0.00000000
  ---------------------------------------------------
  free energy    TOTEN  =      2081.56919347 eV

  energy without entropy =     2081.58727428  energy(sigma->0) =     2081.57823388


--------------------------------------------------------------------------------------------------------




--------------------------------------- Iteration      1(   3)  ---------------------------------------


     EDDAV:  cpu time    4.8023: real time    4.8138
    --------------------------------------------
      LOOP:  cpu time    4.8024: real time    4.8138

 eigenvalue-minimisations  :  1824
 total energy-change (2. order) :-0.2419972E+04  (-0.2042683E+04)
 number of electron     615.0000000 magnetization      67.5000000
 augmentation part      615.0000000 magnetization      67.5000000

 Free energy of the ion-electron system (eV)
  ---------------------------------------------------
  alpha Z        PSCENC =      1911.94809052
  Ewald energy   TEWEN  =    -35416.70507901
  -Hartree energ DENC   =    -19692.91280715
  -exchange      EXHF   =         0.00000000
  -V(xc)+E(xc)   XCENC  =      2494.44307122
  PAW double counting   =     45216.04084387   -47205.31274247
  entropy T*S    EENTRO =        -0.13509555
  eigenvalues    EBANDS =     -1388.46218504
  atomic energy  EATOM  =     53742.69348082
  Solvation  Ediel_sol  =         0.00000000
  ---------------------------------------------------
  free energy    TOTEN  =      -338.40242279 eV

  energy without entropy =     -338.26732724  energy(sigma->0) =     -338.33487502


--------------------------------------------------------------------------------------------------------




--------------------------------------- Iteration      1(   4)  ---------------------------------------


     EDDAV:  cpu time    5.0274: real time    5.0394
    --------------------------------------------
      LOOP:  cpu time    5.0274: real time    5.0394

 eigenvalue-minimisations  :  1936
 total energy-change (2. order) :-0.3795707E+03  (-0.3639126E+03)
 number of electron     615.0000000 magnetization      67.5000000
 augmentation part      615.0000000 magnetization      67.5000000

 Free energy of the ion-electron system (eV)
  ---------------------------------------------------
  alpha Z        PSCENC =      1911.94809052
  Ewald energy   TEWEN  =    -35416.70507901
  -Hartree energ DENC   =    -19692.91280715
  -exchange      EXHF   =         0.00000000
  -V(xc)+E(xc)   XCENC  =      2494.44307122
  PAW double counting   =     45216.04084387   -47205.31274247
  entropy T*S    EENTRO =        -0.26735949
  eigenvalues    EBANDS =     -1767.90066730
  atomic energy  EATOM  =     53742.69348082
  Solvation  Ediel_sol  =         0.00000000
  ---------------------------------------------------
  free energy    TOTEN  =      -717.97316899 eV

  energy without entropy =     -717.70580950  energy(sigma->0) =     -717.83948925


--------------------------------------------------------------------------------------------------------




--------------------------------------- Iteration      1(   5)  ---------------------------------------


     EDDAV:  cpu time    5.7343: real time    5.7479
    CHARGE:  cpu time    0.3348: real time    0.3356
    MIXING:  cpu time    0.0051: real time    0.0051
    --------------------------------------------
      LOOP:  cpu time    6.0739: real time    6.0883

 eigenvalue-minimisations  :  2288
 total energy-change (2. order) :-0.1618535E+02  (-0.1602264E+02)
 number of electron     614.9999964 magnetization      69.0457981
 augmentation part      179.6273392 magnetization      51.2468963

 Broyden mixing:
  rms(total) = 0.16126E+02    rms(broyden)= 0.16125E+02
  rms(prec ) = 0.17895E+02
  weight for this iteration     100.00

 Free energy of the ion-electron system (eV)
  ---------------------------------------------------
  alpha Z        PSCENC =      1911.94809052
  Ewald energy   TEWEN  =    -35416.70507901
  -Hartree energ DENC   =    -19692.91280715
  -exchange      EXHF   =         0.00000000
  -V(xc)+E(xc)   XCENC  =      2494.44307122
  PAW double counting   =     45216.04084387   -47205.31274247
  entropy T*S    EENTRO =        -0.26822809
  eigenvalues    EBANDS =     -1784.08514845
  atomic energy  EATOM  =     53742.69348082
  Solvation  Ediel_sol  =         0.00000000
  ---------------------------------------------------
  free energy    TOTEN  =      -734.15851874 eV

  energy without entropy =     -733.89029065  energy(sigma->0) =     -734.02440469


--------------------------------------------------------------------------------------------------------




--------------------------------------- Iteration      1(   6)  ---------------------------------------


    POTLOK:  cpu time    0.2256: real time    0.2262
    SETDIJ:  cpu time    0.0288: real time    0.0289
     EDDAV:  cpu time    6.3650: real time    6.3802
    CHARGE:  cpu time    0.3259: real time    0.3267
    MIXING:  cpu time    0.0050: real time    0.0050
    --------------------------------------------
      LOOP:  cpu time    6.9504: real time    6.9670

 eigenvalue-minimisations  :  2608
 total energy-change (2. order) :-0.1657150E+03  (-0.1764352E+03)
 number of electron     614.9999975 magnetization      64.9214888
 augmentation part      229.7684439 magnetization      66.7022350

 Broyden mixing:
  rms(total) = 0.31080E+02    rms(broyden)= 0.31079E+02
  rms(prec ) = 0.32533E+02
  weight for this iteration     100.00

 eigenvalues of (default mixing * dielectric matrix)
  average eigenvalue GAMMA=   0.2031
  0.2031

 Free energy of the ion-electron system (eV)
  ---------------------------------------------------
  alpha Z        PSCENC =      1911.94809052
  Ewald energy   TEWEN  =    -35416.70507901
  -Hartree energ DENC   =    -18751.60129723
  -exchange      EXHF   =         0.00000000
  -V(xc)+E(xc)   XCENC  =      2510.59237051
  PAW double counting   =     50089.99314673   -51778.83019887
  entropy T*S    EENTRO =        -0.04652434
  eigenvalues    EBANDS =     -3207.91753361
  atomic energy  EATOM  =     53742.69348082
  Solvation  Ediel_sol  =         0.00000000
  ---------------------------------------------------
  free energy    TOTEN  =      -899.87354448 eV

  energy without entropy =     -899.82702013  energy(sigma->0) =     -899.85028231


--------------------------------------------------------------------------------------------------------




--------------------------------------- Iteration      1(   7)  ---------------------------------------


    POTLOK:  cpu time    0.2254: real time    0.2259
    SETDIJ:  cpu time    0.0292: real time    0.0292
     EDDAV:  cpu time    5.7493: real time    5.7630
    CHARGE:  cpu time    0.3264: real time    0.3272
    MIXING:  cpu time    0.0055: real time    0.0055
    --------------------------------------------
      LOOP:  cpu time    6.3358: real time    6.3509

 eigenvalue-minimisations  :  2304
 total energy-change (2. order) : 0.2015893E+03  (-0.5776241E+02)
 number of electron     614.9999975 magnetization      58.7061605
 augmentation part      220.3598703 magnetization      54.0516641

 Broyden mixing:
  rms(total) = 0.16131E+02    rms(broyden)= 0.16130E+02
  rms(prec ) = 0.17348E+02
  weight for this iteration     100.00

 eigenvalues of (default mixing * dielectric matrix)
  average eigenvalue GAMMA=   0.4917
  0.4917  0.4917

 Free energy of the ion-electron system (eV)
  ---------------------------------------------------
  alpha Z        PSCENC =      1911.94809052
  Ewald energy   TEWEN  =    -35416.70507901
  -Hartree energ DENC   =    -18972.02129447
  -exchange      EXHF   =         0.00000000
  -V(xc)+E(xc)   XCENC  =      2495.08194337
  PAW double counting   =     51702.03558672   -53531.81468106
  entropy T*S    EENTRO =        -0.07984054
  eigenvalues    EBANDS =     -2629.42248203
  atomic energy  EATOM  =     53742.69348082
  Solvation  Ediel_sol  =         0.00000000
  ---------------------------------------------------
  free energy    TOTEN  =      -698.28427569 eV

  energy without entropy =     -698.20443514  energy(sigma->0) =     -698.24435541


--------------------------------------------------------------------------------------------------------




--------------------------------------- Iteration      1(   8)  ---------------------------------------


    POTLOK:  cpu time    0.2252: real time    0.2257
    SETDIJ:  cpu time    0.0286: real time    0.0287
     EDDAV:  cpu time    6.6176: real time    6.6333
    CHARGE:  cpu time    0.3259: real time    0.3267
    MIXING:  cpu time    0.0061: real time    0.0061
    --------------------------------------------
      LOOP:  cpu time    7.2034: real time    7.2205

 eigenvalue-minimisations  :  2736
 total energy-change (2. order) :-0.3255358E+02  (-0.5199964E+02)
 number of electron     614.9999976 magnetization      54.3980571
 augmentation part      204.1061931 magnetization      52.0050095

 Broyden mixing:
  rms(total) = 0.15175E+02    rms(broyden)= 0.15174E+02
  rms(prec ) = 0.21096E+02
  weight for this iteration     100.00

 eigenvalues of (default mixing * dielectric matrix)
  average eigenvalue GAMMA=   0.4516
  0.5716  0.5716  0.2116

 Free energy of the ion-electron system (eV)
  ---------------------------------------------------
  alpha Z        PSCENC =      1911.94809052
  Ewald energy   TEWEN  =    -35416.70507901
  -Hartree energ DENC   =    -19149.15862219
  -exchange      EXHF   =         0.00000000
  -V(xc)+E(xc)   XCENC  =      2478.89142075
  PAW double counting   =     53791.08648741   -55787.73138522
  entropy T*S    EENTRO =        -0.07507409
  eigenvalues    EBANDS =     -2301.78717915
  atomic energy  EATOM  =     53742.69348082
  Solvation  Ediel_sol  =         0.00000000
  ---------------------------------------------------
  free energy    TOTEN  =      -730.83786016 eV

  energy without entropy =     -730.76278607  energy(sigma->0) =     -730.80032312


--------------------------------------------------------------------------------------------------------




--------------------------------------- Iteration      1(   9)  ---------------------------------------


    POTLOK:  cpu time    0.2253: real time    0.2258
    SETDIJ:  cpu time    0.0284: real time    0.0285
     EDDAV:  cpu time    5.8174: real time    5.8312
    CHARGE:  cpu time    0.3221: real time    0.3228
    MIXING:  cpu time    0.0058: real time    0.0058
    --------------------------------------------
      LOOP:  cpu time    6.3989: real time    6.4141

 eigenvalue-minimisations  :  2336
 total energy-change (2. order) : 0.1089933E+03  (-0.3635538E+02)
 number of electron     614.9999966 magnetization      50.2964516
 augmentation part      196.4935257 magnetization      46.5031830

 Broyden mixing:
  rms(total) = 0.13414E+02    rms(broyden)= 0.13413E+02
  rms(prec ) = 0.15188E+02
  weight for this iteration     100.00

 eigenvalues of (default mixing * dielectric matrix)
  average eigenvalue GAMMA=   0.3845
  0.5907  0.5907  0.2314  0.1251

 Free energy of the ion-electron system (eV)
  ---------------------------------------------------
  alpha Z        PSCENC =      1911.94809052
  Ewald energy   TEWEN  =    -35416.70507901
  -Hartree energ DENC   =    -19136.80625865
  -exchange      EXHF   =         0.00000000
  -V(xc)+E(xc)   XCENC  =      2475.26394549
  PAW double counting   =     54898.26859770   -56927.43942292
  entropy T*S    EENTRO =        -0.07547383
  eigenvalues    EBANDS =     -2168.99242694
  atomic energy  EATOM  =     53742.69348082
  Solvation  Ediel_sol  =         0.00000000
  ---------------------------------------------------
  free energy    TOTEN  =      -621.84454681 eV

  energy without entropy =     -621.76907298  energy(sigma->0) =     -621.80680990


--------------------------------------------------------------------------------------------------------




--------------------------------------- Iteration      1(  10)  ---------------------------------------


    POTLOK:  cpu time    0.2250: real time    0.2255
    SETDIJ:  cpu time    0.0284: real time    0.0285
     EDDAV:  cpu time    5.7806: real time    5.7944
    CHARGE:  cpu time    0.3224: real time    0.3232
    MIXING:  cpu time    0.0058: real time    0.0058
    --------------------------------------------
      LOOP:  cpu time    6.3622: real time    6.3774

 eigenvalue-minimisations  :  2320
 total energy-change (2. order) : 0.4780893E+02  (-0.1849241E+02)
 number of electron     614.9999963 magnetization      46.5898921
 augmentation part      200.2960475 magnetization      43.2267983

 Broyden mixing:
  rms(total) = 0.77302E+01    rms(broyden)= 0.77296E+01
  rms(prec ) = 0.86598E+01
  weight for this iteration     100.00

 eigenvalues of (default mixing * dielectric matrix)
  average eigenvalue GAMMA=   0.4098
  0.6375  0.6375  0.3066  0.3066  0.1609

 Free energy of the ion-electron system (eV)
  ---------------------------------------------------
  alpha Z        PSCENC =      1911.94809052
  Ewald energy   TEWEN  =    -35416.70507901
  -Hartree energ DENC   =    -19108.98548867
  -exchange      EXHF   =         0.00000000
  -V(xc)+E(xc)   XCENC  =      2474.57642581
  PAW double counting   =     55899.63521593   -57951.10963033
  entropy T*S    EENTRO =        -0.06715877
  eigenvalues    EBANDS =     -2126.02147054
  atomic energy  EATOM  =     53742.69348082
  Solvation  Ediel_sol  =         0.00000000
  ---------------------------------------------------
  free energy    TOTEN  =      -574.03561425 eV

  energy without entropy =     -573.96845548  energy(sigma->0) =     -574.00203486


--------------------------------------------------------------------------------------------------------




--------------------------------------- Iteration      1(  11)  ---------------------------------------


    POTLOK:  cpu time    0.2261: real time    0.2267
    SETDIJ:  cpu time    0.0284: real time    0.0284
     EDDAV:  cpu time    5.2347: real time    5.2471
    CHARGE:  cpu time    0.3268: real time    0.3276
    MIXING:  cpu time    0.0060: real time    0.0060
    --------------------------------------------
      LOOP:  cpu time    5.8220: real time    5.8358

 eigenvalue-minimisations  :  2032
 total energy-change (2. order) : 0.1402062E+02  (-0.6848395E+01)
 number of electron     614.9999967 magnetization      41.8155534
 augmentation part      201.0914528 magnetization      36.9075195

 Broyden mixing:
  rms(total) = 0.74023E+01    rms(broyden)= 0.74018E+01
  rms(prec ) = 0.89473E+01
  weight for this iteration     100.00

 eigenvalues of (default mixing * dielectric matrix)
  average eigenvalue GAMMA=   0.4361
  0.7437  0.7437  0.3966  0.3966  0.1866  0.1497

 Free energy of the ion-electron system (eV)
  ---------------------------------------------------
  alpha Z        PSCENC =      1911.94809052
  Ewald energy   TEWEN  =    -35416.70507901
  -Hartree energ DENC   =    -19128.41018123
  -exchange      EXHF   =         0.00000000
  -V(xc)+E(xc)   XCENC  =      2477.06811827
  PAW double counting   =     56518.84532294   -58583.26820841
  entropy T*S    EENTRO =        -0.03979927
  eigenvalues    EBANDS =     -2082.14674033
  atomic energy  EATOM  =     53742.69348082
  Solvation  Ediel_sol  =         0.00000000
  ---------------------------------------------------
  free energy    TOTEN  =      -560.01499570 eV

  energy without entropy =     -559.97519643  energy(sigma->0) =     -559.99509606


--------------------------------------------------------------------------------------------------------




--------------------------------------- Iteration      1(  12)  ---------------------------------------


    POTLOK:  cpu time    0.2252: real time    0.2258
    SETDIJ:  cpu time    0.0287: real time    0.0287
     EDDAV:  cpu time    6.0033: real time    6.0175
    CHARGE:  cpu time    0.3231: real time    0.3239
    MIXING:  cpu time    0.0062: real time    0.0062
    --------------------------------------------
      LOOP:  cpu time    6.5865: real time    6.6021

 eigenvalue-minimisations  :  2416
 total energy-change (2. order) : 0.2698555E+02  (-0.4241308E+01)
 number of electron     614.9999966 magnetization      37.4485481
 augmentation part      200.7435638 magnetization      35.6560741

 Broyden mixing:
  rms(total) = 0.49249E+01    rms(broyden)= 0.49244E+01
  rms(prec ) = 0.55044E+01
  weight for this iteration     100.00

 eigenvalues of (default mixing * dielectric matrix)
  average eigenvalue GAMMA=   0.4507
  0.8310  0.8310  0.4425  0.4425  0.2903  0.1807  0.1372

 Free energy of the ion-electron system (eV)
  ---------------------------------------------------
  alpha Z        PSCENC =      1911.94809052
  Ewald energy   TEWEN  =    -35416.70507901
  -Hartree energ DENC   =    -19156.37590951
  -exchange      EXHF   =         0.00000000
  -V(xc)+E(xc)   XCENC  =      2479.82725988
  PAW double counting   =     57157.72540664   -59226.85202905
  entropy T*S    EENTRO =        -0.02988308
  eigenvalues    EBANDS =     -2025.26078654
  atomic energy  EATOM  =     53742.69348082
  Solvation  Ediel_sol  =         0.00000000
  ---------------------------------------------------
  free energy    TOTEN  =      -533.02944932 eV

  energy without entropy =     -532.99956624  energy(sigma->0) =     -533.01450778


--------------------------------------------------------------------------------------------------------




--------------------------------------- Iteration      1(  13)  ---------------------------------------


    POTLOK:  cpu time    0.2252: real time    0.2257
    SETDIJ:  cpu time    0.0284: real time    0.0285
     EDDAV:  cpu time    6.1001: real time    6.1145
    CHARGE:  cpu time    0.3219: real time    0.3227
    MIXING:  cpu time    0.0065: real time    0.0065
    --------------------------------------------
      LOOP:  cpu time    6.6821: real time    6.6980

 eigenvalue-minimisations  :  2464
 total energy-change (2. order) : 0.8239473E+01  (-0.3482707E+01)
 number of electron     614.9999965 magnetization      30.0582629
 augmentation part      202.1477252 magnetization      26.7814182

 Broyden mixing:
  rms(total) = 0.31132E+01    rms(broyden)= 0.31128E+01
  rms(prec ) = 0.37900E+01
  weight for this iteration     100.00

 eigenvalues of (default mixing * dielectric matrix)
  average eigenvalue GAMMA=   0.4803
  0.9621  0.9621  0.4720  0.4720  0.3291  0.3291  0.1730  0.1428

 Free energy of the ion-electron system (eV)
  ---------------------------------------------------
  alpha Z        PSCENC =      1911.94809052
  Ewald energy   TEWEN  =    -35416.70507901
  -Hartree energ DENC   =    -19158.49477133
  -exchange      EXHF   =         0.00000000
  -V(xc)+E(xc)   XCENC  =      2482.09767514
  PAW double counting   =     57741.44197521   -59814.18791875
  entropy T*S    EENTRO =        -0.02157824
  eigenvalues    EBANDS =     -2013.56185078
  atomic energy  EATOM  =     53742.69348082
  Solvation  Ediel_sol  =         0.00000000
  ---------------------------------------------------
  free energy    TOTEN  =      -524.78997642 eV

  energy without entropy =     -524.76839818  energy(sigma->0) =     -524.77918730


--------------------------------------------------------------------------------------------------------




--------------------------------------- Iteration      1(  14)  ---------------------------------------


    POTLOK:  cpu time    0.2251: real time    0.2256
    SETDIJ:  cpu time    0.0284: real time    0.0285
     EDDAV:  cpu time    5.5231: real time    5.5362
    CHARGE:  cpu time    0.3267: real time    0.3275
    MIXING:  cpu time    0.0068: real time    0.0068
    --------------------------------------------
      LOOP:  cpu time    6.1101: real time    6.1246

 eigenvalue-minimisations  :  2176
 total energy-change (2. order) : 0.2986831E+01  (-0.1503135E+01)
 number of electron     614.9999965 magnetization      26.9081216
 augmentation part      203.2077552 magnetization      22.8156671

 Broyden mixing:
  rms(total) = 0.28740E+01    rms(broyden)= 0.28735E+01
  rms(prec ) = 0.31934E+01
  weight for this iteration     100.00

 eigenvalues of (default mixing * dielectric matrix)
  average eigenvalue GAMMA=   0.4975
  1.2015  0.6760  0.6760  0.5484  0.4196  0.4196  0.2209  0.1720  0.1429

 Free energy of the ion-electron system (eV)
  ---------------------------------------------------
  alpha Z        PSCENC =      1911.94809052
  Ewald energy   TEWEN  =    -35416.70507901
  -Hartree energ DENC   =    -19179.24925885
  -exchange      EXHF   =         0.00000000
  -V(xc)+E(xc)   XCENC  =      2483.95717123
  PAW double counting   =     58663.50313612   -60741.29539326
  entropy T*S    EENTRO =        -0.04729893
  eigenvalues    EBANDS =     -1986.60799374
  atomic energy  EATOM  =     53742.69348082
  Solvation  Ediel_sol  =         0.00000000
  ---------------------------------------------------
  free energy    TOTEN  =      -521.80314510 eV

  energy without entropy =     -521.75584617  energy(sigma->0) =     -521.77949564


--------------------------------------------------------------------------------------------------------




--------------------------------------- Iteration      1(  15)  ---------------------------------------


    POTLOK:  cpu time    0.2250: real time    0.2256
    SETDIJ:  cpu time    0.0285: real time    0.0286
     EDDAV:  cpu time    6.1015: real time    6.1160
    CHARGE:  cpu time    0.3264: real time    0.3272
    MIXING:  cpu time    0.0071: real time    0.0071
    --------------------------------------------
      LOOP:  cpu time    6.6885: real time    6.7044

 eigenvalue-minimisations  :  2464
 total energy-change (2. order) :-0.4156152E+01  (-0.8464756E+00)
 number of electron     614.9999966 magnetization      25.4168946
 augmentation part      202.2749148 magnetization      21.3399290

 Broyden mixing:
  rms(total) = 0.19053E+01    rms(broyden)= 0.19049E+01
  rms(prec ) = 0.20306E+01
  weight for this iteration     100.00

 eigenvalues of (default mixing * dielectric matrix)
  average eigenvalue GAMMA=   0.4892
  1.3375  0.6720  0.6720  0.4551  0.4551  0.3718  0.3718  0.2397  0.1739  0.1427

 Free energy of the ion-electron system (eV)
  ---------------------------------------------------
  alpha Z        PSCENC =      1911.94809052
  Ewald energy   TEWEN  =    -35416.70507901
  -Hartree energ DENC   =    -19201.65318668
  -exchange      EXHF   =         0.00000000
  -V(xc)+E(xc)   XCENC  =      2481.43288041
  PAW double counting   =     59053.49022266   -61139.70036711
  entropy T*S    EENTRO =        -0.02974308
  eigenvalues    EBANDS =     -1957.43559613
  atomic energy  EATOM  =     53742.69348082
  Solvation  Ediel_sol  =         0.00000000
  ---------------------------------------------------
  free energy    TOTEN  =      -525.95929759 eV

  energy without entropy =     -525.92955452  energy(sigma->0) =     -525.94442606


--------------------------------------------------------------------------------------------------------




--------------------------------------- Iteration      1(  16)  ---------------------------------------


    POTLOK:  cpu time    0.2256: real time    0.2262
    SETDIJ:  cpu time    0.0284: real time    0.0284
     EDDAV:  cpu time    5.6830: real time    5.6964
    CHARGE:  cpu time    0.3277: real time    0.3285
    MIXING:  cpu time    0.0073: real time    0.0074
    --------------------------------------------
      LOOP:  cpu time    6.2720: real time    6.2869

 eigenvalue-minimisations  :  2256
 total energy-change (2. order) :-0.2755250E+01  (-0.7706556E+00)
 number of electron     614.9999966 magnetization      23.3378129
 augmentation part      202.2770304 magnetization      19.8857142

 Broyden mixing:
  rms(total) = 0.19637E+01    rms(broyden)= 0.19635E+01
  rms(prec ) = 0.21069E+01
  weight for this iteration     100.00

 eigenvalues of (default mixing * dielectric matrix)
  average eigenvalue GAMMA=   0.4861
  1.2617  0.7287  0.7287  0.4584  0.4584  0.4948  0.3580  0.3580  0.1430  0.1701
  0.1872

 Free energy of the ion-electron system (eV)
  ---------------------------------------------------
  alpha Z        PSCENC =      1911.94809052
  Ewald energy   TEWEN  =    -35416.70507901
  -Hartree energ DENC   =    -19199.37795004
  -exchange      EXHF   =         0.00000000
  -V(xc)+E(xc)   XCENC  =      2480.00028344
  PAW double counting   =     59218.31611106   -61305.39038417
  entropy T*S    EENTRO =        -0.04272255
  eigenvalues    EBANDS =     -1960.15637729
  atomic energy  EATOM  =     53742.69348082
  Solvation  Ediel_sol  =         0.00000000
  ---------------------------------------------------
  free energy    TOTEN  =      -528.71454721 eV

  energy without entropy =     -528.67182466  energy(sigma->0) =     -528.69318594


--------------------------------------------------------------------------------------------------------




--------------------------------------- Iteration      1(  17)  ---------------------------------------


    POTLOK:  cpu time    0.2254: real time    0.2259
    SETDIJ:  cpu time    0.0285: real time    0.0286
     EDDAV:  cpu time    5.6812: real time    5.6946
    CHARGE:  cpu time    0.3280: real time    0.3288
    MIXING:  cpu time    0.0076: real time    0.0076
    --------------------------------------------
      LOOP:  cpu time    6.2707: real time    6.2856

 eigenvalue-minimisations  :  2256
 total energy-change (2. order) :-0.4340692E+01  (-0.7123639E+00)
 number of electron     614.9999966 magnetization      20.4981370
 augmentation part      202.2261041 magnetization      16.9008598

 Broyden mixing:
  rms(total) = 0.16979E+01    rms(broyden)= 0.16977E+01
  rms(prec ) = 0.18726E+01
  weight for this iteration     100.00

 eigenvalues of (default mixing * dielectric matrix)
  average eigenvalue GAMMA=   0.5100
  1.2818  0.8873  0.8873  0.5196  0.5196  0.4973  0.4140  0.4140  0.2129  0.1428
  0.1739  0.1692

 Free energy of the ion-electron system (eV)
  ---------------------------------------------------
  alpha Z        PSCENC =      1911.94809052
  Ewald energy   TEWEN  =    -35416.70507901
  -Hartree energ DENC   =    -19195.74474564
  -exchange      EXHF   =         0.00000000
  -V(xc)+E(xc)   XCENC  =      2477.89729967
  PAW double counting   =     59368.68966828   -61455.06045829
  entropy T*S    EENTRO =        -0.03340104
  eigenvalues    EBANDS =     -1966.74009453
  atomic energy  EATOM  =     53742.69348082
  Solvation  Ediel_sol  =         0.00000000
  ---------------------------------------------------
  free energy    TOTEN  =      -533.05523922 eV

  energy without entropy =     -533.02183818  energy(sigma->0) =     -533.03853870


--------------------------------------------------------------------------------------------------------




--------------------------------------- Iteration      1(  18)  ---------------------------------------


    POTLOK:  cpu time    0.2254: real time    0.2259
    SETDIJ:  cpu time    0.0284: real time    0.0285
     EDDAV:  cpu time    5.7154: real time    5.7289
    CHARGE:  cpu time    0.3265: real time    0.3273
    MIXING:  cpu time    0.0086: real time    0.0086
    --------------------------------------------
      LOOP:  cpu time    6.3043: real time    6.3193

 eigenvalue-minimisations  :  2272
 total energy-change (2. order) :-0.4431388E+01  (-0.4923369E+00)
 number of electron     614.9999966 magnetization      16.3461677
 augmentation part      202.4739878 magnetization      13.0376221

 Broyden mixing:
  rms(total) = 0.16702E+01    rms(broyden)= 0.16700E+01
  rms(prec ) = 0.18334E+01
  weight for this iteration     100.00

 eigenvalues of (default mixing * dielectric matrix)
  average eigenvalue GAMMA=   0.5536
  1.3319  1.2059  1.2059  0.5752  0.5752  0.5187  0.4237  0.4237  0.2412  0.2213
  0.1740  0.1431  0.1569

 Free energy of the ion-electron system (eV)
  ---------------------------------------------------
  alpha Z        PSCENC =      1911.94809052
  Ewald energy   TEWEN  =    -35416.70507901
  -Hartree energ DENC   =    -19182.77876876
  -exchange      EXHF   =         0.00000000
  -V(xc)+E(xc)   XCENC  =      2475.45954445
  PAW double counting   =     59586.63744214   -61671.42223577
  entropy T*S    EENTRO =        -0.03368817
  eigenvalues    EBANDS =     -1983.28541337
  atomic energy  EATOM  =     53742.69348082
  Solvation  Ediel_sol  =         0.00000000
  ---------------------------------------------------
  free energy    TOTEN  =      -537.48662715 eV

  energy without entropy =     -537.45293898  energy(sigma->0) =     -537.46978307


--------------------------------------------------------------------------------------------------------




--------------------------------------- Iteration      1(  19)  ---------------------------------------


    POTLOK:  cpu time    0.2255: real time    0.2261
    SETDIJ:  cpu time    0.0285: real time    0.0286
     EDDAV:  cpu time    5.8125: real time    5.8262
    CHARGE:  cpu time    0.3268: real time    0.3276
    MIXING:  cpu time    0.0081: real time    0.0081
    --------------------------------------------
      LOOP:  cpu time    6.4014: real time    6.4166

 eigenvalue-minimisations  :  2320
 total energy-change (2. order) :-0.5077809E+01  (-0.8825655E+00)
 number of electron     614.9999966 magnetization      12.9412146
 augmentation part      202.3503567 magnetization      10.1893209

 Broyden mixing:
  rms(total) = 0.12954E+01    rms(broyden)= 0.12951E+01
  rms(prec ) = 0.14554E+01
  weight for this iteration     100.00

 eigenvalues of (default mixing * dielectric matrix)
  average eigenvalue GAMMA=   0.5715
  1.5005  1.5005  0.8690  0.8690  0.5522  0.5522  0.4269  0.4269  0.4150  0.2212
  0.1429  0.1896  0.1736  0.1611

 Free energy of the ion-electron system (eV)
  ---------------------------------------------------
  alpha Z        PSCENC =      1911.94809052
  Ewald energy   TEWEN  =    -35416.70507901
  -Hartree energ DENC   =    -19170.78975227
  -exchange      EXHF   =         0.00000000
  -V(xc)+E(xc)   XCENC  =      2472.77556681
  PAW double counting   =     59871.19465385   -61956.48970217
  entropy T*S    EENTRO =        -0.02205466
  eigenvalues    EBANDS =     -1997.16964036
  atomic energy  EATOM  =     53742.69348082
  Solvation  Ediel_sol  =         0.00000000
  ---------------------------------------------------
  free energy    TOTEN  =      -542.56443647 eV

  energy without entropy =     -542.54238181  energy(sigma->0) =     -542.55340914


--------------------------------------------------------------------------------------------------------




--------------------------------------- Iteration      1(  20)  ---------------------------------------


    POTLOK:  cpu time    0.2256: real time    0.2261
    SETDIJ:  cpu time    0.0287: real time    0.0287
     EDDAV:  cpu time    5.4580: real time    5.4710
    CHARGE:  cpu time    0.3282: real time    0.3290
    MIXING:  cpu time    0.0084: real time    0.0084
    --------------------------------------------
      LOOP:  cpu time    6.0488: real time    6.0632

 eigenvalue-minimisations  :  2144
 total energy-change (2. order) :-0.1847033E+01  (-0.3707078E+00)
 number of electron     614.9999966 magnetization      11.6183916
 augmentation part      202.2786179 magnetization       9.8023379

 Broyden mixing:
  rms(total) = 0.11195E+01    rms(broyden)= 0.11193E+01
  rms(prec ) = 0.12538E+01
  weight for this iteration     100.00

 eigenvalues of (default mixing * dielectric matrix)
  average eigenvalue GAMMA=   0.5875
  1.7392  1.7392  0.8859  0.8859  0.5587  0.5587  0.4188  0.4188  0.3537  0.3537
  0.2330  0.1429  0.1956  0.1717  0.1561

 Free energy of the ion-electron system (eV)
  ---------------------------------------------------
  alpha Z        PSCENC =      1911.94809052
  Ewald energy   TEWEN  =    -35416.70507901
  -Hartree energ DENC   =    -19166.52400816
  -exchange      EXHF   =         0.00000000
  -V(xc)+E(xc)   XCENC  =      2471.76182224
  PAW double counting   =     60063.46789624   -62149.73996836
  entropy T*S    EENTRO =        -0.03176208
  eigenvalues    EBANDS =     -2001.28194169
  atomic energy  EATOM  =     53742.69348082
  Solvation  Ediel_sol  =         0.00000000
  ---------------------------------------------------
  free energy    TOTEN  =      -544.41146948 eV

  energy without entropy =     -544.37970741  energy(sigma->0) =     -544.39558844


--------------------------------------------------------------------------------------------------------




--------------------------------------- Iteration      1(  21)  ---------------------------------------


    POTLOK:  cpu time    0.2261: real time    0.2266
    SETDIJ:  cpu time    0.0287: real time    0.0288
     EDDAV:  cpu time    5.2503: real time    5.2627
    CHARGE:  cpu time    0.3279: real time    0.3287
    MIXING:  cpu time    0.0087: real time    0.0087
    --------------------------------------------
      LOOP:  cpu time    5.8417: real time    5.8555

 eigenvalue-minimisations  :  2048
 total energy-change (2. order) :-0.4618156E+00  (-0.3649754E+00)
 number of electron     614.9999966 magnetization      10.0177674
 augmentation part      202.6927965 magnetization       8.0048126

 Broyden mixing:
  rms(total) = 0.80354E+00    rms(broyden)= 0.80336E+00
  rms(prec ) = 0.89737E+00
  weight for this iteration     100.00

 eigenvalues of (default mixing * dielectric matrix)
  average eigenvalue GAMMA=   0.6041
  2.2668  1.5567  0.9289  0.9289  0.5942  0.5942  0.4227  0.4227  0.4256  0.4256
  0.2377  0.1429  0.1963  0.1963  0.1717  0.1542

 Free energy of the ion-electron system (eV)
  ---------------------------------------------------
  alpha Z        PSCENC =      1911.94809052
  Ewald energy   TEWEN  =    -35416.70507901
  -Hartree energ DENC   =    -19161.24039962
  -exchange      EXHF   =         0.00000000
  -V(xc)+E(xc)   XCENC  =      2471.50825716
  PAW double counting   =     60120.48965121   -62205.33731841
  entropy T*S    EENTRO =        -0.04220208
  eigenvalues    EBANDS =     -2008.18776563
  atomic energy  EATOM  =     53742.69348082
  Solvation  Ediel_sol  =         0.00000000
  ---------------------------------------------------
  free energy    TOTEN  =      -544.87328505 eV

  energy without entropy =     -544.83108296  energy(sigma->0) =     -544.85218401


--------------------------------------------------------------------------------------------------------




--------------------------------------- Iteration      1(  22)  ---------------------------------------


    POTLOK:  cpu time    0.2253: real time    0.2259
    SETDIJ:  cpu time    0.0287: real time    0.0287
     EDDAV:  cpu time    5.1219: real time    5.1340
    CHARGE:  cpu time    0.3286: real time    0.3294
    MIXING:  cpu time    0.0089: real time    0.0089
    --------------------------------------------
      LOOP:  cpu time    5.7134: real time    5.7270

 eigenvalue-minimisations  :  1984
 total energy-change (2. order) :-0.4356924E+00  (-0.1266620E+00)
 number of electron     614.9999966 magnetization       8.9355680
 augmentation part      202.6161631 magnetization       7.0210071

 Broyden mixing:
  rms(total) = 0.56375E+00    rms(broyden)= 0.56367E+00
  rms(prec ) = 0.64865E+00
  weight for this iteration     100.00

 eigenvalues of (default mixing * dielectric matrix)
  average eigenvalue GAMMA=   0.6253
  2.5954  1.4705  1.0144  1.0144  0.6377  0.6377  0.4285  0.4285  0.4705  0.4705
  0.4043  0.2255  0.1429  0.1852  0.1793  0.1690  0.1553

 Free energy of the ion-electron system (eV)
  ---------------------------------------------------
  alpha Z        PSCENC =      1911.94809052
  Ewald energy   TEWEN  =    -35416.70507901
  -Hartree energ DENC   =    -19162.40432437
  -exchange      EXHF   =         0.00000000
  -V(xc)+E(xc)   XCENC  =      2471.42825451
  PAW double counting   =     60189.78510255   -62275.75671221
  entropy T*S    EENTRO =        -0.03906849
  eigenvalues    EBANDS =     -2006.25872176
  atomic energy  EATOM  =     53742.69348082
  Solvation  Ediel_sol  =         0.00000000
  ---------------------------------------------------
  free energy    TOTEN  =      -545.30897743 eV

  energy without entropy =     -545.26990895  energy(sigma->0) =     -545.28944319


--------------------------------------------------------------------------------------------------------




--------------------------------------- Iteration      1(  23)  ---------------------------------------


    POTLOK:  cpu time    0.2254: real time    0.2259
    SETDIJ:  cpu time    0.0284: real time    0.0284
     EDDAV:  cpu time    5.6959: real time    5.7094
    CHARGE:  cpu time    0.3293: real time    0.3301
    MIXING:  cpu time    0.0092: real time    0.0092
    --------------------------------------------
      LOOP:  cpu time    6.2881: real time    6.3030

 eigenvalue-minimisations  :  2272
 total energy-change (2. order) :-0.1160412E+00  (-0.5821567E-01)
 number of electron     614.9999966 magnetization       8.4981673
 augmentation part      202.5646640 magnetization       6.6598959

 Broyden mixing:
  rms(total) = 0.51402E+00    rms(broyden)= 0.51395E+00
  rms(prec ) = 0.56937E+00
  weight for this iteration     100.00

 eigenvalues of (default mixing * dielectric matrix)
  average eigenvalue GAMMA=   0.6112
  2.6593  1.2805  1.0700  1.0700  0.6667  0.6667  0.4935  0.4792  0.4792  0.4310
  0.4310  0.2250  0.2250  0.1937  0.1429  0.1720  0.1618  0.1538

 Free energy of the ion-electron system (eV)
  ---------------------------------------------------
  alpha Z        PSCENC =      1911.94809052
  Ewald energy   TEWEN  =    -35416.70507901
  -Hartree energ DENC   =    -19161.59152094
  -exchange      EXHF   =         0.00000000
  -V(xc)+E(xc)   XCENC  =      2471.38147613
  PAW double counting   =     60202.99917041   -62289.90518977
  entropy T*S    EENTRO =        -0.04279116
  eigenvalues    EBANDS =     -2006.20265564
  atomic energy  EATOM  =     53742.69348082
  Solvation  Ediel_sol  =         0.00000000
  ---------------------------------------------------
  free energy    TOTEN  =      -545.42501864 eV

  energy without entropy =     -545.38222748  energy(sigma->0) =     -545.40362306


--------------------------------------------------------------------------------------------------------




--------------------------------------- Iteration      1(  24)  ---------------------------------------


    POTLOK:  cpu time    0.2254: real time    0.2259
    SETDIJ:  cpu time    0.0285: real time    0.0286
     EDDAV:  cpu time    5.8241: real time    5.8379
    CHARGE:  cpu time    0.3280: real time    0.3288
    MIXING:  cpu time    0.0099: real time    0.0099
    --------------------------------------------
      LOOP:  cpu time    6.4159: real time    6.4311

 eigenvalue-minimisations  :  2336
 total energy-change (2. order) : 0.5250734E-01  (-0.2325616E-01)
 number of electron     614.9999966 magnetization       7.6813696
 augmentation part      202.6013458 magnetization       5.8708689

 Broyden mixing:
  rms(total) = 0.31639E+00    rms(broyden)= 0.31636E+00
  rms(prec ) = 0.34505E+00
  weight for this iteration     100.00

 eigenvalues of (default mixing * dielectric matrix)
  average eigenvalue GAMMA=   0.6306
  2.7689  1.2331  1.2331  1.1361  0.7365  0.7365  0.5526  0.5526  0.5202  0.4288
  0.4288  0.4004  0.2311  0.1429  0.1924  0.1924  0.1740  0.1670  0.1538

 Free energy of the ion-electron system (eV)
  ---------------------------------------------------
  alpha Z        PSCENC =      1911.94809052
  Ewald energy   TEWEN  =    -35416.70507901
  -Hartree energ DENC   =    -19159.70351226
  -exchange      EXHF   =         0.00000000
  -V(xc)+E(xc)   XCENC  =      2471.32566056
  PAW double counting   =     60208.18066832   -62295.39240716
  entropy T*S    EENTRO =        -0.04378925
  eigenvalues    EBANDS =     -2007.67562384
  atomic energy  EATOM  =     53742.69348082
  Solvation  Ediel_sol  =         0.00000000
[...]
   0.923E+01 -.644E+01 -.383E+03   -.901E+01 0.629E+01 0.410E+03   -.221E+00 0.132E+00 -.269E+02   -.312E-02 0.250E-01 -.174E-01
   0.967E+00 -.112E+02 0.383E+03   -.942E+00 0.109E+02 -.410E+03   -.398E-02 0.258E+00 0.269E+02   -.201E-01 0.152E-01 0.174E-01
   -.903E+01 -.521E+01 -.368E+03   0.886E+01 0.512E+01 0.395E+03   0.174E+00 0.100E+00 -.269E+02   -.642E-02 -.371E-02 0.175E-01
   -.273E+02 -.157E+02 0.342E+03   0.297E+02 0.172E+02 -.363E+03   -.251E+01 -.145E+01 0.218E+02   0.214E-01 0.124E-01 0.303E-02
   0.273E+02 0.157E+02 -.342E+03   -.297E+02 -.172E+02 0.363E+03   0.251E+01 0.145E+01 -.218E+02   -.214E-01 -.124E-01 -.303E-02
   0.903E+01 0.522E+01 0.368E+03   -.886E+01 -.512E+01 -.395E+03   -.174E+00 -.100E+00 0.269E+02   0.642E-02 0.371E-02 -.175E-01
   -.967E+00 0.112E+02 -.383E+03   0.942E+00 -.109E+02 0.410E+03   0.398E-02 -.258E+00 -.269E+02   0.201E-01 -.152E-01 -.174E-01
   -.923E+01 0.644E+01 0.383E+03   0.901E+01 -.629E+01 -.410E+03   0.221E+00 -.132E+00 0.269E+02   0.312E-02 -.250E-01 0.174E-01
   -.403E+02 0.226E+02 -.346E+03   0.434E+02 -.240E+02 0.369E+03   -.311E+01 0.143E+01 -.226E+02   -.799E-02 0.297E-02 -.993E-03
   -.697E+00 0.367E+02 0.344E+03   0.391E+00 -.402E+02 -.367E+03   0.316E+00 0.350E+01 0.222E+02   -.864E-02 -.448E-02 -.415E-02
   -.314E+02 0.190E+02 -.344E+03   0.346E+02 -.204E+02 0.367E+03   -.319E+01 0.148E+01 -.222E+02   0.820E-02 0.524E-02 0.415E-02
   0.621E+00 0.462E+02 0.346E+03   -.937E+00 -.496E+02 -.369E+03   0.316E+00 0.341E+01 0.226E+02   0.143E-02 0.841E-02 0.992E-03
   0.287E+02 0.166E+02 -.357E+03   -.315E+02 -.182E+02 0.378E+03   0.285E+01 0.164E+01 -.215E+02   -.144E-01 -.832E-02 0.176E-02
   -.287E+02 -.166E+02 0.357E+03   0.315E+02 0.182E+02 -.378E+03   -.285E+01 -.164E+01 0.215E+02   0.144E-01 0.832E-02 -.176E-02
 -----------------------------------------------------------------------------------------------
   -.203E-02 0.343E-03 0.400E-02   0.526E-12 -.284E-12 -.171E-12   -.888E-15 0.466E-14 -.320E-13   -.236E-07 -.194E-08 0.422E-06
 
 
 POSITION                                       TOTAL-FORCE (eV/Angst)
 -----------------------------------------------------------------------------------
      0.01475      0.00852      7.06872         0.002825      0.001631     -0.003075
      1.41621      0.81765     11.77068         0.005636      0.003254     -0.006442
     -1.40888      4.03202      2.35479        -0.011883     -0.006860     -0.001089
      2.81306      1.62412      2.36138         0.011883      0.006860      0.001089
      0.00119      4.84612      7.08061        -0.005636     -0.003254      0.006442
      1.40264      5.65525     11.78256        -0.002825     -0.001631      0.003075
      2.80114      6.46267      2.36209         0.000000     -0.000000      0.000000
      0.01528      0.00882     14.12986         0.001537      0.000887     -0.011050
      1.40474      0.81102      4.70777         0.000350      0.000202      0.006691
      0.00263      1.62980      9.41198        -0.004197      0.002584      0.001856
      7.01059      2.42350     14.10542        -0.000322     -0.006270      0.003463
      0.01092      3.22281      4.71941         0.003166     -0.001906      0.008669
     -1.39544      4.03977      9.46847        -0.004754     -0.002745     -0.016080
      5.60411      4.85960     14.10542        -0.005591      0.002856      0.003463
     -1.39977      5.66620      4.71941        -0.000068      0.003694      0.008669
     -2.78350      6.45552      9.41198         0.000139     -0.004927      0.001856
     -1.37910      7.26571     14.13187         0.000068     -0.003694     -0.008669
      4.20765      0.80523      4.75389         0.005591     -0.002856     -0.003463
      2.81284      1.62399      9.38282         0.004754      0.002745      0.016080
      1.40647      2.44096     14.13187        -0.003166      0.001906     -0.008669
      2.80117      3.24132      4.75389         0.000322      0.006270     -0.003463
      1.41477      4.03396      9.43931         0.004197     -0.002584     -0.001856
     -0.00056      4.84511      0.00839        -0.000350     -0.000202     -0.006691
      1.40211      5.65494      4.72143        -0.001537     -0.000887      0.011050
      0.00463      6.47639      9.43931        -0.000139      0.004927     -0.001856
      5.58860      0.01140      0.01085         0.000185      0.010347     -0.013275
      6.99437      0.82302      4.71333        -0.009053      0.005013      0.013275
      5.60673      1.61850      9.42965         0.001478     -0.002560      0.000000
      4.21700      2.43468     14.10184         0.000746      0.000431      0.000823
      5.59476      3.23014      4.75747        -0.000746     -0.000431     -0.000823
      4.20503      4.04632      9.42965        -0.001478      0.002560      0.000000
      2.80417      4.83417      0.01085         0.009053     -0.005013     -0.013275
      4.20994      5.64579      4.71333        -0.000185     -0.010347      0.013275
      2.80775      6.46648      9.42965         0.000000      0.000000     -0.000000
      0.03613      0.02086     10.37470         0.002220      0.001281      0.007945
      4.18176      7.25977      3.74612        -0.004808     -0.002776     -0.011840
      1.42769      0.82428      0.95866         0.007831      0.004521      0.003150
      1.38214      0.79798      8.44094        -0.003888     -0.002245     -0.011182
      0.00526      1.58891      5.67373        -0.003299     -0.003854      0.002724
      0.04414      1.60914     13.16188         0.003747      0.001043     -0.001326
      7.00315      2.41635     10.38464         0.000751      0.001384     -0.005892
     -1.40132      2.45665      3.76075         0.005970      0.002773      0.001865
     -0.03371      3.23720      0.95493        -0.003023      0.002074     -0.001445
      0.00161      3.26824      8.47749         0.005626      0.001054     -0.000820
     -1.36731      4.05601      5.68608         0.004032      0.002328      0.010596
     -1.37505      4.05155     13.17410        -0.004726     -0.002729     -0.010239
      5.59420      4.85673     10.38464         0.001574     -0.000041     -0.005892
     -2.76941      4.82624      3.76075         0.005387      0.003784      0.001865
     -1.40962      5.62035      0.95493         0.000285     -0.003655     -0.001445
     -1.36508      5.63542      8.47749         0.003726      0.004345     -0.000820
     -2.81760      6.47825      5.67373        -0.004987     -0.000930      0.002724
     -2.78064      6.50180     13.16188         0.002777      0.002723     -0.001326
      2.78248      0.02834     10.37380        -0.003726     -0.004345      0.000820
      2.81380      0.03578      3.76124        -0.000285      0.003655      0.001445
      4.17359      0.82989      0.95541        -0.005387     -0.003784     -0.001865
      4.21757      0.80809      8.47466        -0.001574      0.000041      0.005892
      2.79245      1.61222      5.67718         0.004726      0.002729      0.010239
      2.78470      1.60775     13.16520        -0.004032     -0.002328     -0.010596
      1.41578      2.39553     10.37380        -0.005626     -0.001054      0.000820
      1.43789      2.41893      3.76124         0.003023     -0.002074      0.001445
      2.80550      3.19949      0.95541        -0.005970     -0.002773     -0.001865
      2.80861      3.24847      8.47466        -0.000751     -0.001384      0.005892
      1.37326      4.05462      5.68941        -0.003747     -0.001043      0.001326
      1.41213      4.07485     13.17755         0.003299      0.003854     -0.002724
      0.03525      4.86579     10.41035         0.003888      0.002245      0.011182
     -0.02351      4.83186      3.75751        -0.007831     -0.004521     -0.003150
      1.42052      5.66557      0.97807         0.004808      0.002776      0.011840
      1.38126      5.64290      8.47659        -0.002220     -0.001281     -0.007945
      0.00177      6.43011      5.68941        -0.002777     -0.002723      0.001326
      0.03873      6.45367     13.17755         0.004987      0.000930     -0.002724
      1.40855      7.25211     10.39254        -0.000947     -0.008366      0.002481
      1.41994      7.26437      3.76493         0.008109     -0.003620     -0.000210
      6.99372      0.79153      0.95926        -0.000919     -0.008833      0.000210
      7.02324      0.80289      8.46677         0.007718     -0.003362     -0.002481
      5.60697      1.61139      5.68322        -0.005540      0.002671     -0.001454
      5.61277      1.61473     13.17609         0.000457      0.006134      0.001454
      4.19566      2.42236     10.34975        -0.000107     -0.000062     -0.004415
      4.17939      2.41297      3.79480        -0.004355     -0.002515     -0.005790
      5.61915      3.24422      0.92939         0.004355      0.002515      0.005790
      5.61610      3.24246      8.50956         0.000107      0.000062      0.004415
      4.19899      4.05009      5.68322        -0.000457     -0.006134     -0.001454
      4.20479      4.05344     13.17609         0.005540     -0.002671      0.001454
      2.78852      4.86193     10.39254        -0.007718      0.003362      0.002481
      2.80483      4.86566      3.76493         0.000919      0.008833     -0.000210
      4.18234      5.66097      0.95926        -0.008109      0.003620      0.000210
      4.20695      5.68086      8.46677         0.000947      0.008366     -0.002481
      2.83412      6.48171      5.67671         0.005617      0.003243      0.012819
      2.78137      6.45126     13.18259        -0.005617     -0.003243     -0.012819
 -----------------------------------------------------------------------------------
    total drift:                               -0.002027      0.000343      0.003998


--------------------------------------------------------------------------------------------------------



  FREE ENERGIE OF THE ION-ELECTRON SYSTEM (eV)
  ---------------------------------------------------
  free  energy   TOTEN  =      -545.4265022906 eV

  energy  without entropy=     -545.3872974733  energy(sigma->0) =     -545.40689988
 


--------------------------------------------------------------------------------------------------------


    POTLOK:  cpu time    0.2546: real time    0.2552


--------------------------------------------------------------------------------------------------------


 Quasi-Newton relaxation of ions (Broydens 2nd method)
  g(Force)  = 0.333E-03   g(Stress)= 0.422E-03

 Reset! Starting new Quasi-Newton update for ions 


--------------------------------------------------------------------------------------------------------


  
 reached required accuracy - stopping structural energy minimisation
     LOOP+:  cpu time  238.6824: real time  239.3701
    4ORBIT:  cpu time    0.0000: real time    0.0000

volume of typ            1:     6.3 %

volume of typ            2:    19.9 %

volume of typ            3:    10.2 %
 
total charge     
 
# of ion       s       p       d       tot
------------------------------------------
    1        2.070   0.228   0.089   2.388
    2        2.070   0.228   0.089   2.387
    3        2.068   0.220   0.085   2.374
    4        2.068   0.220   0.085   2.374
    5        2.070   0.228   0.089   2.387
    6        2.070   0.228   0.089   2.388
    7        2.067   0.221   0.086   2.374
    8        0.290   0.400   7.836   8.525
    9        0.296   0.412   7.834   8.542
   10        0.296   0.412   7.832   8.541
   11        0.292   0.403   7.828   8.522
   12        0.292   0.403   7.835   8.530
   13        0.296   0.411   7.826   8.532
   14        0.292   0.403   7.828   8.522
   15        0.292   0.403   7.835   8.530
   16        0.296   0.412   7.832   8.541
   17        0.292   0.403   7.835   8.530
   18        0.292   0.403   7.828   8.522
   19        0.296   0.411   7.826   8.532
   20        0.292   0.403   7.835   8.530
   21        0.292   0.403   7.828   8.522
   22        0.296   0.412   7.832   8.541
   23        0.296   0.412   7.834   8.542
   24        0.290   0.400   7.836   8.525
   25        0.296   0.412   7.832   8.541
   26        0.296   0.412   7.833   8.541
   27        0.296   0.412   7.833   8.541
   28        0.292   0.403   7.821   8.516
   29        0.291   0.401   7.828   8.520
   30        0.291   0.401   7.828   8.520
   31        0.292   0.403   7.821   8.516
   32        0.296   0.412   7.833   8.541
   33        0.296   0.412   7.833   8.541
   34        0.291   0.402   7.834   8.527
   35        1.278   2.744   0.007   4.029
   36        1.275   2.750   0.007   4.032
   37        1.278   2.744   0.007   4.029
   38        1.275   2.750   0.007   4.032
   39        1.275   2.754   0.007   4.036
   40        1.275   2.753   0.007   4.036
   41        1.286   2.722   0.008   4.016
   42        1.275   2.754   0.007   4.036
   43        1.275   2.753   0.007   4.035
   44        1.275   2.753   0.007   4.036
   45        1.279   2.742   0.007   4.028
   46        1.288   2.713   0.008   4.009
   47        1.286   2.722   0.008   4.016
   48        1.275   2.754   0.007   4.036
   49        1.275   2.753   0.007   4.035
   50        1.275   2.753   0.007   4.036
   51        1.275   2.754   0.007   4.036
   52        1.275   2.753   0.007   4.036
   53        1.275   2.753   0.007   4.036
   54        1.275   2.753   0.007   4.035
   55        1.275   2.754   0.007   4.036
   56        1.286   2.722   0.008   4.016
   57        1.288   2.713   0.008   4.009
   58        1.279   2.742   0.007   4.028
   59        1.275   2.753   0.007   4.036
   60        1.275   2.753   0.007   4.035
   61        1.275   2.754   0.007   4.036
   62        1.286   2.722   0.008   4.016
   63        1.275   2.753   0.007   4.036
   64        1.275   2.754   0.007   4.036
   65        1.275   2.750   0.007   4.032
   66        1.278   2.744   0.007   4.029
   67        1.275   2.750   0.007   4.032
   68        1.278   2.744   0.007   4.029
   69        1.275   2.753   0.007   4.036
   70        1.275   2.754   0.007   4.036
   71        1.276   2.751   0.007   4.034
   72        1.275   2.752   0.007   4.035
   73        1.275   2.752   0.007   4.035
   74        1.276   2.751   0.007   4.034
   75        1.286   2.722   0.008   4.016
   76        1.286   2.722   0.008   4.016
   77        1.288   2.715   0.008   4.011
   78        1.278   2.745   0.007   4.030
   79        1.278   2.745   0.007   4.030
   80        1.288   2.715   0.008   4.011
   81        1.286   2.722   0.008   4.016
   82        1.286   2.722   0.008   4.016
   83        1.276   2.751   0.007   4.034
   84        1.275   2.752   0.007   4.035
   85        1.275   2.752   0.007   4.035
   86        1.276   2.751   0.007   4.034
   87        1.279   2.742   0.007   4.028
   88        1.279   2.742   0.007   4.028
--------------------------------------------------
tot          91.44  160.70  212.45  464.58
 
magnetization (x)
 
# of ion       s       p       d       tot
------------------------------------------
    1        0.004   0.004  -0.000   0.008
    2        0.003   0.004  -0.000   0.007
    3        0.003   0.005  -0.000   0.008
    4        0.003   0.005  -0.000   0.008
    5        0.003   0.004  -0.000   0.007
    6        0.004   0.004  -0.000   0.008
    7        0.004   0.004  -0.000   0.008
    8       -0.000  -0.000   0.236   0.235
    9       -0.000  -0.000   0.156   0.156
   10       -0.000  -0.000   0.091   0.090
   11       -0.000  -0.000   0.143   0.143
   12       -0.000  -0.000   0.148   0.148
   13       -0.000  -0.000   0.123   0.123
   14       -0.000  -0.000   0.143   0.143
   15       -0.000  -0.000   0.148   0.148
   16       -0.000  -0.000   0.091   0.090
   17       -0.000  -0.000   0.148   0.148
   18       -0.000  -0.000   0.143   0.143
   19       -0.000  -0.000   0.123   0.123
   20       -0.000  -0.000   0.148   0.148
   21       -0.000  -0.000   0.143   0.143
   22       -0.000  -0.000   0.091   0.090
   23       -0.000  -0.000   0.156   0.156
   24       -0.000  -0.000   0.236   0.235
   25       -0.000  -0.000   0.091   0.090
   26       -0.000  -0.000   0.123   0.123
   27       -0.000  -0.000   0.123   0.123
   28       -0.000  -0.000   0.103   0.102
   29       -0.000  -0.000   0.126   0.125
   30       -0.000  -0.000   0.126   0.125
   31       -0.000  -0.000   0.103   0.102
   32       -0.000  -0.000   0.123   0.123
   33       -0.000  -0.000   0.123   0.123
   34        0.000  -0.000   0.198   0.198
   35        0.003   0.014   0.000   0.017
   36        0.003   0.008   0.000   0.011
   37        0.006   0.033   0.000   0.038
   38        0.003   0.008   0.000   0.011
   39        0.004   0.014   0.000   0.019
   40        0.004   0.015   0.000   0.019
   41        0.002   0.011   0.000   0.013
   42        0.003   0.006   0.000   0.008
   43        0.003   0.008   0.000   0.012
   44        0.002   0.004   0.000   0.007
   45        0.002   0.012   0.000   0.014
   46        0.003   0.027   0.000   0.030
   47        0.002   0.011   0.000   0.013
   48        0.003   0.006   0.000   0.008
   49        0.003   0.008   0.000   0.012
   50        0.002   0.004   0.000   0.007
   51        0.004   0.014   0.000   0.019
   52        0.004   0.015   0.000   0.019
   53        0.002   0.004   0.000   0.007
   54        0.003   0.008   0.000   0.012
   55        0.003   0.006   0.000   0.008
   56        0.002   0.011   0.000   0.013
   57        0.003   0.027   0.000   0.030
   58        0.002   0.012   0.000   0.014
   59        0.002   0.004   0.000   0.007
   60        0.003   0.008   0.000   0.012
   61        0.003   0.006   0.000   0.008
   62        0.002   0.011   0.000   0.013
   63        0.004   0.015   0.000   0.019
   64        0.004   0.014   0.000   0.019
   65        0.003   0.008   0.000   0.011
   66        0.006   0.033   0.000   0.038
   67        0.003   0.008   0.000   0.011
   68        0.003   0.014   0.000   0.017
   69        0.004   0.015   0.000   0.019
   70        0.004   0.014   0.000   0.019
   71        0.003   0.011   0.000   0.014
   72        0.004   0.016   0.000   0.020
   73        0.004   0.016   0.000   0.020
   74        0.003   0.011   0.000   0.014
   75        0.003   0.014   0.000   0.017
   76        0.003   0.014   0.000   0.017
   77        0.002   0.016   0.000   0.019
   78        0.003   0.015   0.000   0.019
   79        0.003   0.015   0.000   0.019
   80        0.002   0.016   0.000   0.019
   81        0.003   0.014   0.000   0.017
   82        0.003   0.014   0.000   0.017
   83        0.003   0.011   0.000   0.014
   84        0.004   0.016   0.000   0.020
   85        0.004   0.016   0.000   0.020
   86        0.003   0.011   0.000   0.014
   87        0.004   0.020   0.000   0.024
   88        0.004   0.020   0.000   0.024
--------------------------------------------------
tot           0.19    0.73    3.71    4.63
 

 total amount of memory used by VASP MPI-rank0   145399. kBytes
=======================================================================

   base      :      30000. kBytes
   nonlr-proj:      39872. kBytes
   fftplans  :       9349. kBytes
   grid      :      55332. kBytes
   one-center:       1368. kBytes
   wavefun   :       9478. kBytes
 
  
  
 General timing and accounting informations for this job:
 ========================================================
  
                  Total CPU time used (sec):      249.325
                            User time (sec):      245.843
                          System time (sec):        3.482
                         Elapsed time (sec):      254.090
  
                   Maximum memory used (kb):      197576.
                   Average memory used (kb):           0.
  
                          Minor page faults:        33610
                          Major page faults:           51
                 Voluntary context switches:          883
