 vasp.5.4.4.18Apr17-6-g9f103f2a35 (build May 12 2020 05:39:39) gamma-only       
  
 MD_VERSION_INFO: Compiled 2020-05-12T12:39:39-UTC in devlin.sd.materialsdesign.
 com:/home/medea2/data/build/wwolf/vasp-gpu5.4.4/13047/x86_64/src/src/build/gam 
 from svn 13047
 
 This VASP executable licensed from Materials Design, Inc.
 
 executed on                        Lin64 date 2023.01.19  20:29:44
 running on   16 total cores
 distrk:  each k-point on   16 cores,    1 groups
 distr:  one band on NCORES_PER_BAND=   1 cores,   16 groups


--------------------------------------------------------------------------------------------------------


 INCAR:
 POTCAR:    PAW_PBE Li_sv 10Sep2004               
 POTCAR:    PAW_PBE Ni 02Aug2007                  
 POTCAR:    PAW_PBE O 08Apr2002                   

 ----------------------------------------------------------------------------- 
|                                                                             |
|           W    W    AA    RRRRR   N    N  II  N    N   GGGG   !!!           |
|           W    W   A  A   R    R  NN   N  II  NN   N  G    G  !!!           |
|           W    W  A    A  R    R  N N  N  II  N N  N  G       !!!           |
|           W WW W  AAAAAA  RRRRR   N  N N  II  N  N N  G  GGG   !            |
|           WW  WW  A    A  R   R   N   NN  II  N   NN  G    G                |
|           W    W  A    A  R    R  N    N  II  N    N   GGGG   !!!           |
|                                                                             |
|      For optimal performance we recommend to set                            |
|        NCORE= 4 - approx SQRT( number of cores)                             |
|      NCORE specifies how many cores store one orbital (NPAR=cpu/NCORE).     |
|      This setting can  greatly improve the performance of VASP for DFT.     |
|      The default,   NCORE=1            might be grossly inefficient         |
|      on modern multi-core architectures or massively parallel machines.     |
|      Do your own testing !!!!                                               |
|      Unfortunately you need to use the default for GW and RPA calculations. |
|      (for HF NCORE is supported but not extensively tested yet)             |
|                                                                             |
 ----------------------------------------------------------------------------- 

 POTCAR:    PAW_PBE Li_sv 10Sep2004               
  local pseudopotential read in
  atomic valenz-charges read in
  non local Contribution for L=           0  read in
    real space projection operators read in
  non local Contribution for L=           0  read in
    real space projection operators read in
  non local Contribution for L=           1  read in
    real space projection operators read in
    PAW grid and wavefunctions read in
 
   number of l-projection  operators is LMAX  =           3
   number of lm-projection operators is LMMAX =           5
 
 POTCAR:    PAW_PBE Ni 02Aug2007                  
  local pseudopotential read in
  partial core-charges read in
  partial kinetic energy density read in
  atomic valenz-charges read in
  non local Contribution for L=           2  read in
    real space projection operators read in
  non local Contribution for L=           2  read in
    real space projection operators read in
  non local Contribution for L=           0  read in
    real space projection operators read in
  non local Contribution for L=           0  read in
    real space projection operators read in
  non local Contribution for L=           1  read in
    real space projection operators read in
  non local Contribution for L=           1  read in
    real space projection operators read in
    PAW grid and wavefunctions read in
 
   number of l-projection  operators is LMAX  =           6
   number of lm-projection operators is LMMAX =          18
 
 POTCAR:    PAW_PBE O 08Apr2002                   
  local pseudopotential read in
  partial core-charges read in
  partial kinetic energy density read in
  kinetic energy density of atom read in
  atomic valenz-charges read in
  non local Contribution for L=           0  read in
    real space projection operators read in
  non local Contribution for L=           0  read in
    real space projection operators read in
  non local Contribution for L=           1  read in
    real space projection operators read in
  non local Contribution for L=           1  read in
    real space projection operators read in
    PAW grid and wavefunctions read in
 
   number of l-projection  operators is LMAX  =           4
   number of lm-projection operators is LMMAX =           8
 
 Optimization of the real space projectors (new method)

 maximal supplied QI-value         = 22.11
 optimisation between [QCUT,QGAM] = [ 11.28, 22.77] = [ 35.61,145.23] Ry 
 Optimized for a Real-space Cutoff    1.10 Angstroem

   l    n(q)    QCUT    max X(q) W(low)/X(q) W(high)/X(q)  e(spline) 
   0      7    11.276    10.506    0.54E-04    0.58E-04    0.16E-07
   0      7    11.276     8.367    0.11E-03    0.14E-03    0.35E-07
   1      7    11.276     8.983    0.23E-03    0.43E-03    0.86E-07
 Optimization of the real space projectors (new method)

 maximal supplied QI-value         = 16.25
 optimisation between [QCUT,QGAM] = [ 11.38, 22.75] = [ 36.24,144.96] Ry 
 Optimized for a Real-space Cutoff    1.47 Angstroem

   l    n(q)    QCUT    max X(q) W(low)/X(q) W(high)/X(q)  e(spline) 
   2      9    11.376    60.317    0.17E-03    0.16E-04    0.16E-06
   2      9    11.376    55.921    0.17E-03    0.16E-04    0.17E-06
   0     10    11.376    51.690    0.45E-04    0.60E-04    0.21E-06
   0     10    11.376    30.015    0.37E-04    0.55E-04    0.19E-06
   1     10    11.376    18.849    0.83E-04    0.11E-03    0.92E-07
   1     10    11.376    14.624    0.69E-04    0.92E-04    0.82E-07
 Optimization of the real space projectors (new method)

 maximal supplied QI-value         = 24.76
 optimisation between [QCUT,QGAM] = [ 11.39, 22.77] = [ 36.31,145.25] Ry 
 Optimized for a Real-space Cutoff    1.10 Angstroem

   l    n(q)    QCUT    max X(q) W(low)/X(q) W(high)/X(q)  e(spline) 
   0      7    11.387    20.381    0.22E-03    0.48E-03    0.18E-06
   0      7    11.387    15.268    0.22E-03    0.52E-03    0.19E-06
   1      7    11.387     5.964    0.22E-03    0.73E-03    0.24E-06
   1      7    11.387     5.382    0.19E-03    0.60E-03    0.21E-06

 ----------------------------------------------------------------------------- 
|                                                                             |
|  ADVICE TO THIS USER RUNNING 'VASP/VAMP'   (HEAR YOUR MASTER'S VOICE ...):  |
|                                                                             |
|      You enforced a specific xc-type in the INCAR file,                     |
|      a different type was found on the POTCAR file                          |
|          I HOPE YOU KNOW, WHAT YOU ARE  DOING                               |
|                                                                             |
 ----------------------------------------------------------------------------- 

  PAW_PBE Li_sv 10Sep2004               :
 energy of atom  1       EATOM= -202.7858
 kinetic energy error for atom=    0.0143 (will be added to EATOM!!)
  PAW_PBE Ni 02Aug2007                  :
 energy of atom  2       EATOM=-1077.6739
 kinetic energy error for atom=    0.0030 (will be added to EATOM!!)
  PAW_PBE O 08Apr2002                   :
 energy of atom  3       EATOM= -432.3788
 kinetic energy error for atom=    0.0224 (will be added to EATOM!!)
 
 
 POSCAR: ce503_1                                 
  positions in direct lattice
  No initial velocities read in
 exchange correlation table for  LEXCH =       14
   RHO(1)=    0.500       N(1)  =     2000
   RHO(2)=  100.500       N(2)  =     4000
 


--------------------------------------------------------------------------------------------------------


 ion  position               nearest neighbor table
   1  0.996  0.501  0.996- 101 2.07 102 2.08  66 2.11  89 2.11  53 2.13  54 2.13  31 2.84
   2  0.110  0.833  0.224-  68 2.11  74 2.12  67 2.12  73 2.12  50 2.12  55 2.14
   3  0.226  0.166  0.111-  57 2.10  58 2.10  88 2.11  75 2.12  51 2.13  52 2.15
   4  0.334  0.501  0.989-  90 2.04  95 2.07  89 2.08  60 2.08  59 2.16  54 2.19  43 2.80  45 2.83

   5  0.453  0.833  0.223-  61 2.03  80 2.06  56 2.11  79 2.11  74 2.13  55 2.16  28 2.82  37 2.83
                            26 2.84
   6  0.565  0.167  0.114-  64 2.04  63 2.06  58 2.09  81 2.10  57 2.17  94 2.19  30 2.83  38 2.84

   7  0.658  0.499  0.991-  96 2.07 101 2.08  95 2.09  60 2.09  66 2.17  65 2.18  45 2.82  46 2.83

   8  0.770  0.834  0.221-  61 2.05  80 2.08  62 2.10  85 2.14  68 2.14  67 2.16  28 2.83
   9  0.879  0.166  0.111-  63 2.04  64 2.07 100 2.09  69 2.11  52 2.17  51 2.17  30 2.83  32 2.84
                            48 2.84
  10  0.009  0.499  0.342-  71 2.04  72 2.04  84 2.12  53 2.12  66 2.15  65 2.15  34 2.80  33 2.81

  11  0.113  0.833  0.564-  91 2.04  86 2.05  73 2.09  92 2.12  68 2.16  85 2.18  43 2.84
  12  0.224  0.168  0.455-  70 2.03  93 2.07  69 2.10  76 2.11  75 2.14  52 2.19  33 2.83
  13  0.337  0.500  0.346-  77 2.02  72 2.05  78 2.06  53 2.13  59 2.16  54 2.19  34 2.80  36 2.81

  14  0.451  0.833  0.562-  98 2.05  97 2.09  73 2.11  92 2.14  74 2.15  79 2.16  46 2.84  37 2.85

  15  0.563  0.168  0.450-  99 2.06  82 2.09  58 2.11  81 2.11  75 2.15  76 2.17  39 2.84
  16  0.664  0.500  0.331-  59 2.08  65 2.10  60 2.11  78 2.11  84 2.14  83 2.15
  17  0.012  0.501  0.670-  71 2.04  90 2.04  89 2.09  84 2.15 102 2.15  83 2.20  43 2.81  33 2.83

  18  0.110  0.832  0.879-  86 2.05 103 2.09  91 2.09  56 2.11  50 2.17  55 2.19  43 2.84  49 2.84

  19  0.223  0.167  0.769-  70 2.05  93 2.08  87 2.11  94 2.14  57 2.14  88 2.19  33 2.84
  20  0.656  0.500  0.667-  77 2.05  96 2.07  78 2.10 101 2.12 102 2.18  83 2.20  36 2.82  46 2.83

  21  0.772  0.833  0.883-  98 2.06 103 2.08  97 2.09  62 2.11  67 2.14  50 2.15  49 2.84  47 2.84

  22  0.882  0.166  0.770-  99 2.05  82 2.07 100 2.08  87 2.11  88 2.14  51 2.16  47 2.83  48 2.84
                            41 2.84  39 2.84
  23  0.002  1.000  0.003- 103 1.85 100 1.85  55 1.92  52 1.92  88 1.92  67 1.92  35 2.80  26 2.84
                            32 2.84  47 2.86  29 2.86  41 2.87
  24  0.111  0.333  0.219-  69 1.86  72 1.87  66 1.92  54 1.92  75 1.92  51 1.92  42 2.81  27 2.82
                            48 2.82  30 2.85  36 2.87  33 2.87
  25  0.222  0.666  0.113-  56 1.86  53 1.92  59 1.93  50 1.93  74 1.94  89 1.94  31 2.83  34 2.83
                            37 2.85  28 2.85  49 2.86  43 2.87
  26  0.333  0.997  0.000-  94 1.86  55 1.91  61 1.93  88 1.96  91 1.97  58 2.00  35 2.84  23 2.84
                            29 2.84   5 2.84  38 2.85  44 2.86  41 2.88
  27  0.441  0.335  0.220-  81 1.86  54 1.91  60 1.95  78 1.95  75 1.95  57 1.96  42 2.82  24 2.82
                            45 2.86  36 2.86  30 2.87  39 2.87
  28  0.556  0.668  0.111-  80 1.88  95 1.88  62 1.93  56 1.94  59 1.95  65 1.95   5 2.82   8 2.83
                            46 2.83  40 2.83  43 2.83  37 2.84  25 2.85  31 2.85
  29  0.663  0.999  0.995-  64 1.88  97 1.90  94 1.92  67 1.93 100 1.99  61 1.99  44 2.81  47 2.82
                            26 2.84  23 2.86  32 2.89  38 2.89
  30  0.779  0.333  0.225-  63 1.86  84 1.91  81 1.93  69 1.94  66 1.96  60 1.98  39 2.82  33 2.82
                             6 2.83   9 2.83  24 2.85  27 2.87  45 2.87  48 2.87
  31  0.891  0.665  0.113-  62 1.86  53 1.92  68 1.94 101 1.94  50 1.94  65 1.94  34 2.82  25 2.83
                             1 2.84  40 2.85  28 2.85  49 2.86  46 2.87
  32  0.000  0.003  0.334-  85 1.86  52 1.90  70 1.94  64 1.96  67 1.98  73 1.99  35 2.83   9 2.84
                            23 2.84  41 2.84  38 2.85  44 2.85  29 2.89
  33  0.110  0.334  0.555-  93 1.86  84 1.91  87 1.96  72 1.96  69 1.96  90 1.97  10 2.81  39 2.81
                            30 2.82  17 2.83  12 2.83  19 2.84  45 2.85  36 2.86  42 2.87  24 2.87
  34  0.222  0.664  0.444-  92 1.86  53 1.91  77 1.94  71 1.95  68 1.97  74 1.99  13 2.80  10 2.80
                            31 2.82  25 2.83  43 2.85  46 2.85  40 2.86  37 2.86
  35  0.330  1.000  0.330-  76 1.87  79 1.87  55 1.91  52 1.91  73 2.00  58 2.01  23 2.80  32 2.83
                            26 2.84  38 2.86  44 2.86  47 2.88
  36  0.445  0.333  0.556-  93 1.92  96 1.93  78 1.94  75 1.95  72 1.96  99 1.97  13 2.81  20 2.82
                            45 2.84  48 2.85  33 2.86  27 2.86  39 2.87  24 2.87
  37  0.557  0.669  0.444-  77 1.87  80 1.91  74 1.91  83 1.92  98 1.95  59 1.96  40 2.81   5 2.83
                            49 2.84  28 2.84  14 2.85  25 2.85  34 2.86  46 2.88
  38  0.667  0.002  0.334-  61 1.87  58 1.90  85 1.90  79 1.92  82 1.92  64 1.92  41 2.81   6 2.84
                            32 2.85  47 2.85  26 2.85  35 2.86  29 2.89
  39  0.780  0.333  0.554-  99 1.85  84 1.91  87 1.94  81 1.94 102 1.96  78 1.97  33 2.81  30 2.82
                            15 2.84  22 2.84  42 2.85  36 2.87  48 2.87  27 2.87
  40  0.886  0.668  0.444-  71 1.87  80 1.91  68 1.92  83 1.92  86 1.94  65 1.95  37 2.81  28 2.83
                            49 2.84  31 2.85  34 2.86  43 2.87
  41  0.996  0.001  0.664-  91 1.87  82 1.90  85 1.92  88 1.95 103 1.99  70 1.99  38 2.81  47 2.82
                            22 2.84  32 2.84  23 2.87  44 2.88  26 2.88
  42  0.111  0.333  0.891-  87 1.86  90 1.87  54 1.92 102 1.92  57 1.92  51 1.92  24 2.81  27 2.82
                            48 2.82  39 2.85  45 2.86  33 2.87
  43  0.225  0.666  0.778-  86 1.87  95 1.91  92 1.91  89 1.94  56 1.97  71 1.98  46 2.80   4 2.80
                            17 2.81  28 2.83  11 2.84  18 2.84  34 2.85  49 2.87  40 2.87  25 2.87
  44  0.334  0.998  0.666-  70 1.86  73 1.91  94 1.91  97 1.92  76 1.92  91 1.92  29 2.81  47 2.84
                            32 2.85  35 2.86  26 2.86  41 2.88
  45  0.445  0.333  0.888-  93 1.92  96 1.93  60 1.93  57 1.94  90 1.96  63 1.96   7 2.82   4 2.83
                            36 2.84  48 2.85  33 2.85  27 2.86  42 2.86  30 2.87
  46  0.554  0.666  0.779-  98 1.86  95 1.90  92 1.92 101 1.94  62 1.97  77 1.98  43 2.80   7 2.83
                            20 2.83  28 2.83  14 2.84  34 2.85  49 2.86  31 2.87  37 2.88
  47  0.668  1.000  0.668-  97 1.86  82 1.86 100 1.96  79 1.96 103 1.97  76 1.97  41 2.82  29 2.82
                            22 2.83  21 2.84  44 2.84  38 2.85  23 2.86  35 2.88
  48  0.779  0.330  0.889-  96 1.86  51 1.90  99 1.94  63 1.95  66 1.97 102 1.97  42 2.82  24 2.82
                            22 2.84   9 2.84  36 2.85  45 2.85  39 2.87  30 2.87
  49  0.888  0.668  0.777-  50 1.92  83 1.93  98 1.94  86 1.95  89 1.98 101 1.98  37 2.84  18 2.84
                            21 2.84  40 2.84  25 2.86  31 2.86  46 2.86  43 2.87
  50  0.000  0.738  0.000-  49 1.92  25 1.93  31 1.94   2 2.12  21 2.15  18 2.17
  51  1.000  0.260  1.000-  48 1.90  42 1.92  24 1.92   3 2.13  22 2.16   9 2.17
  52  0.110  0.071  0.222-  32 1.90  35 1.91  23 1.92   3 2.15   9 2.17  12 2.19
  53  0.112  0.594  0.223-  34 1.91  31 1.92  25 1.92  10 2.12  13 2.13   1 2.13
  54  0.221  0.406  0.110-  27 1.91  24 1.92  42 1.92   1 2.13   4 2.19  13 2.19
  55  0.223  0.928  0.111-  26 1.91  35 1.91  23 1.92   2 2.14   5 2.16  18 2.19
  56  0.329  0.737  0.007-  25 1.86  28 1.94  43 1.97   5 2.11  18 2.11
  57  0.331  0.261  0.997-  42 1.92  45 1.94  27 1.96   3 2.10  19 2.14   6 2.17
  58  0.453  0.076  0.224-  38 1.90  26 2.00  35 2.01   6 2.09   3 2.10  15 2.11
  59  0.444  0.593  0.222-  25 1.93  28 1.95  37 1.96  16 2.08   4 2.16  13 2.16
  60  0.553  0.408  0.107-  45 1.93  27 1.95  30 1.98   4 2.08   7 2.09  16 2.11
  61  0.559  0.929  0.124-  38 1.87  26 1.93  29 1.99   5 2.03   8 2.05
  62  0.679  0.736  0.008-  31 1.86  28 1.93  46 1.97   8 2.10  21 2.11
  63  0.673  0.263  0.013-  30 1.86  48 1.95  45 1.96   9 2.04   6 2.06
  64  0.768  0.070  0.210-  29 1.88  38 1.92  32 1.96   6 2.04   9 2.07
  65  0.778  0.593  0.224-  31 1.94  40 1.95  28 1.95  16 2.10  10 2.15   7 2.18
  66  0.892  0.406  0.113-  24 1.92  30 1.96  48 1.97   1 2.11  10 2.15   7 2.17
  67  0.887  0.928  0.108-  23 1.92  29 1.93  32 1.98   2 2.12  21 2.14   8 2.16
  68  0.996  0.739  0.333-  40 1.92  31 1.94  34 1.97   2 2.11   8 2.14  11 2.16
  69  0.005  0.263  0.327-  24 1.86  30 1.94  33 1.96  12 2.10   9 2.11
  70  0.124  0.072  0.560-  44 1.86  32 1.94  41 1.99  12 2.03  19 2.05
  71  0.097  0.595  0.548-  40 1.87  34 1.95  43 1.98  17 2.04  10 2.04
  72  0.216  0.404  0.433-  24 1.87  33 1.96  36 1.96  10 2.04  13 2.05
  73  0.223  0.924  0.452-  44 1.91  32 1.99  35 2.00  11 2.09  14 2.11   2 2.12
  74  0.336  0.740  0.333-  37 1.91  25 1.94  34 1.99   2 2.12   5 2.13  14 2.15
  75  0.331  0.260  0.333-  24 1.92  36 1.95  27 1.95   3 2.12  12 2.14  15 2.15
  76  0.436  0.068  0.546-  35 1.87  44 1.92  47 1.97  12 2.11  15 2.17
  77  0.450  0.596  0.548-  37 1.87  34 1.94  46 1.98  13 2.02  20 2.05
  78  0.554  0.407  0.445-  36 1.94  27 1.95  39 1.97  13 2.06  20 2.10  16 2.11
  79  0.547  0.932  0.437-  35 1.87  38 1.92  47 1.96   5 2.11  14 2.16
  80  0.664  0.737  0.328-  28 1.88  40 1.91  37 1.91   5 2.06   8 2.08
  81  0.655  0.265  0.327-  27 1.86  30 1.93  39 1.94   6 2.10  15 2.11
  82  0.774  0.069  0.560-  47 1.86  41 1.90  38 1.92  22 2.07  15 2.09
  83  0.777  0.597  0.555-  37 1.92  40 1.92  49 1.93  16 2.15  17 2.20  20 2.20
  84  0.889  0.405  0.444-  39 1.91  33 1.91  30 1.91  10 2.12  16 2.14  17 2.15
  85  0.890  0.934  0.438-  32 1.86  38 1.90  41 1.92   8 2.14  11 2.18
  86  0.011  0.737  0.671-  43 1.87  40 1.94  49 1.95  18 2.05  11 2.05
  87  0.006  0.263  0.678-  42 1.86  39 1.94  33 1.96  19 2.11  22 2.11
  88  0.109  0.072  0.889-  23 1.92  41 1.95  26 1.96   3 2.11  22 2.14  19 2.19
  89  0.115  0.594  0.891-  25 1.94  43 1.94  49 1.98   4 2.08  17 2.09   1 2.11
  90  0.217  0.404  0.784-  42 1.87  45 1.96  33 1.97  17 2.04   4 2.04
  91  0.210  0.930  0.768-  41 1.87  44 1.92  26 1.97  11 2.04  18 2.09
  92  0.328  0.733  0.657-  34 1.86  43 1.91  46 1.92  11 2.12  14 2.14
  93  0.325  0.266  0.663-  33 1.86  45 1.92  36 1.92  12 2.07  19 2.08
  94  0.438  0.066  0.889-  26 1.86  44 1.91  29 1.92  19 2.14   6 2.19
  95  0.448  0.598  0.895-  28 1.88  46 1.90  43 1.91   4 2.07   7 2.09
  96  0.567  0.401  0.784-  48 1.86  45 1.93  36 1.93  20 2.07   7 2.07
  97  0.559  0.931  0.773-  47 1.86  29 1.90  44 1.92  14 2.09  21 2.09
  98  0.660  0.737  0.673-  46 1.86  49 1.94  37 1.95  14 2.05  21 2.06
  99  0.675  0.263  0.661-  39 1.85  48 1.94  36 1.97  22 2.05  15 2.06
 100  0.792  0.072  0.895-  23 1.85  47 1.96  29 1.99  22 2.08   9 2.09
 101  0.776  0.593  0.891-  31 1.94  46 1.94  49 1.98   1 2.07   7 2.08  20 2.12
 102  0.892  0.407  0.779-  42 1.92  39 1.96  48 1.97   1 2.08  17 2.15  20 2.18
 103  0.896  0.928  0.793-  23 1.85  47 1.97  41 1.99  21 2.08  18 2.09
 
  LATTYP: Found a triclinic cell.
 ALAT       =    16.4630947295
 B/A-ratio  =     0.8556501394
 C/A-ratio  =     0.5195766486
 COS(alpha) =     0.0001272816
 COS(beta)  =     0.2594628268
 COS(gamma) =     0.8551188175
  
  Lattice vectors:
  
 A1 = (  -4.2742434873,   7.3793504597, -14.0822412093)
 A2 = (  -0.0008987913,  -0.0087983500, -14.0866465240)
 A3 = (  -8.5538385670,  -0.0041399655,  -0.0005403876)


Analysis of symmetry for initial positions (statically):
=====================================================================
 Subroutine PRICEL returns:
 Original cell was already a primitive cell.
 

 Routine SETGRP: Setting up the symmetry group for a 
 triclinic supercell.


 Subroutine GETGRP returns: Found  1 space group operations
 (whereof  1 operations were pure point group operations)
 out of a pool of  2 trial point group operations.


The static configuration has the point symmetry C_1 .


Analysis of symmetry for dynamics (positions and initial velocities):
=====================================================================
 Subroutine PRICEL returns:
 Original cell was already a primitive cell.
 

 Routine SETGRP: Setting up the symmetry group for a 
 triclinic supercell.


 Subroutine GETGRP returns: Found  1 space group operations
 (whereof  1 operations were pure point group operations)
 out of a pool of  2 trial point group operations.


The dynamic configuration has the point symmetry C_1 .


Analysis of structural, dynamic, and magnetic symmetry:
=====================================================================
 Subroutine PRICEL returns:
 Original cell was already a primitive cell.
 

 Routine SETGRP: Setting up the symmetry group for a 
 triclinic supercell.


 Subroutine GETGRP returns: Found  1 space group operations
 (whereof  1 operations were pure point group operations)
 out of a pool of  2 trial point group operations.


The magnetic configuration has the point symmetry C_1 .


 Subroutine INISYM returns: Found  1 space group operations
 (whereof  1 operations are pure point group operations),
 and found     1 'primitive' translations

 
 
 KPOINTS: Automatic mesh                          

Automatic generation of k-mesh.
Space group operators:
 irot       det(A)        alpha          n_x          n_y          n_z        tau_x        tau_y        tau_z
    1     1.000000     0.000000     1.000000     0.000000     0.000000     0.000000     0.000000     0.000000
 
 Subroutine IBZKPT returns following result:
 ===========================================
 
 Found      1 irreducible k-points:
 
 Following reciprocal coordinates:
            Coordinates               Weight
  0.000000  0.000000  0.000000      1.000000
 
 Following cartesian coordinates:
            Coordinates               Weight
  0.000000  0.000000  0.000000      1.000000
 


--------------------------------------------------------------------------------------------------------




 Dimension of arrays:
   k-points           NKPTS =      1   k-points in BZ     NKDIM =      1   number of bands    NBANDS=    432
   number of dos      NEDOS =    301   number of ions     NIONS =    103
   non local maximal  LDIM  =      6   non local SUM 2l+1 LMDIM =     18
   total plane-waves  NPLWV = 442368
   max r-space proj   IRMAX =   6719   max aug-charges    IRDMAX=  16300
   dimension x,y,z NGX =    64 NGY =  108 NGZ =   64
   dimension x,y,z NGXF=   128 NGYF=  216 NGZF=  128
   support grid    NGXF=   128 NGYF=  216 NGZF=  128
   ions per type =              22  27  54
   NGX,Y,Z   is equivalent  to a cutoff of  12.47, 12.75, 12.44 a.u.
   NGXF,Y,Z  is equivalent  to a cutoff of  24.93, 25.49, 24.88 a.u.

 SYSTEM =  unknown system                          
 POSCAR =  ce503_1                                 

 Startparameter for this run:
   NWRITE =      1    write-flag & timer
   PREC   = accura    normal or accurate (medium, high low for compatibility)
   ISTART =      0    job   : 0-new  1-cont  2-samecut
   ICHARG =      2    charge: 1-file 2-atom 10-const
   ISPIN  =      2    spin polarized calculation?
   LNONCOLLINEAR =      F non collinear calculations
   LSORBIT =      F    spin-orbit coupling
   INIWAV =      1    electr: 0-lowe 1-rand  2-diag
   LASPH  =      F    aspherical Exc in radial PAW
   METAGGA=      F    non-selfconsistent MetaGGA calc.

 Electronic Relaxation 1
   ENCUT  =  500.0 eV  36.75 Ry    6.06 a.u.  15.56 25.68 15.60*2*pi/ulx,y,z
   ENINI  =  500.0     initial cutoff
   ENAUG  =  628.9 eV  augmentation charge cutoff
   NELM   =     80;   NELMIN=  2; NELMDL= -5     # of ELM steps 
   EDIFF  = 0.1E-04   stopping-criterion for ELM
   LREAL  =      T    real-space projection
   NLSPLINE    = F    spline interpolate recip. space projectors
   LCOMPAT=      F    compatible to vasp.4.4
   GGA_COMPAT  = T    GGA compatible to vasp.4.4-vasp.4.6
   LMAXPAW     = -100 max onsite density
   LMAXMIX     =    2 max onsite mixed and CHGCAR
   VOSKOWN=      1    Vosko Wilk Nusair interpolation
   ROPT   =   -0.00025  -0.00025  -0.00025
 Ionic relaxation
   EDIFFG = -.2E-01   stopping-criterion for IOM
   NSW    =     20    number of steps for IOM
   NBLOCK =      1;   KBLOCK =     20    inner block; outer block 
   IBRION =      1    ionic relax: 0-MD 1-quasi-New 2-CG
   NFREE  =      0    steps in history (QN), initial steepest desc. (CG)
   ISIF   =      3    stress and relaxation
   IWAVPR =     11    prediction:  0-non 1-charg 2-wave 3-comb
   ISYM   =      2    0-nonsym 1-usesym 2-fastsym
   LCORR  =      T    Harris-Foulkes like correction to forces

   POTIM  = 0.5000    time-step for ionic-motion
   TEIN   =    0.0    initial temperature
   TEBEG  =    0.0;   TEEND  =   0.0 temperature during run
   SMASS  =  -3.00    Nose mass-parameter (am)
   estimated Nose-frequenzy (Omega)   =  0.10E-29 period in steps =****** mass=  -0.166E-26a.u.
   SCALEE = 1.0000    scale energy and forces
   NPACO  =    256;   APACO  = 16.0  distance and # of slots for P.C.
   PSTRESS=    0.0 pullay stress

  Mass of Ions in am
   POMASS =   7.01 58.69 16.00
  Ionic Valenz
   ZVAL   =   3.00 10.00  6.00
  Atomic Wigner-Seitz radii
   RWIGS  =   1.23  1.15  0.73
  virtual crystal weights 
   VCA    =   1.00  1.00  1.00
   NELECT =     660.0000    total number of electrons
   NUPDOWN=      -1.0000    fix difference up-down

 DOS related values:
   EMIN   =  10.00;   EMAX   =-10.00  energy-range for DOS
   EFERMI =   0.00
   ISMEAR =     0;   SIGMA  =   0.05  broadening in eV -4-tet -1-fermi 0-gaus

 Electronic relaxation 2 (details)
   IALGO  =     38    algorithm
   LDIAG  =      T    sub-space diagonalisation (order eigenvalues)
   LSUBROT=      F    optimize rotation matrix (better conditioning)
   TURBO    =      0    0=normal 1=particle mesh
   IRESTART =      0    0=no restart 2=restart with 2 vectors
   NREBOOT  =      0    no. of reboots
   NMIN     =      0    reboot dimension
   EREF     =   0.00    reference energy to select bands
   IMIX   =      4    mixing-type and parameters
     AMIX     =   0.40;   BMIX     =  1.00
     AMIX_MAG =   1.60;   BMIX_MAG =  1.00
     AMIN     =   0.10
     WC   =   100.;   INIMIX=   1;  MIXPRE=   1;  MAXMIX= -45

 Intra band minimization:
   WEIMIN = 0.0010     energy-eigenvalue tresh-hold
   EBREAK =  0.58E-08  absolut break condition
   DEPER  =   0.30     relativ break condition  

   TIME   =   0.40     timestep for ELM

  volume/ion in A,a.u.               =       8.65        58.34
  Fermi-wavevector in a.u.,A,eV,Ry     =   1.481543  2.799710 29.864373  2.194970
  Thomas-Fermi vector in A             =   2.595440
 
 Write flags
   LWAVE        =      F    write WAVECAR
   LDOWNSAMPLE  =      F    k-point downsampling of WAVECAR
   LCHARG       =      T    write CHGCAR
   LVTOT        =      F    write LOCPOT, total local potential
   LVHAR        =      F    write LOCPOT, Hartree potential only
   LELF         =      F    write electronic localiz. function (ELF)
   LORBIT       =      0    0 simple, 1 ext, 2 COOP (PROOUT), +10 PAW based schemes


 Dipole corrections
   LMONO  =      F    monopole corrections only (constant potential shift)
   LDIPOL =      F    correct potential (dipole corrections)
   IDIPOL =      0    1-x, 2-y, 3-z, 4-all directions 
   EPSILON=  1.0000000 bulk dielectric constant

 Exchange correlation treatment:
   GGA     =    PS    GGA type
   LEXCH   =    14    internal setting for exchange type
   VOSKOWN=      1    Vosko Wilk Nusair interpolation
   LHFCALC =     F    Hartree Fock is set to
   LHFONE  =     F    Hartree Fock one center treatment
   AEXX    =    0.0000 exact exchange contribution

 Linear response parameters
   LEPSILON=     F    determine dielectric tensor
   LRPA    =     F    only Hartree local field effects (RPA)
   LNABLA  =     F    use nabla operator in PAW spheres
   LVEL    =     F    velocity operator in full k-point grid
   LINTERFAST=   F  fast interpolation
   KINTER  =     0    interpolate to denser k-point grid
   CSHIFT  =0.1000    complex shift for real part using Kramers Kronig
   OMEGAMAX=  -1.0    maximum frequency
   DEG_THRESHOLD= 0.2000000E-02 threshold for treating states as degnerate
   RTIME   =   -0.100 relaxation time in fs
  (WPLASMAI=    0.000 imaginary part of plasma frequency in eV, 0.658/RTIME)
   DFIELD  = 0.0000000 0.0000000 0.0000000 field for delta impulse in time
 
 Orbital magnetization related:
   ORBITALMAG=     F  switch on orbital magnetization
   LCHIMAG   =     F  perturbation theory with respect to B field
   DQ        =  0.001000  dq finite difference perturbation B field
   LLRAUG    =     F  two centre corrections for induced B field



--------------------------------------------------------------------------------------------------------


 quasi-Newton-method for relaxation of ions
 charge density and potential will be updated during run
 spin polarized calculation
 Variant of blocked Davidson
 Davidson routine will perform the subspace rotation
 perform sub-space diagonalisation
    after iterative eigenvector-optimisation
 modified Broyden-mixing scheme, WC =      100.0
 initial mixing is a Kerker type mixing with AMIX =  0.4000 and BMIX =      1.0000
 Hartree-type preconditioning will be used
 using additional bands          102
 real space projection scheme for non local part
 use partial core corrections
 calculate Harris-corrections to forces 
   (improved forces if not selfconsistent)
 use gradient corrections 
 use of overlap-Matrix (Vanderbilt PP)
 Gauss-broadening in eV      SIGMA  =   0.05


--------------------------------------------------------------------------------------------------------


  energy-cutoff  :      500.00
  volume of cell :      890.48
      direct lattice vectors                 reciprocal lattice vectors
    -4.273344696  7.388148810  0.004405315    -0.000065485  0.135314076 -0.000084511
     0.000898791  0.008798350 14.086646524    -0.000004463 -0.000044910  0.070989245
     8.553838567  0.004139965  0.000540388     0.116873864  0.067600496 -0.000049680

  length of vectors
     8.535000711 14.086649300  8.553839586     0.135314118  0.070989259  0.135016034


 
 k-points in units of 2pi/SCALE and weight: Automatic mesh                          
   0.00000000  0.00000000  0.00000000       1.000
 
 k-points in reciprocal lattice and weights: Automatic mesh                          
   0.00000000  0.00000000  0.00000000       1.000
 
 position of ions in fractional coordinates (direct lattice) 
   0.99626658  0.50088031  0.99616239
   0.11009625  0.83255639  0.22357189
   0.22564723  0.16598340  0.11090061
   0.33389290  0.50072024  0.98935946
   0.45284253  0.83318684  0.22309258
   0.56472776  0.16725873  0.11388270
   0.65788474  0.49909400  0.99056435
   0.76976232  0.83413839  0.22104919
   0.87856873  0.16633221  0.11104762
   0.00859839  0.49939946  0.34223973
   0.11278320  0.83300830  0.56430104
   0.22381695  0.16810044  0.45473711
   0.33694271  0.49967300  0.34616627
   0.45092701  0.83272288  0.56240676
   0.56272195  0.16764566  0.44999522
   0.66354569  0.50018099  0.33089042
   0.01175717  0.50087521  0.66960101
   0.11044591  0.83235538  0.87931157
   0.22289702  0.16713011  0.76907947
   0.65583073  0.49970533  0.66717918
   0.77162716  0.83259542  0.88269826
   0.88167152  0.16627635  0.77003967
   0.00217055  0.99976829  0.00252208
   0.11055620  0.33302815  0.21928200
   0.22248019  0.66573962  0.11276399
   0.33345135  0.99742249  0.00043631
   0.44136308  0.33484049  0.22044552
   0.55561456  0.66806089  0.11089773
   0.66331619  0.99886533  0.99517584
   0.77938467  0.33321682  0.22499265
   0.89086872  0.66531148  0.11309360
   0.00011835  0.00258863  0.33371362
   0.10966194  0.33427999  0.55480946
   0.22156878  0.66396015  0.44354437
   0.33019303  0.99993658  0.33038504
   0.44503197  0.33323687  0.55646218
   0.55732366  0.66885522  0.44401692
   0.66710256  0.00192829  0.33445024
   0.77988652  0.33343275  0.55446672
   0.88628573  0.66842750  0.44388050
   0.99584014  0.00105987  0.66396654
   0.11080347  0.33338577  0.89119506
   0.22487383  0.66597483  0.77799279
   0.33399838  0.99825489  0.66643748
   0.44470645  0.33346981  0.88815506
   0.55352929  0.66599871  0.77886516
   0.66789844  0.99996322  0.66786142
   0.77947994  0.33045530  0.88946119
   0.88815570  0.66849881  0.77698458
   0.00029828  0.73808266  0.00011694
   0.99959270  0.26025633  0.99950381
   0.10968002  0.07143915  0.22246856
   0.11205998  0.59378875  0.22306310
   0.22074549  0.40562613  0.11044807
   0.22303215  0.92822435  0.11132676
   0.32885350  0.73668623  0.00673143
   0.33109732  0.26057666  0.99740294
   0.45268112  0.07633090  0.22448595
   0.44409391  0.59325532  0.22177407
   0.55273576  0.40761746  0.10740687
   0.55897601  0.92875535  0.12371197
   0.67869561  0.73643285  0.00768229
   0.67321594  0.26299422  0.01284576
   0.76795080  0.06952296  0.21011803
   0.77835534  0.59304990  0.22369337
   0.89188627  0.40627013  0.11263612
   0.88719337  0.92763853  0.10805362
   0.99638262  0.73940218  0.33302530
   0.00519234  0.26296222  0.32729537
   0.12407409  0.07177947  0.55950746
   0.09718144  0.59540219  0.54770588
   0.21622592  0.40403393  0.43283211
   0.22315129  0.92371730  0.45189674
   0.33641701  0.73994477  0.33252226
   0.33099810  0.26043406  0.33273528
   0.43585317  0.06847704  0.54616590
   0.44964087  0.59618907  0.54788974
   0.55384074  0.40735148  0.44496068
   0.54733662  0.93166140  0.43669751
   0.66397580  0.73720335  0.32762666
   0.65544707  0.26535989  0.32728927
   0.77431256  0.06892693  0.56034234
   0.77715670  0.59668803  0.55501854
   0.88871857  0.40503798  0.44437973
   0.88970215  0.93405196  0.43774657
   0.01102298  0.73674498  0.67084154
   0.00554599  0.26342806  0.67771119
   0.10909169  0.07205730  0.88926475
   0.11469117  0.59350535  0.89051237
   0.21722117  0.40430742  0.78401512
   0.21004662  0.93039494  0.76755545
   0.32780432  0.73331289  0.65662399
   0.32533040  0.26631248  0.66299872
   0.43785756  0.06599740  0.88942476
   0.44803931  0.59802836  0.89511298
   0.56681893  0.40070147  0.78366236
   0.55930401  0.93094228  0.77309221
   0.66018309  0.73690514  0.67302896
   0.67469674  0.26300163  0.66089706
   0.79197342  0.07178605  0.89484410
   0.77644984  0.59261290  0.89120887
   0.89248624  0.40707796  0.77925229
   0.89576772  0.92793253  0.79297837
 
 position of ions in cartesian coordinates  (Angst):
   4.26407195  7.36909675  7.06065106
   1.44266692  0.82165818 11.72853340
  -0.01549329  1.66903482  2.33920346
   7.03643170  2.47535186  7.05547457
  -0.02610545  3.35392226 11.73892397
  -1.43899182  4.17423580  2.35866395
   5.66220786  4.86904246  7.03399424
  -1.39789092  5.69537275 11.75372315
  -2.80439411  6.49291970  2.34699343
   2.89116837  0.06933694  7.03508649
   4.34572721  0.84292435 11.73509526
   2.93345194  1.65695454  2.36920320
   1.52162715  2.49521230  7.04038833
   2.88451853  3.34117078 11.73256326
   1.44463229  4.16081147  2.36428729
  -0.00472666  4.90814494  7.04897474
   5.67786669  0.09404272  7.05606567
   7.05026389  0.82695449 11.72605774
   5.62621605  1.65145078  2.35570032
   2.90480136  4.85253371  7.04242203
   4.25377792  5.71187609 11.73235364
   2.81925816  6.51857129  2.34657633
   0.01319654  0.02484310 14.08339343
   1.40355740  0.82064358  4.69185536
   0.01442879  1.65004100  9.37907974
  -1.42032396  2.47236567 14.05180725
  -0.00014023  3.26471479  4.71884309
  -1.42513081  4.11130000  9.41324520
   5.67889253  4.91358708 14.07412273
  -1.40572905  5.76207314  4.69746258
  -2.83900675  6.58819252  9.37599332
   2.85402901  0.00227873  0.03664597
   4.27742773  0.81543674  4.70966697
   2.84776393  1.64466113  9.35418771
   1.41593040  2.44968082 14.08738629
   2.85841216  3.29319809  4.69645121
   1.41701411  4.12531317  9.42462219
   0.01007591  4.93005456  0.03028267
   1.41039458  5.76714680  4.70068456
   0.01007849  6.55572957  9.42004615
   1.42389537  7.36017327  0.01967580
   7.14993690  0.82525529  4.69725721
   5.69445992  1.67048166  9.38276308
   4.27420564  2.47917176 14.06389528
   5.69705078  3.29216834  4.69991036
   4.29746398  4.09864093  9.38454777
   2.85951727  4.94609601 14.08943162
   4.27761797  5.76550359  4.65892151
   2.85140606  6.57092485  9.42123892
   0.00038901  0.00869813 10.39711091
   4.27822399  7.39156735  3.67108257
   1.43432383  0.81188187  1.00694145
   1.42970852  0.83406364  8.36510643
   0.00179797  1.63492662  5.71494405
   0.00001216  1.65642245 13.07661100
  -1.34706267  2.43612809 10.37889086
   7.11696496  2.45261813  3.67264887
  -0.01417728  3.34607643  1.07736192
  -0.00021355  3.28716970  8.35905421
  -1.44292304  4.08772507  5.74445609
  -1.32965019  4.13848162 13.08557764
  -2.83392532  5.02081536 10.37686327
  -2.76676683  4.97618664  3.70767928
  -1.48434028  5.67521636  0.98284197
  -1.41221066  5.75674902  8.35763409
  -2.84750112  6.59342930  5.72697362
  -2.86617611  6.56332567 13.07128283
  -1.40857716  7.36930730 10.42026649
   2.77767945  0.04203041  3.70445558
   4.25578965  0.91962572  1.01198096
   4.27023303  0.72549698  8.38794428
   2.77873125  1.60285602  5.69266960
   2.91267961  1.65867296 13.01330634
   1.40738094  2.49338586 10.42500214
   1.43192897  2.44913212  3.67028050
   2.80932565  3.22301167  0.96682707
   2.76562581  3.32952738  8.40058157
   1.43973556  4.09728395  5.74089660
   1.39731933  4.05380939 13.12663200
  -0.03426931  4.91339455 10.38782508
  -0.00113318  4.84623019  3.74109529
   1.48423540  5.72366266  0.97466319
   1.42701683  5.74929698  8.40905691
   0.00371573  6.57138843  5.70978208
  -0.05675095  6.58328225 13.16181577
   5.69182742  0.09069882 10.37867719
   5.77356895  0.04609803  3.71120862
   7.14050548  0.81030115  1.01600685
   7.12771759  0.85626399  8.36148655
   5.77844122  1.61166536  5.69671631
   5.66878003  1.56321928 13.10748475
   4.21649385  2.43103744 10.33171839
   4.28117444  2.40867731  3.75324123
   5.73693885  3.23921967  0.93209158
   5.74256302  3.31914849  8.42667158
   4.28146880  4.19451245  5.64746047
   4.22364386  4.14361259 13.11673651
   2.93645349  4.88680078 10.38379424
   2.77023141  4.98980999  3.70814039
   4.27004108  5.85555370  1.01519717
   4.30575163  5.74543055  8.35183055
   2.85206283  6.60062884  5.73871611
   2.95591875  6.62951239 13.07583220
 


--------------------------------------------------------------------------------------------------------


 use serial FFT for orbitals x direction half grid
 k-point  1 :   0.0000 0.0000 0.0000  plane waves:   11297

 maximum and minimum number of plane-waves per node :     11297    11297

 maximum number of plane-waves:     11297
 maximum index in each direction: 
   IXMAX=   15   IYMAX=   25   IZMAX=   13
   IXMIN=    0   IYMIN=  -25   IZMIN=  -15

 The following grids will avoid any aliasing or wrap around errors in the Hartre
 e energy
  - symmetry arguments have not been applied
  - exchange correlation energies might require even more grid points
  - we recommend to set PREC=Normal or Accurate and rely on VASP defaults
 NGX is ok and might be reduce to    64
 NGY is ok and might be reduce to   108
 NGZ is ok and might be reduce to    60

 serial   3D FFT for wavefunctions
 parallel 3D FFT for charge:
    minimum data exchange during FFTs selected (reduces bandwidth)


 total amount of memory used by VASP MPI-rank0   146904. kBytes
=======================================================================

   base      :      30000. kBytes
   nonlr-proj:      40400. kBytes
   fftplans  :       9349. kBytes
   grid      :      55332. kBytes
   one-center:       1601. kBytes
   wavefun   :      10222. kBytes
 
     INWAV:  cpu time    0.0000: real time    0.0000
 Broyden mixing: mesh for mixing (old mesh)
   NGX = 31   NGY = 51   NGZ = 31
  (NGX  =128   NGY  =216   NGZ  =128)
  gives a total of  49011 points

 initial charge density was supplied:
 charge density of overlapping atoms calculated
 number of electron     660.0000000 magnetization      67.5000000
 keeping initial charge density in first step


--------------------------------------------------------------------------------------------------------


 Maximum index for non-local projection operator         6486
 Maximum index for augmentation-charges         1075 (set IRDMAX)


--------------------------------------------------------------------------------------------------------


 First call to EWALD:  gamma=   0.184
 Maximum number of real-space cells 3x 2x 3
 Maximum number of reciprocal cells 2x 4x 2

    FEWALD:  cpu time    0.0040: real time    0.0040


--------------------------------------- Iteration      1(   1)  ---------------------------------------


    POTLOK:  cpu time    0.2545: real time    0.2564
    SETDIJ:  cpu time    0.0306: real time    0.0307
     EDDAV:  cpu time    4.2781: real time    4.3164
    --------------------------------------------
      LOOP:  cpu time    4.5637: real time    4.6041

 eigenvalue-minimisations  :  1760
 total energy-change (2. order) : 0.1184260E+05  (-0.3027982E+05)
 number of electron     660.0000000 magnetization      67.5000000
 augmentation part      660.0000000 magnetization      67.5000000

 Free energy of the ion-electron system (eV)
  ---------------------------------------------------
  alpha Z        PSCENC =      2072.59964409
  Ewald energy   TEWEN  =    -40728.81962882
  -Hartree energ DENC   =    -17301.39289333
  -exchange      EXHF   =         0.00000000
  -V(xc)+E(xc)   XCENC  =      2694.14615779
  PAW double counting   =     46412.19726292   -48629.89869309
  entropy T*S    EENTRO =        -0.00017055
  eigenvalues    EBANDS =     10565.81555545
  atomic energy  EATOM  =     56757.95358879
  Solvation  Ediel_sol  =         0.00000000
  ---------------------------------------------------
  free energy    TOTEN  =     11842.60082324 eV

  energy without entropy =    11842.60099379  energy(sigma->0) =    11842.60090852


--------------------------------------------------------------------------------------------------------




--------------------------------------- Iteration      1(   2)  ---------------------------------------


     EDDAV:  cpu time    4.2603: real time    4.2704
    --------------------------------------------
      LOOP:  cpu time    4.2602: real time    4.2703

 eigenvalue-minimisations  :  1760
 total energy-change (2. order) :-0.9558045E+04  (-0.8832793E+04)
 number of electron     660.0000000 magnetization      67.5000000
 augmentation part      660.0000000 magnetization      67.5000000

 Free energy of the ion-electron system (eV)
  ---------------------------------------------------
  alpha Z        PSCENC =      2072.59964409
  Ewald energy   TEWEN  =    -40728.81962882
  -Hartree energ DENC   =    -17301.39289333
  -exchange      EXHF   =         0.00000000
  -V(xc)+E(xc)   XCENC  =      2694.14615779
  PAW double counting   =     46412.19726292   -48629.89869309
  entropy T*S    EENTRO =        -0.02189837
  eigenvalues    EBANDS =      1007.79216828
  atomic energy  EATOM  =     56757.95358879
  Solvation  Ediel_sol  =         0.00000000
  ---------------------------------------------------
  free energy    TOTEN  =      2284.55570826 eV

  energy without entropy =     2284.57760663  energy(sigma->0) =     2284.56665744


--------------------------------------------------------------------------------------------------------




--------------------------------------- Iteration      1(   3)  ---------------------------------------


     EDDAV:  cpu time    4.5251: real time    4.5359
    --------------------------------------------
      LOOP:  cpu time    4.5251: real time    4.5359

 eigenvalue-minimisations  :  1904
 total energy-change (2. order) :-0.2602309E+04  (-0.2214217E+04)
 number of electron     660.0000000 magnetization      67.5000000
 augmentation part      660.0000000 magnetization      67.5000000

 Free energy of the ion-electron system (eV)
  ---------------------------------------------------
  alpha Z        PSCENC =      2072.59964409
  Ewald energy   TEWEN  =    -40728.81962882
  -Hartree energ DENC   =    -17301.39289333
  -exchange      EXHF   =         0.00000000
  -V(xc)+E(xc)   XCENC  =      2694.14615779
  PAW double counting   =     46412.19726292   -48629.89869309
  entropy T*S    EENTRO =        -0.11293791
  eigenvalues    EBANDS =     -1594.42626200
  atomic energy  EATOM  =     56757.95358879
  Solvation  Ediel_sol  =         0.00000000
  ---------------------------------------------------
  free energy    TOTEN  =      -317.75376156 eV

  energy without entropy =     -317.64082366  energy(sigma->0) =     -317.69729261


--------------------------------------------------------------------------------------------------------




--------------------------------------- Iteration      1(   4)  ---------------------------------------


     EDDAV:  cpu time    4.8421: real time    4.8535
    --------------------------------------------
      LOOP:  cpu time    4.8421: real time    4.8535

 eigenvalue-minimisations  :  2080
 total energy-change (2. order) :-0.4651911E+03  (-0.4448952E+03)
 number of electron     660.0000000 magnetization      67.5000000
 augmentation part      660.0000000 magnetization      67.5000000

 Free energy of the ion-electron system (eV)
  ---------------------------------------------------
  alpha Z        PSCENC =      2072.59964409
  Ewald energy   TEWEN  =    -40728.81962882
  -Hartree energ DENC   =    -17301.39289333
  -exchange      EXHF   =         0.00000000
  -V(xc)+E(xc)   XCENC  =      2694.14615779
  PAW double counting   =     46412.19726292   -48629.89869309
  entropy T*S    EENTRO =        -0.19965131
  eigenvalues    EBANDS =     -2059.53062255
  atomic energy  EATOM  =     56757.95358879
  Solvation  Ediel_sol  =         0.00000000
  ---------------------------------------------------
  free energy    TOTEN  =      -782.94483551 eV

  energy without entropy =     -782.74518420  energy(sigma->0) =     -782.84500986


--------------------------------------------------------------------------------------------------------




--------------------------------------- Iteration      1(   5)  ---------------------------------------


     EDDAV:  cpu time    6.0888: real time    6.1032
    CHARGE:  cpu time    0.2537: real time    0.2543
    MIXING:  cpu time    0.0048: real time    0.0048
    --------------------------------------------
      LOOP:  cpu time    6.3469: real time    6.3620

 eigenvalue-minimisations  :  2768
 total energy-change (2. order) :-0.2717860E+02  (-0.2689333E+02)
 number of electron     659.9999902 magnetization      72.4048557
 augmentation part      200.8993916 magnetization      51.0184410

 Broyden mixing:
  rms(total) = 0.14489E+02    rms(broyden)= 0.14488E+02
  rms(prec ) = 0.16025E+02
  weight for this iteration     100.00

 Free energy of the ion-electron system (eV)
  ---------------------------------------------------
  alpha Z        PSCENC =      2072.59964409
  Ewald energy   TEWEN  =    -40728.81962882
  -Hartree energ DENC   =    -17301.39289333
  -exchange      EXHF   =         0.00000000
  -V(xc)+E(xc)   XCENC  =      2694.14615779
  PAW double counting   =     46412.19726292   -48629.89869309
  entropy T*S    EENTRO =        -0.19786671
  eigenvalues    EBANDS =     -2086.71101082
  atomic energy  EATOM  =     56757.95358879
  Solvation  Ediel_sol  =         0.00000000
  ---------------------------------------------------
  free energy    TOTEN  =      -810.12343919 eV

  energy without entropy =     -809.92557248  energy(sigma->0) =     -810.02450583


--------------------------------------------------------------------------------------------------------




--------------------------------------- Iteration      1(   6)  ---------------------------------------


    POTLOK:  cpu time    0.2182: real time    0.2187
    SETDIJ:  cpu time    0.0313: real time    0.0313
     EDDAV:  cpu time    5.9408: real time    5.9548
    CHARGE:  cpu time    0.2470: real time    0.2475
    MIXING:  cpu time    0.0051: real time    0.0051
    --------------------------------------------
      LOOP:  cpu time    6.4423: real time    6.4574

 eigenvalue-minimisations  :  2688
 total energy-change (2. order) :-0.4764089E+00  (-0.1589176E+03)
 number of electron     659.9999898 magnetization      67.7456005
 augmentation part      245.8882113 magnetization      65.7960539

 Broyden mixing:
  rms(total) = 0.25445E+02    rms(broyden)= 0.25444E+02
  rms(prec ) = 0.26720E+02
  weight for this iteration     100.00

 eigenvalues of (default mixing * dielectric matrix)
  average eigenvalue GAMMA=   0.2552
  0.2552

 Free energy of the ion-electron system (eV)
  ---------------------------------------------------
  alpha Z        PSCENC =      2072.59964409
  Ewald energy   TEWEN  =    -40728.81962882
  -Hartree energ DENC   =    -16530.20953649
  -exchange      EXHF   =         0.00000000
  -V(xc)+E(xc)   XCENC  =      2731.41045603
  PAW double counting   =     50785.34093630   -52730.44896744
  entropy T*S    EENTRO =        -0.07686204
  eigenvalues    EBANDS =     -3168.34947849
  atomic energy  EATOM  =     56757.95358879
  Solvation  Ediel_sol  =         0.00000000
  ---------------------------------------------------
  free energy    TOTEN  =      -810.59984807 eV

  energy without entropy =     -810.52298603  energy(sigma->0) =     -810.56141705


--------------------------------------------------------------------------------------------------------




--------------------------------------- Iteration      1(   7)  ---------------------------------------


    POTLOK:  cpu time    0.2177: real time    0.2182
    SETDIJ:  cpu time    0.0316: real time    0.0316
     EDDAV:  cpu time    5.4736: real time    5.4865
    CHARGE:  cpu time    0.2466: real time    0.2472
    MIXING:  cpu time    0.0048: real time    0.0048
    --------------------------------------------
      LOOP:  cpu time    5.9742: real time    5.9882

 eigenvalue-minimisations  :  2432
 total energy-change (2. order) : 0.1521933E+03  (-0.4630780E+02)
 number of electron     659.9999905 magnetization      62.0263245
 augmentation part      233.1667060 magnetization      54.7989988

 Broyden mixing:
  rms(total) = 0.11025E+02    rms(broyden)= 0.11024E+02
  rms(prec ) = 0.12062E+02
  weight for this iteration     100.00

 eigenvalues of (default mixing * dielectric matrix)
  average eigenvalue GAMMA=   0.4707
  0.4707  0.4707

 Free energy of the ion-electron system (eV)
  ---------------------------------------------------
  alpha Z        PSCENC =      2072.59964409
  Ewald energy   TEWEN  =    -40728.81962882
  -Hartree energ DENC   =    -16769.37067589
  -exchange      EXHF   =         0.00000000
  -V(xc)+E(xc)   XCENC  =      2702.65278506
  PAW double counting   =     52578.24536929   -54686.84037499
  entropy T*S    EENTRO =        -0.04074982
  eigenvalues    EBANDS =     -2584.78653792
  atomic energy  EATOM  =     56757.95358879
  Solvation  Ediel_sol  =         0.00000000
  ---------------------------------------------------
  free energy    TOTEN  =      -658.40658020 eV

  energy without entropy =     -658.36583037  energy(sigma->0) =     -658.38620529


--------------------------------------------------------------------------------------------------------




--------------------------------------- Iteration      1(   8)  ---------------------------------------


    POTLOK:  cpu time    0.2176: real time    0.2181
    SETDIJ:  cpu time    0.0312: real time    0.0313
     EDDAV:  cpu time    5.6773: real time    5.6906
    CHARGE:  cpu time    0.2457: real time    0.2462
    MIXING:  cpu time    0.0051: real time    0.0052
    --------------------------------------------
      LOOP:  cpu time    6.1768: real time    6.1914

 eigenvalue-minimisations  :  2544
 total energy-change (2. order) :-0.8678669E+02  (-0.2422234E+02)
 number of electron     659.9999912 magnetization      58.0936926
 augmentation part      215.1959487 magnetization      54.5021023

 Broyden mixing:
  rms(total) = 0.15450E+02    rms(broyden)= 0.15449E+02
  rms(prec ) = 0.20347E+02
  weight for this iteration     100.00

 eigenvalues of (default mixing * dielectric matrix)
  average eigenvalue GAMMA=   0.4357
  0.5596  0.5596  0.1881

 Free energy of the ion-electron system (eV)
  ---------------------------------------------------
  alpha Z        PSCENC =      2072.59964409
  Ewald energy   TEWEN  =    -40728.81962882
  -Hartree energ DENC   =    -16896.31724908
  -exchange      EXHF   =         0.00000000
  -V(xc)+E(xc)   XCENC  =      2687.99412094
  PAW double counting   =     54349.14689774   -56578.62249705
  entropy T*S    EENTRO =        -0.04303675
  eigenvalues    EBANDS =     -2409.08511255
  atomic energy  EATOM  =     56757.95358879
  Solvation  Ediel_sol  =         0.00000000
  ---------------------------------------------------
  free energy    TOTEN  =      -745.19327269 eV

  energy without entropy =     -745.15023594  energy(sigma->0) =     -745.17175431


--------------------------------------------------------------------------------------------------------




--------------------------------------- Iteration      1(   9)  ---------------------------------------


    POTLOK:  cpu time    0.2176: real time    0.2181
    SETDIJ:  cpu time    0.0315: real time    0.0315
     EDDAV:  cpu time    5.0984: real time    5.1105
    CHARGE:  cpu time    0.2468: real time    0.2474
    MIXING:  cpu time    0.0053: real time    0.0053
    --------------------------------------------
      LOOP:  cpu time    5.5996: real time    5.6128

 eigenvalue-minimisations  :  2224
 total energy-change (2. order) : 0.7960639E+02  (-0.2911202E+02)
 number of electron     659.9999903 magnetization      53.8271650
 augmentation part      216.7009274 magnetization      49.4232917

 Broyden mixing:
  rms(total) = 0.10244E+02    rms(broyden)= 0.10243E+02
  rms(prec ) = 0.11498E+02
  weight for this iteration     100.00

 eigenvalues of (default mixing * dielectric matrix)
  average eigenvalue GAMMA=   0.4074
  0.6215  0.6215  0.2566  0.1302

 Free energy of the ion-electron system (eV)
  ---------------------------------------------------
  alpha Z        PSCENC =      2072.59964409
  Ewald energy   TEWEN  =    -40728.81962882
  -Hartree energ DENC   =    -16828.04701433
  -exchange      EXHF   =         0.00000000
  -V(xc)+E(xc)   XCENC  =      2682.77030050
  PAW double counting   =     55226.31623579   -57467.82532862
  entropy T*S    EENTRO =        -0.09255926
  eigenvalues    EBANDS =     -2380.44212420
  atomic energy  EATOM  =     56757.95358879
  Solvation  Ediel_sol  =         0.00000000
  ---------------------------------------------------
  free energy    TOTEN  =      -665.58688606 eV

  energy without entropy =     -665.49432680  energy(sigma->0) =     -665.54060643


--------------------------------------------------------------------------------------------------------




--------------------------------------- Iteration      1(  10)  ---------------------------------------


    POTLOK:  cpu time    0.2175: real time    0.2180
    SETDIJ:  cpu time    0.0311: real time    0.0312
     EDDAV:  cpu time    5.4998: real time    5.5127
    CHARGE:  cpu time    0.2468: real time    0.2474
    MIXING:  cpu time    0.0054: real time    0.0054
    --------------------------------------------
      LOOP:  cpu time    6.0006: real time    6.0147

 eigenvalue-minimisations  :  2448
 total energy-change (2. order) : 0.2427745E+02  (-0.8003916E+01)
 number of electron     659.9999906 magnetization      50.8613145
 augmentation part      219.7104715 magnetization      43.9012459

 Broyden mixing:
  rms(total) = 0.77383E+01    rms(broyden)= 0.77375E+01
  rms(prec ) = 0.89341E+01
  weight for this iteration     100.00

 eigenvalues of (default mixing * dielectric matrix)
  average eigenvalue GAMMA=   0.4055
  0.6830  0.6830  0.2530  0.2530  0.1554

 Free energy of the ion-electron system (eV)
  ---------------------------------------------------
  alpha Z        PSCENC =      2072.59964409
  Ewald energy   TEWEN  =    -40728.81962882
  -Hartree energ DENC   =    -16778.36345818
  -exchange      EXHF   =         0.00000000
  -V(xc)+E(xc)   XCENC  =      2679.19299293
  PAW double counting   =     56154.15263371   -58408.79349522
  entropy T*S    EENTRO =        -0.09093473
  eigenvalues    EBANDS =     -2389.14077819
  atomic energy  EATOM  =     56757.95358879
  Solvation  Ediel_sol  =         0.00000000
  ---------------------------------------------------
  free energy    TOTEN  =      -641.30943563 eV

  energy without entropy =     -641.21850090  energy(sigma->0) =     -641.26396826


--------------------------------------------------------------------------------------------------------




--------------------------------------- Iteration      1(  11)  ---------------------------------------


    POTLOK:  cpu time    0.2184: real time    0.2189
    SETDIJ:  cpu time    0.0313: real time    0.0314
     EDDAV:  cpu time    5.1860: real time    5.1982
    CHARGE:  cpu time    0.2452: real time    0.2458
    MIXING:  cpu time    0.0058: real time    0.0058
    --------------------------------------------
      LOOP:  cpu time    5.6867: real time    5.7002

 eigenvalue-minimisations  :  2272
 total energy-change (2. order) :-0.7175545E+01  (-0.9083964E+01)
 number of electron     659.9999901 magnetization      45.4162471
 augmentation part      218.4170736 magnetization      38.9458450

 Broyden mixing:
  rms(total) = 0.96047E+01    rms(broyden)= 0.96039E+01
  rms(prec ) = 0.11765E+02
  weight for this iteration     100.00

 eigenvalues of (default mixing * dielectric matrix)
  average eigenvalue GAMMA=   0.4368
  0.7943  0.7943  0.3827  0.3827  0.1541  0.1126

 Free energy of the ion-electron system (eV)
  ---------------------------------------------------
  alpha Z        PSCENC =      2072.59964409
  Ewald energy   TEWEN  =    -40728.81962882
  -Hartree energ DENC   =    -16778.68967091
  -exchange      EXHF   =         0.00000000
  -V(xc)+E(xc)   XCENC  =      2678.42492705
  PAW double counting   =     56799.32237492   -59066.85857904
  entropy T*S    EENTRO =        -0.11553291
  eigenvalues    EBANDS =     -2382.30210393
  atomic energy  EATOM  =     56757.95358879
  Solvation  Ediel_sol  =         0.00000000
  ---------------------------------------------------
  free energy    TOTEN  =      -648.48498075 eV

  energy without entropy =     -648.36944784  energy(sigma->0) =     -648.42721430


--------------------------------------------------------------------------------------------------------




--------------------------------------- Iteration      1(  12)  ---------------------------------------


    POTLOK:  cpu time    0.2175: real time    0.2181
    SETDIJ:  cpu time    0.0315: real time    0.0316
     EDDAV:  cpu time    5.5887: real time    5.6018
    CHARGE:  cpu time    0.2463: real time    0.2469
    MIXING:  cpu time    0.0061: real time    0.0061
    --------------------------------------------
      LOOP:  cpu time    6.0901: real time    6.1044

 eigenvalue-minimisations  :  2496
 total energy-change (2. order) : 0.4157135E+01  (-0.1041222E+02)
 number of electron     659.9999907 magnetization      43.4258204
 augmentation part      217.6237891 magnetization      37.7655499

 Broyden mixing:
  rms(total) = 0.83550E+01    rms(broyden)= 0.83542E+01
  rms(prec ) = 0.97811E+01
  weight for this iteration     100.00

 eigenvalues of (default mixing * dielectric matrix)
  average eigenvalue GAMMA=   0.4175
  0.9682  0.6956  0.4135  0.4135  0.1635  0.1635  0.1050

 Free energy of the ion-electron system (eV)
  ---------------------------------------------------
  alpha Z        PSCENC =      2072.59964409
  Ewald energy   TEWEN  =    -40728.81962882
  -Hartree energ DENC   =    -16788.20429500
  -exchange      EXHF   =         0.00000000
  -V(xc)+E(xc)   XCENC  =      2678.40643933
  PAW double counting   =     57888.30231678   -60181.14075525
  entropy T*S    EENTRO =        -0.06623546
  eigenvalues    EBANDS =     -2343.35891976
  atomic energy  EATOM  =     56757.95358879
  Solvation  Ediel_sol  =         0.00000000
  ---------------------------------------------------
  free energy    TOTEN  =      -644.32784531 eV

  energy without entropy =     -644.26160985  energy(sigma->0) =     -644.29472758


--------------------------------------------------------------------------------------------------------




--------------------------------------- Iteration      1(  13)  ---------------------------------------


    POTLOK:  cpu time    0.2172: real time    0.2177
    SETDIJ:  cpu time    0.0316: real time    0.0316
     EDDAV:  cpu time    5.2423: real time    5.2546
    CHARGE:  cpu time    0.2451: real time    0.2457
    MIXING:  cpu time    0.0065: real time    0.0065
    --------------------------------------------
      LOOP:  cpu time    5.7427: real time    5.7562

 eigenvalue-minimisations  :  2304
 total energy-change (2. order) : 0.2245531E+02  (-0.4682575E+01)
 number of electron     659.9999907 magnetization      41.6857816
 augmentation part      219.2444489 magnetization      37.3386177

 Broyden mixing:
  rms(total) = 0.47382E+01    rms(broyden)= 0.47373E+01
  rms(prec ) = 0.55136E+01
  weight for this iteration     100.00

 eigenvalues of (default mixing * dielectric matrix)
  average eigenvalue GAMMA=   0.4150
  0.8905  0.8905  0.4295  0.4295  0.2172  0.2172  0.1331  0.1124

 Free energy of the ion-electron system (eV)
  ---------------------------------------------------
  alpha Z        PSCENC =      2072.59964409
  Ewald energy   TEWEN  =    -40728.81962882
  -Hartree energ DENC   =    -16792.58533421
  -exchange      EXHF   =         0.00000000
  -V(xc)+E(xc)   XCENC  =      2678.36736401
  PAW double counting   =     58234.82076246   -60536.57437953
  entropy T*S    EENTRO =        -0.08013506
  eigenvalues    EBANDS =     -2307.55442049
  atomic energy  EATOM  =     56757.95358879
  Solvation  Ediel_sol  =         0.00000000
  ---------------------------------------------------
  free energy    TOTEN  =      -621.87253877 eV

  energy without entropy =     -621.79240371  energy(sigma->0) =     -621.83247124


--------------------------------------------------------------------------------------------------------




--------------------------------------- Iteration      1(  14)  ---------------------------------------


    POTLOK:  cpu time    0.2173: real time    0.2178
    SETDIJ:  cpu time    0.0312: real time    0.0313
     EDDAV:  cpu time    4.8401: real time    4.8515
    CHARGE:  cpu time    0.2455: real time    0.2461
    MIXING:  cpu time    0.0066: real time    0.0066
    --------------------------------------------
      LOOP:  cpu time    5.3408: real time    5.3533

 eigenvalue-minimisations  :  2080
 total energy-change (2. order) : 0.6593104E+00  (-0.2879881E+01)
 number of electron     659.9999910 magnetization      38.0135594
 augmentation part      219.3188880 magnetization      31.3564687

 Broyden mixing:
  rms(total) = 0.49543E+01    rms(broyden)= 0.49531E+01
  rms(prec ) = 0.55718E+01
  weight for this iteration     100.00

 eigenvalues of (default mixing * dielectric matrix)
  average eigenvalue GAMMA=   0.4078
  0.9133  0.9133  0.4691  0.4691  0.2634  0.2634  0.1443  0.1174  0.1174

 Free energy of the ion-electron system (eV)
  ---------------------------------------------------
  alpha Z        PSCENC =      2072.59964409
  Ewald energy   TEWEN  =    -40728.81962882
  -Hartree energ DENC   =    -16798.75203421
  -exchange      EXHF   =         0.00000000
  -V(xc)+E(xc)   XCENC  =      2678.14192397
  PAW double counting   =     58393.79203432   -60697.03107940
  entropy T*S    EENTRO =        -0.05719099
  eigenvalues    EBANDS =     -2299.04048617
  atomic energy  EATOM  =     56757.95358879
  Solvation  Ediel_sol  =         0.00000000
  ---------------------------------------------------
  free energy    TOTEN  =      -621.21322841 eV

  energy without entropy =     -621.15603742  energy(sigma->0) =     -621.18463292


--------------------------------------------------------------------------------------------------------




--------------------------------------- Iteration      1(  15)  ---------------------------------------


    POTLOK:  cpu time    0.2174: real time    0.2180
    SETDIJ:  cpu time    0.0314: real time    0.0315
     EDDAV:  cpu time    5.2412: real time    5.2535
    CHARGE:  cpu time    0.2451: real time    0.2456
    MIXING:  cpu time    0.0070: real time    0.0070
    --------------------------------------------
      LOOP:  cpu time    5.7420: real time    5.7555

 eigenvalue-minimisations  :  2304
 total energy-change (2. order) : 0.2739189E+01  (-0.1913892E+01)
 number of electron     659.9999909 magnetization      36.7949569
 augmentation part      219.4512913 magnetization      31.5069361

 Broyden mixing:
  rms(total) = 0.36555E+01    rms(broyden)= 0.36545E+01
  rms(prec ) = 0.43389E+01
  weight for this iteration     100.00

 eigenvalues of (default mixing * dielectric matrix)
  average eigenvalue GAMMA=   0.4043
  0.9350  0.9350  0.4716  0.4716  0.3476  0.3476  0.1490  0.1490  0.1284  0.1081

 Free energy of the ion-electron system (eV)
  ---------------------------------------------------
  alpha Z        PSCENC =      2072.59964409
  Ewald energy   TEWEN  =    -40728.81962882
  -Hartree energ DENC   =    -16801.28519553
  -exchange      EXHF   =         0.00000000
  -V(xc)+E(xc)   XCENC  =      2677.60665519
  PAW double counting   =     58853.44147552   -61159.24207045
  entropy T*S    EENTRO =        -0.05477074
  eigenvalues    EBANDS =     -2290.67373763
  atomic energy  EATOM  =     56757.95358879
  Solvation  Ediel_sol  =         0.00000000
  ---------------------------------------------------
  free energy    TOTEN  =      -618.47403958 eV

  energy without entropy =     -618.41926885  energy(sigma->0) =     -618.44665421


--------------------------------------------------------------------------------------------------------




--------------------------------------- Iteration      1(  16)  ---------------------------------------


    POTLOK:  cpu time    0.2183: real time    0.2188
    SETDIJ:  cpu time    0.0313: real time    0.0314
     EDDAV:  cpu time    5.0726: real time    5.0846
    CHARGE:  cpu time    0.2458: real time    0.2464
    MIXING:  cpu time    0.0070: real time    0.0070
    --------------------------------------------
      LOOP:  cpu time    5.5750: real time    5.5881

 eigenvalue-minimisations  :  2208
 total energy-change (2. order) : 0.8549220E+00  (-0.1555192E+01)
 number of electron     659.9999909 magnetization      34.6362039
 augmentation part      219.2341535 magnetization      27.4571124

 Broyden mixing:
  rms(total) = 0.26068E+01    rms(broyden)= 0.26059E+01
  rms(prec ) = 0.29705E+01
  weight for this iteration     100.00

 eigenvalues of (default mixing * dielectric matrix)
  average eigenvalue GAMMA=   0.4149
  1.2275  0.6551  0.6551  0.4550  0.4291  0.4291  0.1886  0.1515  0.1515  0.1106
  0.1106

 Free energy of the ion-electron system (eV)
  ---------------------------------------------------
  alpha Z        PSCENC =      2072.59964409
  Ewald energy   TEWEN  =    -40728.81962882
  -Hartree energ DENC   =    -16809.18818099
  -exchange      EXHF   =         0.00000000
  -V(xc)+E(xc)   XCENC  =      2677.57222571
  PAW double counting   =     58976.37837896   -61284.56447378
  entropy T*S    EENTRO =        -0.08768716
  eigenvalues    EBANDS =     -2279.46298433
  atomic energy  EATOM  =     56757.95358879
  Solvation  Ediel_sol  =         0.00000000
  ---------------------------------------------------
  free energy    TOTEN  =      -617.61911753 eV

  energy without entropy =     -617.53143038  energy(sigma->0) =     -617.57527396


--------------------------------------------------------------------------------------------------------




--------------------------------------- Iteration      1(  17)  ---------------------------------------


    POTLOK:  cpu time    0.2179: real time    0.2184
    SETDIJ:  cpu time    0.0313: real time    0.0314
     EDDAV:  cpu time    5.1894: real time    5.2016
    CHARGE:  cpu time    0.2456: real time    0.2462
    MIXING:  cpu time    0.0073: real time    0.0073
    --------------------------------------------
      LOOP:  cpu time    5.6915: real time    5.7049

 eigenvalue-minimisations  :  2272
 total energy-change (2. order) :-0.6320465E+00  (-0.8086969E+00)
 number of electron     659.9999908 magnetization      32.7974853
 augmentation part      219.1683921 magnetization      26.3549993

 Broyden mixing:
  rms(total) = 0.25191E+01    rms(broyden)= 0.25184E+01
  rms(prec ) = 0.28723E+01
  weight for this iteration     100.00

 eigenvalues of (default mixing * dielectric matrix)
  average eigenvalue GAMMA=   0.4235
  1.3958  0.7105  0.7105  0.4384  0.4384  0.3638  0.3638  0.1542  0.1542  0.1371
  0.1115  0.1040

 Free energy of the ion-electron system (eV)
  ---------------------------------------------------
  alpha Z        PSCENC =      2072.59964409
  Ewald energy   TEWEN  =    -40728.81962882
  -Hartree energ DENC   =    -16809.63926864
  -exchange      EXHF   =         0.00000000
  -V(xc)+E(xc)   XCENC  =      2677.17595519
  PAW double counting   =     59291.86256142   -61602.49399951
  entropy T*S    EENTRO =        -0.06798113
  eigenvalues    EBANDS =     -2276.82203541
  atomic energy  EATOM  =     56757.95358879
  Solvation  Ediel_sol  =         0.00000000
  ---------------------------------------------------
  free energy    TOTEN  =      -618.25116403 eV

  energy without entropy =     -618.18318290  energy(sigma->0) =     -618.21717346


--------------------------------------------------------------------------------------------------------




--------------------------------------- Iteration      1(  18)  ---------------------------------------


    POTLOK:  cpu time    0.2175: real time    0.2180
    SETDIJ:  cpu time    0.0313: real time    0.0314
     EDDAV:  cpu time    5.1029: real time    5.1149
    CHARGE:  cpu time    0.2463: real time    0.2469
    MIXING:  cpu time    0.0076: real time    0.0076
    --------------------------------------------
      LOOP:  cpu time    5.6055: real time    5.6187

 eigenvalue-minimisations  :  2224
 total energy-change (2. order) :-0.8399300E+00  (-0.1008479E+01)
 number of electron     659.9999909 magnetization      30.8048938
 augmentation part      219.2089854 magnetization      23.6687601

 Broyden mixing:
  rms(total) = 0.23516E+01    rms(broyden)= 0.23509E+01
  rms(prec ) = 0.26604E+01
  weight for this iteration     100.00

 eigenvalues of (default mixing * dielectric matrix)
  average eigenvalue GAMMA=   0.4256
  1.5024  0.7670  0.7670  0.4553  0.4553  0.3840  0.3840  0.1817  0.1549  0.1347
  0.1347  0.1066  0.1054

 Free energy of the ion-electron system (eV)
  ---------------------------------------------------
  alpha Z        PSCENC =      2072.59964409
  Ewald energy   TEWEN  =    -40728.81962882
  -Hartree energ DENC   =    -16808.73516762
  -exchange      EXHF   =         0.00000000
  -V(xc)+E(xc)   XCENC  =      2676.90791599
  PAW double counting   =     59555.32853621   -61867.98510853
  entropy T*S    EENTRO =        -0.05884874
  eigenvalues    EBANDS =     -2276.28202537
  atomic energy  EATOM  =     56757.95358879
  Solvation  Ediel_sol  =         0.00000000
  ---------------------------------------------------
  free energy    TOTEN  =      -619.09109400 eV

  energy without entropy =     -619.03224526  energy(sigma->0) =     -619.06166963


--------------------------------------------------------------------------------------------------------




--------------------------------------- Iteration      1(  19)  ---------------------------------------


    POTLOK:  cpu time    0.2177: real time    0.2183
    SETDIJ:  cpu time    0.0314: real time    0.0314
     EDDAV:  cpu time    5.1877: real time    5.1999
    CHARGE:  cpu time    0.2455: real time    0.2461
    MIXING:  cpu time    0.0076: real time    0.0077
    --------------------------------------------
      LOOP:  cpu time    5.6899: real time    5.7033

 eigenvalue-minimisations  :  2272
 total energy-change (2. order) : 0.3186392E+00  (-0.4931008E+00)
 number of electron     659.9999910 magnetization      29.3667519
 augmentation part      219.3215372 magnetization      22.3064893

 Broyden mixing:
  rms(total) = 0.15757E+01    rms(broyden)= 0.15751E+01
  rms(prec ) = 0.17224E+01
  weight for this iteration     100.00

 eigenvalues of (default mixing * dielectric matrix)
  average eigenvalue GAMMA=   0.4504
  1.6591  0.9043  0.9043  0.4692  0.4692  0.3777  0.3777  0.3474  0.1685  0.1493
  0.1493  0.1180  0.1112  0.0999

 Free energy of the ion-electron system (eV)
  ---------------------------------------------------
  alpha Z        PSCENC =      2072.59964409
  Ewald energy   TEWEN  =    -40728.81962882
  -Hartree energ DENC   =    -16807.61926320
  -exchange      EXHF   =         0.00000000
  -V(xc)+E(xc)   XCENC  =      2676.64059572
  PAW double counting   =     59849.93524297   -62164.85433683
  entropy T*S    EENTRO =        -0.03530566
  eigenvalues    EBANDS =     -2274.57299186
  atomic energy  EATOM  =     56757.95358879
  Solvation  Ediel_sol  =         0.00000000
  ---------------------------------------------------
  free energy    TOTEN  =      -618.77245480 eV

  energy without entropy =     -618.73714914  energy(sigma->0) =     -618.75480197


--------------------------------------------------------------------------------------------------------




--------------------------------------- Iteration      1(  20)  ---------------------------------------


    POTLOK:  cpu time    0.2180: real time    0.2185
    SETDIJ:  cpu time    0.0313: real time    0.0314
     EDDAV:  cpu time    5.2184: real time    5.2307
    CHARGE:  cpu time    0.2467: real time    0.2472
    MIXING:  cpu time    0.0081: real time    0.0081
    --------------------------------------------
      LOOP:  cpu time    5.7225: real time    5.7360

 eigenvalue-minimisations  :  2288
 total energy-change (2. order) :-0.1439173E+01  (-0.4927454E+00)
 number of electron     659.9999908 magnetization      27.4642248
 augmentation part      219.4026927 magnetization      20.8576379

 Broyden mixing:
  rms(total) = 0.19994E+01    rms(broyden)= 0.19987E+01
  rms(prec ) = 0.22898E+01
  weight for this iteration     100.00

 eigenvalues of (default mixing * dielectric matrix)
  average eigenvalue GAMMA=   0.4583
  1.7816  0.9898  0.9898  0.4894  0.4894  0.4114  0.4114  0.3788  0.1809  0.1506
  0.1506  0.1360  0.1090  0.1090  0.0964

 Free energy of the ion-electron system (eV)
  ---------------------------------------------------
  alpha Z        PSCENC =      2072.59964409
  Ewald energy   TEWEN  =    -40728.81962882
  -Hartree energ DENC   =    -16805.01351158
  -exchange      EXHF   =         0.00000000
  -V(xc)+E(xc)   XCENC  =      2676.49552370
  PAW double counting   =     60054.66931027   -62370.54690042
  entropy T*S    EENTRO =        -0.06810034
  eigenvalues    EBANDS =     -2277.48155359
  atomic energy  EATOM  =     56757.95358879
  Solvation  Ediel_sol  =         0.00000000
  ---------------------------------------------------
  free energy    TOTEN  =      -620.21162791 eV

  energy without entropy =     -620.14352757  energy(sigma->0) =     -620.17757774


--------------------------------------------------------------------------------------------------------




--------------------------------------- Iteration      1(  21)  ---------------------------------------


    POTLOK:  cpu time    0.2181: real time    0.2186
    SETDIJ:  cpu time    0.0315: real time    0.0316
     EDDAV:  cpu time    5.1341: real time    5.1462
    CHARGE:  cpu time    0.2461: real time    0.2467
    MIXING:  cpu time    0.0088: real time    0.0089
    --------------------------------------------
      LOOP:  cpu time    5.6387: real time    5.6520

 eigenvalue-minimisations  :  2240
 total energy-change (2. order) : 0.1789377E-01  (-0.2373109E+00)
 number of electron     659.9999909 magnetization      26.7674883
 augmentation part      219.3466031 magnetization      19.5630195

 Broyden mixing:
  rms(total) = 0.12630E+01    rms(broyden)= 0.12625E+01
  rms(prec ) = 0.14108E+01
  weight for this iteration     100.00

 eigenvalues of (default mixing * dielectric matrix)
  average eigenvalue GAMMA=   0.4647
  1.7928  1.0842  1.0842  0.5247  0.5247  0.4129  0.4129  0.3411  0.3411  0.1612
  0.1612  0.1378  0.1378  0.1102  0.1101  0.0982

 Free energy of the ion-electron system (eV)
  ---------------------------------------------------
  alpha Z        PSCENC =      2072.59964409
  Ewald energy   TEWEN  =    -40728.81962882
  -Hartree energ DENC   =    -16807.94180021
  -exchange      EXHF   =         0.00000000
  -V(xc)+E(xc)   XCENC  =      2676.48279771
  PAW double counting   =     60290.24547511   -62608.55969043
  entropy T*S    EENTRO =        -0.05789998
  eigenvalues    EBANDS =     -2272.09622040
  atomic energy  EATOM  =     56757.95358879
  Solvation  Ediel_sol  =         0.00000000
  ---------------------------------------------------
  free energy    TOTEN  =      -620.19373414 eV

  energy without entropy =     -620.13583416  energy(sigma->0) =     -620.16478415


--------------------------------------------------------------------------------------------------------




--------------------------------------- Iteration      1(  22)  ---------------------------------------


    POTLOK:  cpu time    0.2183: real time    0.2188
    SETDIJ:  cpu time    0.0314: real time    0.0315
     EDDAV:  cpu time    5.2506: real time    5.2631
    CHARGE:  cpu time    0.2459: real time    0.2465
    MIXING:  cpu time    0.0089: real time    0.0090
    --------------------------------------------
      LOOP:  cpu time    5.7552: real time    5.7689

 eigenvalue-minimisations  :  2304
 total energy-change (2. order) :-0.5256492E+00  (-0.2285132E+00)
 number of electron     659.9999909 magnetization      24.9643982
 augmentation part      219.2760018 magnetization      18.5552038

 Broyden mixing:
  rms(total) = 0.15337E+01    rms(broyden)= 0.15332E+01
  rms(prec ) = 0.17440E+01
  weight for this iteration     100.00

 eigenvalues of (default mixing * dielectric matrix)
  average eigenvalue GAMMA=   0.4909
  1.9831  1.1898  1.1898  0.5985  0.5985  0.4643  0.4643  0.4035  0.4035  0.1640
  0.1640  0.1461  0.1461  0.1233  0.1100  0.1025  0.0948

 Free energy of the ion-electron system (eV)
  ---------------------------------------------------
  alpha Z        PSCENC =      2072.59964409
  Ewald energy   TEWEN  =    -40728.81962882
  -Hartree energ DENC   =    -16808.92904656
  -exchange      EXHF   =         0.00000000
  -V(xc)+E(xc)   XCENC  =      2676.50056475
  PAW double counting   =     60354.61474833   -62673.06853669
  entropy T*S    EENTRO =        -0.02536285
  eigenvalues    EBANDS =     -2271.54535442
  atomic energy  EATOM  =     56757.95358879
  Solvation  Ediel_sol  =         0.00000000
  ---------------------------------------------------
  free energy    TOTEN  =      -620.71938338 eV

  energy without entropy =     -620.69402053  energy(sigma->0) =     -620.70670195


--------------------------------------------------------------------------------------------------------




--------------------------------------- Iteration      1(  23)  ---------------------------------------


    POTLOK:  cpu time    0.2174: real time    0.2179
    SETDIJ:  cpu time    0.0316: real time    0.0317
[...]
      2.89200      0.06303      7.04009        -0.000570     -0.003326     -0.001083
      4.35148      0.82944     11.74098         0.003170     -0.008848      0.004285
      2.93151      1.66256      2.37048         0.001778      0.000482      0.005119
      1.52210      2.49219      7.04439         0.000291     -0.000542      0.000380
      2.88328      3.34939     11.73984         0.000743      0.000728      0.001842
      1.45824      4.16258      2.36100         0.002740     -0.000817     -0.003215
     -0.00122      4.90726      7.05111         0.002175     -0.000313     -0.002114
      5.67959      0.09172      7.06008         0.000014     -0.000816     -0.000309
      7.04807      0.82121     11.73062         0.002277     -0.003734     -0.004947
      5.62700      1.65175      2.35541         0.003331     -0.000552      0.000875
      2.90703      4.85177      7.04684         0.000224      0.001868      0.001359
      4.25606      5.70676     11.74172         0.002280     -0.002821      0.001571
      2.81548      6.51634      2.34144        -0.004354      0.001546     -0.000391
      0.01540      0.02437     14.08802        -0.004197     -0.004874     -0.000016
      1.40320      0.82137      4.69737        -0.003149      0.000428      0.003445
      0.01659      1.64906      9.38013        -0.000802      0.000850     -0.001566
     -1.40858      2.46176     14.04982         0.007862     -0.000602     -0.004534
      0.00165      3.26281      4.72279        -0.000975      0.000651     -0.003096
     -1.42170      4.11005      9.41385        -0.001183     -0.000713     -0.000490
      5.69177      4.91571     14.08546         0.005563      0.000322      0.001258
     -1.40371      5.76018      4.69808        -0.000225     -0.001069     -0.001991
     -2.83615      6.58554      9.37871         0.000052     -0.001650      0.000464
      2.83926      0.00802      0.04228        -0.004100      0.005887      0.003368
      4.27771      0.81345      4.71465        -0.000577     -0.001580      0.000451
      2.84793      1.64197      9.35742         0.000809     -0.002060      0.001979
      1.42633      2.45596     14.09398        -0.000063      0.000239     -0.000569
      2.86147      3.29310      4.70036         0.000771     -0.001044      0.002031
      1.42133      4.12528      9.42642         0.000676      0.000086      0.000823
      0.01874      4.94043      0.01632         0.003329      0.006812     -0.006214
      1.41080      5.76375      4.70042         0.000010     -0.000213     -0.002201
      0.01424      6.55318      9.42305         0.000419     -0.001909      0.000963
      1.42286      7.36747      0.01271        -0.003008      0.003480     -0.000976
      7.14923      0.82644      4.70070         0.000889      0.000509     -0.000110
      5.69753      1.67165      9.38846        -0.000558     -0.000612     -0.000741
      4.28782      2.49166     14.08176         0.004585      0.004147      0.006987
      5.69749      3.29368      4.70155        -0.000176     -0.000944     -0.000266
      4.30116      4.09587      9.39129        -0.001142     -0.000177      0.002331
      2.85968      4.93552     14.09523        -0.001499     -0.003357     -0.000242
      4.27736      5.77176      4.66392        -0.000233      0.002538      0.001510
      2.85775      6.57065      9.42046         0.000413      0.000268     -0.000520
     -0.00483      0.00705     10.40088        -0.000269      0.002914      0.001593
      4.27863      7.39456      3.67362        -0.000675      0.003031      0.001175
      1.42819      0.81978      1.01801        -0.005126      0.001991      0.004720
      1.43224      0.83147      8.37001         0.000608     -0.000894     -0.001636
      0.00067      1.63869      5.71881        -0.000885      0.005068      0.000976
      0.00820      1.65563     13.07112         0.001689     -0.002280     -0.006126
     -1.34027      2.43997     10.37853         0.000343      0.000486     -0.000287
      7.12237      2.45056      3.67960        -0.002813     -0.001393     -0.003584
      0.03827      3.29071      1.03194         0.006267     -0.012285     -0.013254
      0.00149      3.28712      8.35819         0.000085     -0.002565     -0.003491
     -1.43853      4.08736      5.74512         0.001489      0.000134     -0.003774
     -1.32703      4.14462     13.10160         0.009543      0.007118     -0.007263
     -2.82841      5.02058     10.37787        -0.002477      0.000216      0.003397
     -2.77037      4.98120      3.71606        -0.003726      0.000877      0.000423
     -1.51223      5.69692      0.99449         0.001053      0.011585     -0.000442
     -1.40879      5.74802      8.35503        -0.001913     -0.004140     -0.002652
     -2.85266      6.60131      5.73019        -0.003004      0.000738      0.005141
     -2.87116      6.56744     13.07136        -0.012397     -0.000840      0.000915
     -1.40952      7.36858     10.41902        -0.000514     -0.004537      0.002745
      2.77847      0.04234      3.70996        -0.003904     -0.000687      0.000387
      4.26753      0.92189      0.99906         0.003544      0.009492      0.006600
      4.27203      0.72155      8.39189        -0.000383     -0.002361     -0.000721
      2.77910      1.59861      5.69736        -0.000666     -0.001408      0.003814
      2.84767      1.67855     13.06340        -0.011096     -0.002159      0.014140
      1.40566      2.48907     10.41837        -0.002190     -0.001652     -0.000743
      1.43024      2.44335      3.68331         0.000829      0.001464      0.001726
      2.78462      3.24596      0.99725         0.001455      0.005815      0.003006
      2.76803      3.32839      8.40364         0.001043     -0.000250     -0.000964
      1.44313      4.09646      5.74370         0.002129      0.002065     -0.001435
      1.43884      4.03514     13.10641         0.007212      0.000029     -0.002621
     -0.02969      4.91157     10.38711         0.002270     -0.000456      0.000395
      0.00342      4.83136      3.73576         0.001353     -0.003104     -0.007799
      1.46670      5.72971      0.96839        -0.005708      0.004553      0.000945
      1.43803      5.74955      8.41118         0.000774      0.000370     -0.000726
      0.00472      6.56626      5.70606        -0.000218     -0.002585     -0.000796
     -0.07168      6.61395     13.15527        -0.002669      0.016771     -0.002876
      5.70209      0.09048     10.37514         0.003855     -0.001782      0.000465
      5.77234      0.04621      3.71473        -0.000524     -0.002507     -0.002692
      7.14655      0.80724      1.01845         0.000196     -0.009820     -0.001608
      7.13697      0.85758      8.36375         0.001029      0.002734     -0.003409
      5.77928      1.60870      5.69936        -0.000170     -0.001573      0.001122
      5.70509      1.54955     13.09609         0.008856      0.006453     -0.000052
      4.21044      2.42516     10.33901        -0.001396     -0.001216      0.004774
      4.28006      2.40896      3.76009        -0.001955      0.001754      0.001726
      5.77620      3.23945      0.94479         0.017835      0.004601      0.004132
      5.74452      3.31746      8.43480        -0.004212      0.001020     -0.001845
      4.28085      4.20124      5.65139        -0.000225     -0.001610      0.000689
      4.24571      4.13275     13.12937         0.007666     -0.002010     -0.000110
      2.94350      4.88721     10.38697         0.002100     -0.001172      0.004146
      2.77408      4.99353      3.71151         0.002874     -0.000140      0.000330
      4.27385      5.83101      0.99650        -0.003761     -0.008612      0.002389
      4.30805      5.74789      8.35768        -0.002229      0.001459      0.000143
      2.85378      6.60343      5.73910        -0.000125      0.000643      0.001875
      2.93502      6.61638     13.10193        -0.007416     -0.008527     -0.001408
 -----------------------------------------------------------------------------------
    total drift:                               -0.003245      0.002599      0.010574


--------------------------------------------------------------------------------------------------------



  FREE ENERGIE OF THE ION-ELECTRON SYSTEM (eV)
  ---------------------------------------------------
  free  energy   TOTEN  =      -620.8590144629 eV

  energy  without entropy=     -620.8348720485  energy(sigma->0) =     -620.84694326
 
 d Force = 0.7187733E-03[ 0.610E-03, 0.828E-03]  d Energy = 0.5923654E-03 0.126E-03
 d Force = 0.2588724E+00[ 0.251E+00, 0.267E+00]  d Ewald  = 0.3615044E+01-0.336E+01


--------------------------------------------------------------------------------------------------------


    POTLOK:  cpu time    0.2500: real time    0.2506


--------------------------------------------------------------------------------------------------------


 Quasi-Newton relaxation of ions (Broydens 2nd method)
  g(Force)  = 0.215E-03   g(Stress)= 0.109E-04

 retain information from N=  6 steps
 eigenvalues of (default step * inverse Hessian matrix)
  average eigenvalue of G=   5.0625
 eigenvalue spectrum of G is  7.7605  7.7605  5.4993  3.7558  3.7558  1.8433


--------------------------------------------------------------------------------------------------------


  
 reached required accuracy - stopping structural energy minimisation
     LOOP+:  cpu time   58.3309: real time   58.6728
    4ORBIT:  cpu time    0.0000: real time    0.0000

volume of typ            1:    19.3 %

volume of typ            2:    19.3 %

volume of typ            3:     9.9 %
 
total charge     
 
# of ion       s       p       d       tot
------------------------------------------
    1        2.083   0.266   0.102   2.450
    2        2.077   0.251   0.094   2.422
    3        2.080   0.259   0.098   2.436
    4        2.084   0.269   0.103   2.456
    5        2.082   0.264   0.101   2.447
    6        2.078   0.252   0.095   2.424
    7        2.081   0.259   0.098   2.438
    8        2.079   0.255   0.096   2.430
    9        2.083   0.265   0.101   2.449
   10        2.084   0.269   0.102   2.455
   11        2.078   0.252   0.095   2.425
   12        2.080   0.258   0.097   2.435
   13        2.085   0.272   0.104   2.461
   14        2.079   0.255   0.096   2.430
   15        2.079   0.255   0.096   2.429
   16        2.081   0.259   0.098   2.438
   17        2.082   0.264   0.100   2.445
   18        2.080   0.260   0.098   2.438
   19        2.077   0.250   0.094   2.421
   20        2.080   0.258   0.097   2.435
   21        2.079   0.257   0.097   2.433
   22        2.081   0.261   0.099   2.441
   23        0.280   0.379   7.850   8.510
   24        0.281   0.381   7.851   8.513
   25        0.270   0.359   7.855   8.484
   26        0.264   0.343   7.856   8.463
   27        0.266   0.350   7.860   8.477
   28        0.270   0.357   7.854   8.482
   29        0.265   0.346   7.850   8.461
   30        0.264   0.345   7.857   8.466
   31        0.269   0.355   7.857   8.481
   32        0.264   0.343   7.856   8.463
   33        0.262   0.340   7.855   8.457
   34        0.264   0.343   7.859   8.466
   35        0.280   0.379   7.850   8.509
   36        0.255   0.324   7.854   8.433
   37        0.269   0.355   7.852   8.475
   38        0.266   0.348   7.849   8.463
   39        0.265   0.347   7.856   8.468
   40        0.270   0.358   7.851   8.479
   41        0.265   0.346   7.850   8.461
   42        0.280   0.379   7.852   8.512
   43        0.264   0.344   7.853   8.462
   44        0.266   0.349   7.849   8.465
   45        0.256   0.328   7.853   8.437
   46        0.265   0.346   7.853   8.463
   47        0.268   0.351   7.852   8.471
   48        0.265   0.346   7.856   8.467
   49        0.254   0.324   7.860   8.439
   50        1.261   2.786   0.005   4.053
   51        1.258   2.793   0.006   4.057
   52        1.258   2.793   0.006   4.057
   53        1.255   2.799   0.006   4.060
   54        1.258   2.792   0.006   4.056
   55        1.258   2.794   0.006   4.057
   56        1.267   2.770   0.006   4.043
   57        1.261   2.785   0.005   4.052
   58        1.262   2.784   0.005   4.050
   59        1.262   2.783   0.005   4.050
   60        1.259   2.790   0.005   4.054
   61        1.265   2.777   0.006   4.048
   62        1.267   2.772   0.006   4.045
   63        1.264   2.781   0.006   4.051
   64        1.264   2.779   0.006   4.049
   65        1.262   2.782   0.005   4.049
   66        1.262   2.783   0.005   4.050
   67        1.262   2.783   0.005   4.050
   68        1.261   2.786   0.005   4.052
   69        1.267   2.770   0.006   4.043
   70        1.265   2.777   0.006   4.047
   71        1.265   2.777   0.006   4.048
   72        1.266   2.776   0.006   4.047
   73        1.262   2.783   0.005   4.049
   74        1.261   2.786   0.005   4.052
   75        1.261   2.785   0.005   4.052
   76        1.268   2.768   0.006   4.042
   77        1.264   2.779   0.006   4.049
   78        1.259   2.791   0.005   4.054
   79        1.268   2.769   0.006   4.042
   80        1.260   2.787   0.007   4.053
   81        1.265   2.775   0.006   4.047
   82        1.259   2.789   0.007   4.055
   83        1.260   2.786   0.006   4.052
   84        1.254   2.802   0.006   4.062
   85        1.265   2.775   0.007   4.047
   86        1.264   2.781   0.006   4.051
   87        1.267   2.771   0.006   4.043
   88        1.262   2.783   0.005   4.050
   89        1.259   2.790   0.005   4.054
   90        1.265   2.777   0.006   4.048
   91        1.264   2.778   0.006   4.048
   92        1.264   2.777   0.007   4.048
   93        1.263   2.783   0.007   4.053
   94        1.265   2.775   0.007   4.046
   95        1.259   2.790   0.007   4.056
   96        1.263   2.783   0.006   4.053
   97        1.259   2.788   0.007   4.055
   98        1.264   2.780   0.006   4.050
   99        1.264   2.779   0.006   4.049
  100        1.268   2.768   0.006   4.042
  101        1.259   2.790   0.005   4.054
  102        1.262   2.783   0.005   4.050
  103        1.268   2.768   0.006   4.042
--------------------------------------------------
tot         121.15  165.41  214.53  501.08
 
magnetization (x)
 
# of ion       s       p       d       tot
------------------------------------------
    1        0.007   0.012   0.001   0.019
    2        0.006   0.011   0.001   0.017
    3        0.006   0.011   0.001   0.018
    4        0.007   0.013   0.001   0.021
    5        0.007   0.014   0.001   0.022
    6        0.007   0.014   0.001   0.022
    7        0.007   0.012   0.001   0.021
    8        0.007   0.013   0.001   0.021
    9        0.007   0.014   0.001   0.022
   10        0.007   0.013   0.001   0.021
   11        0.007   0.014   0.001   0.022
   12        0.007   0.014   0.001   0.022
   13        0.007   0.014   0.001   0.022
   14        0.007   0.013   0.001   0.021
   15        0.007   0.013   0.001   0.021
   16        0.007   0.012   0.001   0.020
   17        0.007   0.013   0.001   0.021
   18        0.007   0.015   0.001   0.023
   19        0.007   0.014   0.001   0.022
   20        0.007   0.013   0.001   0.022
   21        0.007   0.014   0.001   0.022
   22        0.007   0.013   0.001   0.021
   23       -0.001  -0.001   0.374   0.372
   24       -0.001  -0.001   0.356   0.354
   25       -0.001  -0.001   0.555   0.553
   26       -0.000  -0.001   0.685   0.684
   27       -0.000  -0.001   0.644   0.643
   28       -0.000  -0.001   0.558   0.557
   29       -0.000  -0.001   0.606   0.605
   30       -0.000  -0.001   0.655   0.654
   31       -0.001  -0.001   0.593   0.591
   32       -0.000  -0.001   0.682   0.681
   33       -0.000  -0.001   0.661   0.659
   34       -0.000  -0.001   0.688   0.687
   35       -0.001  -0.001   0.385   0.383
   36       -0.000  -0.001   0.814   0.814
   37       -0.000  -0.001   0.555   0.554
   38       -0.000  -0.001   0.591   0.590
   39       -0.000  -0.001   0.633   0.632
   40       -0.001  -0.001   0.527   0.526
   41       -0.000  -0.001   0.611   0.610
   42       -0.001  -0.001   0.370   0.368
   43       -0.000  -0.001   0.612   0.611
   44       -0.000  -0.001   0.578   0.577
   45       -0.000  -0.001   0.782   0.781
   46       -0.000  -0.001   0.606   0.605
   47       -0.000  -0.001   0.585   0.584
   48       -0.000  -0.001   0.627   0.626
   49       -0.000  -0.001   0.870   0.869
   50        0.014   0.070   0.000   0.085
   51        0.004  -0.001   0.000   0.003
   52        0.005   0.001   0.000   0.006
   53        0.004   0.000   0.000   0.005
   54        0.004  -0.001   0.000   0.004
   55        0.005   0.007   0.000   0.012
   56        0.013   0.077   0.000   0.090
   57        0.014   0.075   0.000   0.089
   58        0.014   0.087   0.000   0.101
   59        0.014   0.094   0.000   0.109
   60        0.014   0.092   0.000   0.106
   61        0.012   0.077   0.000   0.090
   62        0.013   0.074   0.000   0.087
   63        0.013   0.074   0.000   0.088
   64        0.013   0.085   0.000   0.098
   65        0.014   0.091   0.000   0.105
   66        0.013   0.084   0.000   0.097
   67        0.013   0.081   0.000   0.094
   68        0.013   0.076   0.000   0.090
   69        0.013   0.083   0.000   0.096
   70        0.013   0.083   0.000   0.096
   71        0.013   0.091   0.000   0.104
   72        0.014   0.094   0.000   0.108
   73        0.013   0.082   0.000   0.095
   74        0.013   0.077   0.000   0.090
   75        0.013   0.072   0.000   0.086
   76        0.013   0.085   0.000   0.098
   77        0.013   0.090   0.000   0.104
   78        0.014   0.095   0.000   0.109
   79        0.013   0.085   0.000   0.098
   80        0.004  -0.002   0.000   0.003
   81        0.012   0.068   0.000   0.080
   82        0.004  -0.003   0.000   0.001
   83        0.011   0.052   0.000   0.063
   84        0.004  -0.001   0.000   0.003
   85        0.010   0.047   0.000   0.058
   86        0.013   0.073   0.000   0.087
   87        0.012   0.075   0.000   0.087
   88        0.013   0.078   0.000   0.091
   89        0.014   0.090   0.000   0.104
   90        0.014   0.094   0.000   0.108
   91        0.013   0.085   0.000   0.098
   92        0.010   0.040   0.000   0.050
   93        0.011   0.042   0.000   0.053
   94        0.010   0.047   0.000   0.057
   95        0.004   0.002   0.000   0.006
   96        0.012   0.062   0.000   0.074
   97        0.004  -0.003   0.000   0.001
   98        0.013   0.073   0.000   0.086
   99        0.013   0.070   0.000   0.082
  100        0.013   0.090   0.000   0.103
  101        0.014   0.093   0.000   0.107
  102        0.013   0.089   0.000   0.102
  103        0.013   0.090   0.000   0.104
--------------------------------------------------
tot           0.74    3.70   16.24   20.68
 

 total amount of memory used by VASP MPI-rank0   146904. kBytes
=======================================================================

   base      :      30000. kBytes
   nonlr-proj:      40400. kBytes
   fftplans  :       9349. kBytes
   grid      :      55332. kBytes
   one-center:       1601. kBytes
   wavefun   :      10222. kBytes
 
  
  
 General timing and accounting informations for this job:
 ========================================================
  
                  Total CPU time used (sec):      920.849
                            User time (sec):      913.886
                          System time (sec):        6.963
                         Elapsed time (sec):      930.373
  
                   Maximum memory used (kb):      213968.
                   Average memory used (kb):           0.
  
                          Minor page faults:        34885
                          Major page faults:           53
                 Voluntary context switches:          954
