 vasp.5.4.4.18Apr17-6-g9f103f2a35 (build May 12 2020 05:39:39) gamma-only       
  
 MD_VERSION_INFO: Compiled 2020-05-12T12:39:39-UTC in devlin.sd.materialsdesign.
 com:/home/medea2/data/build/wwolf/vasp-gpu5.4.4/13047/x86_64/src/src/build/gam 
 from svn 13047
 
 This VASP executable licensed from Materials Design, Inc.
 
 executed on                        Lin64 date 2023.01.19  23:22:27
 running on   16 total cores
 distrk:  each k-point on   16 cores,    1 groups
 distr:  one band on NCORES_PER_BAND=   1 cores,   16 groups


--------------------------------------------------------------------------------------------------------


 INCAR:
 POTCAR:    PAW_PBE Li_sv 10Sep2004               
 POTCAR:    PAW_PBE Ni 02Aug2007                  
 POTCAR:    PAW_PBE O 08Apr2002                   

 ----------------------------------------------------------------------------- 
|                                                                             |
|           W    W    AA    RRRRR   N    N  II  N    N   GGGG   !!!           |
|           W    W   A  A   R    R  NN   N  II  NN   N  G    G  !!!           |
|           W    W  A    A  R    R  N N  N  II  N N  N  G       !!!           |
|           W WW W  AAAAAA  RRRRR   N  N N  II  N  N N  G  GGG   !            |
|           WW  WW  A    A  R   R   N   NN  II  N   NN  G    G                |
|           W    W  A    A  R    R  N    N  II  N    N   GGGG   !!!           |
|                                                                             |
|      For optimal performance we recommend to set                            |
|        NCORE= 4 - approx SQRT( number of cores)                             |
|      NCORE specifies how many cores store one orbital (NPAR=cpu/NCORE).     |
|      This setting can  greatly improve the performance of VASP for DFT.     |
|      The default,   NCORE=1            might be grossly inefficient         |
|      on modern multi-core architectures or massively parallel machines.     |
|      Do your own testing !!!!                                               |
|      Unfortunately you need to use the default for GW and RPA calculations. |
|      (for HF NCORE is supported but not extensively tested yet)             |
|                                                                             |
 ----------------------------------------------------------------------------- 

 POTCAR:    PAW_PBE Li_sv 10Sep2004               
  local pseudopotential read in
  atomic valenz-charges read in
  non local Contribution for L=           0  read in
    real space projection operators read in
  non local Contribution for L=           0  read in
    real space projection operators read in
  non local Contribution for L=           1  read in
    real space projection operators read in
    PAW grid and wavefunctions read in
 
   number of l-projection  operators is LMAX  =           3
   number of lm-projection operators is LMMAX =           5
 
 POTCAR:    PAW_PBE Ni 02Aug2007                  
  local pseudopotential read in
  partial core-charges read in
  partial kinetic energy density read in
  atomic valenz-charges read in
  non local Contribution for L=           2  read in
    real space projection operators read in
  non local Contribution for L=           2  read in
    real space projection operators read in
  non local Contribution for L=           0  read in
    real space projection operators read in
  non local Contribution for L=           0  read in
    real space projection operators read in
  non local Contribution for L=           1  read in
    real space projection operators read in
  non local Contribution for L=           1  read in
    real space projection operators read in
    PAW grid and wavefunctions read in
 
   number of l-projection  operators is LMAX  =           6
   number of lm-projection operators is LMMAX =          18
 
 POTCAR:    PAW_PBE O 08Apr2002                   
  local pseudopotential read in
  partial core-charges read in
  partial kinetic energy density read in
  kinetic energy density of atom read in
  atomic valenz-charges read in
  non local Contribution for L=           0  read in
    real space projection operators read in
  non local Contribution for L=           0  read in
    real space projection operators read in
  non local Contribution for L=           1  read in
    real space projection operators read in
  non local Contribution for L=           1  read in
    real space projection operators read in
    PAW grid and wavefunctions read in
 
   number of l-projection  operators is LMAX  =           4
   number of lm-projection operators is LMMAX =           8
 
 Optimization of the real space projectors (new method)

 maximal supplied QI-value         = 22.11
 optimisation between [QCUT,QGAM] = [ 11.28, 22.77] = [ 35.61,145.23] Ry 
 Optimized for a Real-space Cutoff    1.10 Angstroem

   l    n(q)    QCUT    max X(q) W(low)/X(q) W(high)/X(q)  e(spline) 
   0      7    11.276    10.506    0.54E-04    0.58E-04    0.16E-07
   0      7    11.276     8.367    0.11E-03    0.14E-03    0.35E-07
   1      7    11.276     8.983    0.23E-03    0.43E-03    0.86E-07
 Optimization of the real space projectors (new method)

 maximal supplied QI-value         = 16.25
 optimisation between [QCUT,QGAM] = [ 11.38, 22.75] = [ 36.24,144.96] Ry 
 Optimized for a Real-space Cutoff    1.47 Angstroem

   l    n(q)    QCUT    max X(q) W(low)/X(q) W(high)/X(q)  e(spline) 
   2      9    11.376    60.317    0.17E-03    0.16E-04    0.16E-06
   2      9    11.376    55.921    0.17E-03    0.16E-04    0.17E-06
   0     10    11.376    51.690    0.45E-04    0.60E-04    0.21E-06
   0     10    11.376    30.015    0.37E-04    0.55E-04    0.19E-06
   1     10    11.376    18.849    0.83E-04    0.11E-03    0.92E-07
   1     10    11.376    14.624    0.69E-04    0.92E-04    0.82E-07
 Optimization of the real space projectors (new method)

 maximal supplied QI-value         = 24.76
 optimisation between [QCUT,QGAM] = [ 11.39, 22.77] = [ 36.31,145.25] Ry 
 Optimized for a Real-space Cutoff    1.10 Angstroem

   l    n(q)    QCUT    max X(q) W(low)/X(q) W(high)/X(q)  e(spline) 
   0      7    11.387    20.381    0.22E-03    0.48E-03    0.18E-06
   0      7    11.387    15.268    0.22E-03    0.52E-03    0.19E-06
   1      7    11.387     5.964    0.22E-03    0.73E-03    0.24E-06
   1      7    11.387     5.382    0.19E-03    0.60E-03    0.21E-06

 ----------------------------------------------------------------------------- 
|                                                                             |
|  ADVICE TO THIS USER RUNNING 'VASP/VAMP'   (HEAR YOUR MASTER'S VOICE ...):  |
|                                                                             |
|      You enforced a specific xc-type in the INCAR file,                     |
|      a different type was found on the POTCAR file                          |
|          I HOPE YOU KNOW, WHAT YOU ARE  DOING                               |
|                                                                             |
 ----------------------------------------------------------------------------- 

  PAW_PBE Li_sv 10Sep2004               :
 energy of atom  1       EATOM= -202.7858
 kinetic energy error for atom=    0.0143 (will be added to EATOM!!)
  PAW_PBE Ni 02Aug2007                  :
 energy of atom  2       EATOM=-1077.6739
 kinetic energy error for atom=    0.0030 (will be added to EATOM!!)
  PAW_PBE O 08Apr2002                   :
 energy of atom  3       EATOM= -432.3788
 kinetic energy error for atom=    0.0224 (will be added to EATOM!!)
 
 
 POSCAR: ce213187_1                              
  positions in direct lattice
  No initial velocities read in
 exchange correlation table for  LEXCH =       14
   RHO(1)=    0.500       N(1)  =     2000
   RHO(2)=  100.500       N(2)  =     4000
 


--------------------------------------------------------------------------------------------------------


 ion  position               nearest neighbor table
   1  0.975  0.500  0.975-  92 2.00  93 2.00  80 2.11  57 2.11  45 2.27  44 2.27  40 2.79  39 2.79

   2  0.110  0.833  0.222-  64 2.10  41 2.10  59 2.11  58 2.11  46 2.11  65 2.13
   3  0.222  0.167  0.110-  49 2.10  42 2.10  48 2.11  79 2.11  43 2.11  66 2.13
   4  0.334  0.500  0.001-  50 2.10  51 2.10  45 2.11  86 2.11  81 2.12  80 2.12
   5  0.466  0.832  0.221-  71 2.01  52 2.02  47 2.15  70 2.16  46 2.25  65 2.25  19 2.81  29 2.82

   6  0.578  0.166  0.109-  55 2.01  54 2.02  85 2.14  72 2.16  49 2.25  48 2.25  20 2.80  21 2.82

   7  0.001  0.500  0.334-  63 2.10  62 2.10  44 2.11  75 2.11  56 2.12  57 2.12
   8  0.109  0.834  0.578-  82 2.01  77 2.02  76 2.14  83 2.16  64 2.25  59 2.25  32 2.80  34 2.82

   9  0.221  0.168  0.466-  84 2.01  61 2.02  60 2.15  67 2.16  43 2.25  66 2.25  24 2.81  35 2.82

  10  0.667  0.501  0.361-  74 2.00  69 2.00  50 2.10  75 2.11  51 2.27  30 2.77  28 2.78
  11  0.361  0.499  0.667-  87 2.00  68 2.00  63 2.10  86 2.11  62 2.27  37 2.77  27 2.78
  12  0.754  0.833  0.866-  89 2.01  88 2.01  53 2.15  94 2.16  41 2.24  58 2.27  37 2.79  38 2.81

  13  0.866  0.167  0.754-  90 2.01  73 2.01  78 2.15  91 2.16  42 2.24  79 2.27  30 2.79  38 2.81

  14  0.002  0.000  0.002-  58 1.86  79 1.86  91 1.88  94 1.88  46 1.91  43 1.91  17 2.79  23 2.79
                            26 2.81  20 2.81  32 2.81  38 2.84
  15  0.112  0.335  0.221-  57 1.86  66 1.86  60 1.88  45 1.92  42 1.94  63 1.95  18 2.79  39 2.80
                            27 2.81  21 2.82  33 2.83  24 2.84
  16  0.221  0.665  0.112-  80 1.86  65 1.86  47 1.88  44 1.92  41 1.94  50 1.95  25 2.79  40 2.80
                            28 2.81  34 2.82  22 2.83  19 2.84
  17  0.331  0.999  0.998-  52 1.87  49 1.88  85 1.88  82 1.89  79 1.90  46 1.93  32 2.78  14 2.79
                            35 2.81  26 2.83  29 2.84  20 2.84
  18  0.443  0.333  0.223-  69 1.87  72 1.87  48 1.88  51 1.88  66 1.90  45 1.91  27 2.79  15 2.79
                            30 2.81  33 2.81  36 2.82  21 2.84
  19  0.557  0.665  0.109-  47 1.88  50 1.88  71 1.88  53 1.89  56 1.92  86 1.93  22 2.78  37 2.78
                             5 2.81  34 2.82  31 2.83  16 2.84  28 2.84
  20  0.668  0.999  0.001-  88 1.87  55 1.87  85 1.87  58 1.91  52 1.92  91 1.93  23 2.78   6 2.80
                            14 2.81  35 2.82  38 2.82  29 2.83  17 2.84
  21  0.778  0.335  0.221-  54 1.86  75 1.87  72 1.89  60 1.91  51 1.93  57 1.93  39 2.80  36 2.80
                            30 2.81  24 2.82   6 2.82  15 2.82  18 2.84
  22  0.887  0.667  0.113-  41 1.87  53 1.87  92 1.87  44 1.88  56 1.89  59 1.91  19 2.78  31 2.79
                            25 2.81  37 2.82  16 2.83  40 2.84
  23  0.998  0.001  0.331-  61 1.87  64 1.88  76 1.88  55 1.89  58 1.90  43 1.93  20 2.78  14 2.79
                            29 2.81  26 2.83  35 2.84  32 2.84
  24  0.109  0.335  0.557-  60 1.88  63 1.88  84 1.88  78 1.89  81 1.92  75 1.93  33 2.78  30 2.78
                             9 2.81  21 2.82  36 2.83  15 2.84  27 2.84
  25  0.223  0.667  0.443-  68 1.87  83 1.87  59 1.88  62 1.88  65 1.90  44 1.91  28 2.79  16 2.79
                            37 2.81  22 2.81  31 2.82  34 2.84
  26  0.335  0.000  0.335-  70 1.86  67 1.86  43 1.87  46 1.87  64 1.93  49 1.93  38 2.78  29 2.80
                            35 2.80  14 2.81  23 2.83  17 2.83
  27  0.445  0.333  0.554-  87 1.87  84 1.88  66 1.90  69 1.91  90 1.91  63 1.95  11 2.78  18 2.79
                            15 2.81  30 2.82  39 2.83  36 2.84  24 2.84
  28  0.554  0.667  0.445-  74 1.87  71 1.88  65 1.90  68 1.91  89 1.91  50 1.95  10 2.78  25 2.79
                            16 2.81  37 2.82  40 2.83  31 2.84  19 2.84
  29  0.667  0.001  0.334-  70 1.87  55 1.87  52 1.88  73 1.90  76 1.91  49 1.93  38 2.80  26 2.80
                            23 2.81  32 2.82   5 2.82  20 2.83  17 2.84
  30  0.778  0.334  0.554-  69 1.87  78 1.87  90 1.88  72 1.91  93 1.92  75 1.92  10 2.77  24 2.78
                            13 2.79  18 2.81  21 2.81  27 2.82  33 2.82  39 2.84
  31  0.890  0.669  0.445-  77 1.86  56 1.88  74 1.88  59 1.92  71 1.92  62 1.94  22 2.79  34 2.80
                            25 2.82  40 2.82  19 2.83  28 2.84
  32  0.001  0.001  0.668-  73 1.87  82 1.87  76 1.87  79 1.91  61 1.92  94 1.93  17 2.78   8 2.80
                            14 2.81  29 2.82  38 2.82  35 2.83  23 2.84
  33  0.113  0.333  0.887-  42 1.87  78 1.87  93 1.87  45 1.88  81 1.89  48 1.91  24 2.78  36 2.79
                            18 2.81  30 2.82  15 2.83  39 2.84
  34  0.221  0.665  0.778-  77 1.86  86 1.87  83 1.89  47 1.91  62 1.93  80 1.93  40 2.80  31 2.80
                            37 2.81  19 2.82   8 2.82  16 2.82  25 2.84
  35  0.334  0.999  0.667-  67 1.87  82 1.87  61 1.88  88 1.90  85 1.91  64 1.93  38 2.80  26 2.80
                            17 2.81  20 2.82   9 2.82  32 2.83  23 2.84
  36  0.445  0.331  0.890-  54 1.86  81 1.88  87 1.88  48 1.92  84 1.92  51 1.94  33 2.79  21 2.80
                            18 2.82  39 2.82  24 2.83  27 2.84
  37  0.554  0.666  0.778-  68 1.87  53 1.87  89 1.88  83 1.91  92 1.92  86 1.92  11 2.77  19 2.78
                            12 2.79  25 2.81  34 2.81  28 2.82  22 2.82  40 2.84
  38  0.665  0.000  0.665-  73 1.88  88 1.88  94 1.88  91 1.88  67 1.90  70 1.90  26 2.78  35 2.80
                            29 2.80  12 2.81  13 2.81  32 2.82  20 2.82  14 2.84
  39  0.779  0.333  0.890-  90 1.87  93 1.89  54 1.91  87 1.91  57 1.92  42 1.93   1 2.79  21 2.80
                            15 2.80  36 2.82  27 2.83  33 2.84  30 2.84
  40  0.890  0.667  0.779-  89 1.87  92 1.89  77 1.91  74 1.91  80 1.92  41 1.93   1 2.79  34 2.80
                            16 2.80  31 2.82  28 2.83  22 2.84  37 2.84
  41  0.996  0.737  0.005-  22 1.87  40 1.93  16 1.94   2 2.10  12 2.24
  42  0.005  0.263  0.996-  33 1.87  39 1.93  15 1.94   3 2.10  13 2.24
  43  0.118  0.070  0.225-  26 1.87  14 1.91  23 1.93   3 2.11   9 2.25
  44  0.105  0.597  0.221-  22 1.88  25 1.91  16 1.92   7 2.11   1 2.27
  45  0.221  0.403  0.105-  33 1.88  18 1.91  15 1.92   4 2.11   1 2.27
  46  0.225  0.930  0.118-  26 1.87  14 1.91  17 1.93   2 2.11   5 2.25
  47  0.335  0.732  0.004-  19 1.88  16 1.88  34 1.91   5 2.15
  48  0.336  0.263  0.007-  18 1.88  33 1.91  36 1.92   3 2.11   6 2.25
  49  0.439  0.070  0.214-  17 1.88  26 1.93  29 1.93   3 2.10   6 2.25
  50  0.450  0.595  0.219-  19 1.88  16 1.95  28 1.95   4 2.10  10 2.10
  51  0.551  0.404  0.115-  18 1.88  21 1.93  36 1.94   4 2.10  10 2.27
  52  0.552  0.933  0.114-  17 1.87  29 1.88  20 1.92   5 2.02
  53  0.666  0.733  0.997-  37 1.87  22 1.87  19 1.89  12 2.15
  54  0.666  0.266  0.004-  21 1.86  36 1.86  39 1.91   6 2.02
  55  0.773  0.066  0.220-  29 1.87  20 1.87  23 1.89   6 2.01
  56  0.783  0.598  0.229-  31 1.88  22 1.89  19 1.92   7 2.12
  57  0.896  0.404  0.112-  15 1.86  39 1.92  21 1.93   1 2.11   7 2.12
  58  0.894  0.931  0.110-  14 1.86  23 1.90  20 1.91   2 2.11  12 2.27
  59  0.007  0.737  0.336-  25 1.88  22 1.91  31 1.92   2 2.11   8 2.25
  60  0.004  0.268  0.335-  24 1.88  15 1.88  21 1.91   9 2.15
  61  0.114  0.067  0.552-  23 1.87  35 1.88  32 1.92   9 2.02
  62  0.115  0.596  0.551-  25 1.88  34 1.93  31 1.94   7 2.10  11 2.27
  63  0.219  0.405  0.450-  24 1.88  15 1.95  27 1.95   7 2.10  11 2.10
  64  0.214  0.930  0.439-  23 1.88  26 1.93  35 1.93   2 2.10   8 2.25
  65  0.330  0.735  0.327-  16 1.86  28 1.90  25 1.90   2 2.13   5 2.25
  66  0.327  0.265  0.330-  15 1.86  27 1.90  18 1.90   3 2.13   9 2.25
  67  0.440  0.066  0.554-  26 1.86  35 1.87  38 1.90   9 2.16
  68  0.442  0.600  0.558-  25 1.87  37 1.87  28 1.91  11 2.00
  69  0.558  0.400  0.442-  18 1.87  30 1.87  27 1.91  10 2.00
  70  0.554  0.934  0.440-  26 1.86  29 1.87  38 1.90   5 2.16
  71  0.660  0.733  0.329-  28 1.88  19 1.88  31 1.92   5 2.01
  72  0.664  0.267  0.328-  18 1.87  21 1.89  30 1.91   6 2.16
  73  0.780  0.067  0.560-  32 1.87  38 1.88  29 1.90  13 2.01
  74  0.776  0.602  0.551-  28 1.87  31 1.88  40 1.91  10 2.00
  75  0.884  0.405  0.436-  21 1.87  30 1.92  24 1.93   7 2.11  10 2.11
  76  0.894  0.934  0.448-  32 1.87  23 1.88  29 1.91   8 2.14
  77  0.004  0.734  0.666-  34 1.86  31 1.86  40 1.91   8 2.02
  78  0.997  0.267  0.666-  30 1.87  33 1.87  24 1.89  13 2.15
  79  0.110  0.069  0.894-  14 1.86  17 1.90  32 1.91   3 2.11  13 2.27
  80  0.112  0.596  0.896-  16 1.86  40 1.92  34 1.93   1 2.11   4 2.12
  81  0.229  0.402  0.783-  36 1.88  33 1.89  24 1.92   4 2.12
  82  0.220  0.934  0.773-  35 1.87  32 1.87  17 1.89   8 2.01
  83  0.328  0.733  0.664-  25 1.87  34 1.89  37 1.91   8 2.16
  84  0.329  0.267  0.660-  27 1.88  24 1.88  36 1.92   9 2.01
  85  0.448  0.066  0.894-  20 1.87  17 1.88  35 1.91   6 2.14
  86  0.436  0.595  0.884-  34 1.87  37 1.92  19 1.93   4 2.11  11 2.11
  87  0.551  0.398  0.776-  27 1.87  36 1.88  39 1.91  11 2.00
  88  0.560  0.933  0.780-  20 1.87  38 1.88  35 1.90  12 2.01
  89  0.669  0.733  0.673-  40 1.87  37 1.88  28 1.91  12 2.01
  90  0.673  0.267  0.669-  39 1.87  30 1.88  27 1.91  13 2.01
  91  0.781  0.067  0.886-  14 1.88  38 1.88  20 1.93  13 2.16
  92  0.783  0.600  0.893-  22 1.87  40 1.89  37 1.92   1 2.00
  93  0.893  0.400  0.783-  33 1.87  39 1.89  30 1.92   1 2.00
  94  0.886  0.933  0.781-  14 1.88  38 1.88  32 1.93  12 2.16
 
  LATTYP: Found a base centered monoclinic cell.
 ALAT       =    14.6357181604
 B/A-ratio  =     0.5764591254
 C/A-ratio  =     1.3962669594
 COS(beta)  =    -0.6197569127
  
  Lattice vectors:
  
 A1 = (   8.4466740900,  -0.0056469448,  -0.0043426701)
 A2 = (   4.2282274097,  -7.3122108434,  -0.0043426701)
 A3 = ( -12.6674137572,   7.3135347041, -14.2707103316)


Analysis of symmetry for initial positions (statically):
=====================================================================
 Subroutine PRICEL returns:
 Original cell was already a primitive cell.
 

 Routine SETGRP: Setting up the symmetry group for a 
 base centered monoclinic supercell.


 Subroutine GETGRP returns: Found  2 space group operations
 (whereof  2 operations were pure point group operations)
 out of a pool of  4 trial point group operations.


The static configuration has the point symmetry C_2 .


Analysis of symmetry for dynamics (positions and initial velocities):
=====================================================================
 Subroutine PRICEL returns:
 Original cell was already a primitive cell.
 

 Routine SETGRP: Setting up the symmetry group for a 
 base centered monoclinic supercell.


 Subroutine GETGRP returns: Found  2 space group operations
 (whereof  2 operations were pure point group operations)
 out of a pool of  4 trial point group operations.


The dynamic configuration has the point symmetry C_2 .


Analysis of structural, dynamic, and magnetic symmetry:
=====================================================================
 Subroutine PRICEL returns:
 Original cell was already a primitive cell.
 

 Routine SETGRP: Setting up the symmetry group for a 
 base centered monoclinic supercell.


 Subroutine GETGRP returns: Found  2 space group operations
 (whereof  2 operations were pure point group operations)
 out of a pool of  4 trial point group operations.


The magnetic configuration has the point symmetry C_2 .


 Subroutine INISYM returns: Found  2 space group operations
 (whereof  2 operations are pure point group operations),
 and found     1 'primitive' translations

 
 
 KPOINTS: Automatic mesh                          

Automatic generation of k-mesh.
Space group operators:
 irot       det(A)        alpha          n_x          n_y          n_z        tau_x        tau_y        tau_z
    1     1.000000     0.000000     1.000000     0.000000     0.000000     0.000000     0.000000     0.000000
    2     1.000000   180.000000     0.500000     0.866025    -0.000000     0.000000     0.000000     0.000000
 
 Subroutine IBZKPT returns following result:
 ===========================================
 
 Found      1 irreducible k-points:
 
 Following reciprocal coordinates:
            Coordinates               Weight
  0.000000  0.000000  0.000000      1.000000
 
 Following cartesian coordinates:
            Coordinates               Weight
  0.000000  0.000000  0.000000      1.000000
 


--------------------------------------------------------------------------------------------------------




 Dimension of arrays:
   k-points           NKPTS =      1   k-points in BZ     NKDIM =      1   number of bands    NBANDS=    416
   number of dos      NEDOS =    301   number of ions     NIONS =     94
   non local maximal  LDIM  =      6   non local SUM 2l+1 LMDIM =     18
   total plane-waves  NPLWV = 442368
   max r-space proj   IRMAX =   6786   max aug-charges    IRDMAX=  16463
   dimension x,y,z NGX =    64 NGY =  108 NGZ =   64
   dimension x,y,z NGXF=   128 NGYF=  216 NGZF=  128
   support grid    NGXF=   128 NGYF=  216 NGZF=  128
   ions per type =              13  27  54
   NGX,Y,Z   is equivalent  to a cutoff of  12.60, 12.57, 12.60 a.u.
   NGXF,Y,Z  is equivalent  to a cutoff of  25.19, 25.15, 25.19 a.u.

 SYSTEM =  unknown system                          
 POSCAR =  ce213187_1                              

 Startparameter for this run:
   NWRITE =      1    write-flag & timer
   PREC   = accura    normal or accurate (medium, high low for compatibility)
   ISTART =      0    job   : 0-new  1-cont  2-samecut
   ICHARG =      2    charge: 1-file 2-atom 10-const
   ISPIN  =      2    spin polarized calculation?
   LNONCOLLINEAR =      F non collinear calculations
   LSORBIT =      F    spin-orbit coupling
   INIWAV =      1    electr: 0-lowe 1-rand  2-diag
   LASPH  =      F    aspherical Exc in radial PAW
   METAGGA=      F    non-selfconsistent MetaGGA calc.

 Electronic Relaxation 1
   ENCUT  =  500.0 eV  36.75 Ry    6.06 a.u.  15.40 26.03 15.40*2*pi/ulx,y,z
   ENINI  =  500.0     initial cutoff
   ENAUG  =  628.9 eV  augmentation charge cutoff
   NELM   =     80;   NELMIN=  2; NELMDL= -5     # of ELM steps 
   EDIFF  = 0.1E-04   stopping-criterion for ELM
   LREAL  =      T    real-space projection
   NLSPLINE    = F    spline interpolate recip. space projectors
   LCOMPAT=      F    compatible to vasp.4.4
   GGA_COMPAT  = T    GGA compatible to vasp.4.4-vasp.4.6
   LMAXPAW     = -100 max onsite density
   LMAXMIX     =    2 max onsite mixed and CHGCAR
   VOSKOWN=      1    Vosko Wilk Nusair interpolation
   ROPT   =   -0.00025  -0.00025  -0.00025
 Ionic relaxation
   EDIFFG = -.2E-01   stopping-criterion for IOM
   NSW    =     20    number of steps for IOM
   NBLOCK =      1;   KBLOCK =     20    inner block; outer block 
   IBRION =      1    ionic relax: 0-MD 1-quasi-New 2-CG
   NFREE  =      0    steps in history (QN), initial steepest desc. (CG)
   ISIF   =      3    stress and relaxation
   IWAVPR =     11    prediction:  0-non 1-charg 2-wave 3-comb
   ISYM   =      2    0-nonsym 1-usesym 2-fastsym
   LCORR  =      T    Harris-Foulkes like correction to forces

   POTIM  = 0.5000    time-step for ionic-motion
   TEIN   =    0.0    initial temperature
   TEBEG  =    0.0;   TEEND  =   0.0 temperature during run
   SMASS  =  -3.00    Nose mass-parameter (am)
   estimated Nose-frequenzy (Omega)   =  0.10E-29 period in steps =****** mass=  -0.163E-26a.u.
   SCALEE = 1.0000    scale energy and forces
   NPACO  =    256;   APACO  = 16.0  distance and # of slots for P.C.
   PSTRESS=    0.0 pullay stress

  Mass of Ions in am
   POMASS =   7.01 58.69 16.00
  Ionic Valenz
   ZVAL   =   3.00 10.00  6.00
  Atomic Wigner-Seitz radii
   RWIGS  =   1.23  1.15  0.73
  virtual crystal weights 
   VCA    =   1.00  1.00  1.00
   NELECT =     633.0000    total number of electrons
   NUPDOWN=      -1.0000    fix difference up-down

 DOS related values:
   EMIN   =  10.00;   EMAX   =-10.00  energy-range for DOS
   EFERMI =   0.00
   ISMEAR =     0;   SIGMA  =   0.05  broadening in eV -4-tet -1-fermi 0-gaus

 Electronic relaxation 2 (details)
   IALGO  =     38    algorithm
   LDIAG  =      T    sub-space diagonalisation (order eigenvalues)
   LSUBROT=      F    optimize rotation matrix (better conditioning)
   TURBO    =      0    0=normal 1=particle mesh
   IRESTART =      0    0=no restart 2=restart with 2 vectors
   NREBOOT  =      0    no. of reboots
   NMIN     =      0    reboot dimension
   EREF     =   0.00    reference energy to select bands
   IMIX   =      4    mixing-type and parameters
     AMIX     =   0.40;   BMIX     =  1.00
     AMIX_MAG =   1.60;   BMIX_MAG =  1.00
     AMIN     =   0.10
     WC   =   100.;   INIMIX=   1;  MIXPRE=   1;  MAXMIX= -45

 Intra band minimization:
   WEIMIN = 0.0010     energy-eigenvalue tresh-hold
   EBREAK =  0.60E-08  absolut break condition
   DEPER  =   0.30     relativ break condition  

   TIME   =   0.40     timestep for ELM

  volume/ion in A,a.u.               =       9.38        63.29
  Fermi-wavevector in a.u.,A,eV,Ry     =   1.465944  2.770232 29.238803  2.148991
  Thomas-Fermi vector in A             =   2.581740
 
 Write flags
   LWAVE        =      F    write WAVECAR
   LDOWNSAMPLE  =      F    k-point downsampling of WAVECAR
   LCHARG       =      T    write CHGCAR
   LVTOT        =      F    write LOCPOT, total local potential
   LVHAR        =      F    write LOCPOT, Hartree potential only
   LELF         =      F    write electronic localiz. function (ELF)
   LORBIT       =      0    0 simple, 1 ext, 2 COOP (PROOUT), +10 PAW based schemes


 Dipole corrections
   LMONO  =      F    monopole corrections only (constant potential shift)
   LDIPOL =      F    correct potential (dipole corrections)
   IDIPOL =      0    1-x, 2-y, 3-z, 4-all directions 
   EPSILON=  1.0000000 bulk dielectric constant

 Exchange correlation treatment:
   GGA     =    PS    GGA type
   LEXCH   =    14    internal setting for exchange type
   VOSKOWN=      1    Vosko Wilk Nusair interpolation
   LHFCALC =     F    Hartree Fock is set to
   LHFONE  =     F    Hartree Fock one center treatment
   AEXX    =    0.0000 exact exchange contribution

 Linear response parameters
   LEPSILON=     F    determine dielectric tensor
   LRPA    =     F    only Hartree local field effects (RPA)
   LNABLA  =     F    use nabla operator in PAW spheres
   LVEL    =     F    velocity operator in full k-point grid
   LINTERFAST=   F  fast interpolation
   KINTER  =     0    interpolate to denser k-point grid
   CSHIFT  =0.1000    complex shift for real part using Kramers Kronig
   OMEGAMAX=  -1.0    maximum frequency
   DEG_THRESHOLD= 0.2000000E-02 threshold for treating states as degnerate
   RTIME   =   -0.100 relaxation time in fs
  (WPLASMAI=    0.000 imaginary part of plasma frequency in eV, 0.658/RTIME)
   DFIELD  = 0.0000000 0.0000000 0.0000000 field for delta impulse in time
 
 Orbital magnetization related:
   ORBITALMAG=     F  switch on orbital magnetization
   LCHIMAG   =     F  perturbation theory with respect to B field
   DQ        =  0.001000  dq finite difference perturbation B field
   LLRAUG    =     F  two centre corrections for induced B field



--------------------------------------------------------------------------------------------------------


 quasi-Newton-method for relaxation of ions
 charge density and potential will be updated during run
 spin polarized calculation
 Variant of blocked Davidson
 Davidson routine will perform the subspace rotation
 perform sub-space diagonalisation
    after iterative eigenvector-optimisation
 modified Broyden-mixing scheme, WC =      100.0
 initial mixing is a Kerker type mixing with AMIX =  0.4000 and BMIX =      1.0000
 Hartree-type preconditioning will be used
 using additional bands           99
 real space projection scheme for non local part
 use partial core corrections
 calculate Harris-corrections to forces 
   (improved forces if not selfconsistent)
 use gradient corrections 
 use of overlap-Matrix (Vanderbilt PP)
 Gauss-broadening in eV      SIGMA  =   0.05


--------------------------------------------------------------------------------------------------------


  energy-cutoff  :      500.00
  volume of cell :      881.61
      direct lattice vectors                 reciprocal lattice vectors
    -4.228227410  7.312210843  0.004342670     0.000091442  0.136810445 -0.000041371
    -0.007487742  0.004323084 14.279395672     0.000035991 -0.000020779  0.070031000
     8.446674090 -0.005646945 -0.004342670     0.118435599  0.068484413  0.000041371

  length of vectors
     8.446677057 14.279398289  8.446677094     0.136810482  0.070031012  0.136810481


 
 k-points in units of 2pi/SCALE and weight: Automatic mesh                          
   0.00000000  0.00000000  0.00000000       1.000
 
 k-points in reciprocal lattice and weights: Automatic mesh                          
   0.00000000  0.00000000  0.00000000       1.000
 
 position of ions in fractional coordinates (direct lattice) 
   0.97459668  0.50000000  0.97459668
   0.11047378  0.83349759  0.22202212
   0.22202212  0.16650241  0.11047378
   0.33389487  0.49996761  0.00056973
   0.46592024  0.83248622  0.22121525
   0.57770011  0.16581805  0.10939470
   0.00056973  0.50003239  0.33389487
   0.10939470  0.83418195  0.57770011
   0.22121525  0.16751378  0.46592024
   0.66720456  0.50076035  0.36135593
   0.36135593  0.49923965  0.66720456
   0.75388024  0.83251746  0.86634598
   0.86634598  0.16748254  0.75388024
   0.00189517  0.00000000  0.00189517
   0.11203280  0.33477660  0.22145920
   0.22145920  0.66522340  0.11203280
   0.33082395  0.99883637  0.99802325
   0.44320140  0.33310818  0.22344824
   0.55654498  0.66545479  0.10909140
   0.66816675  0.99869050  0.00077516
   0.77765769  0.33454671  0.22053436
   0.88736728  0.66715657  0.11308501
   0.99802325  0.00116363  0.33082395
   0.10909140  0.33454521  0.55654498
   0.22344824  0.66689182  0.44320140
   0.33530856  0.00000000  0.33530856
   0.44471805  0.33257944  0.55435884
   0.55435884  0.66742056  0.44471805
   0.66674891  0.00111824  0.33449722
   0.77809556  0.33408905  0.55395862
   0.89046177  0.66877508  0.44490706
   0.00077516  0.00130950  0.66816675
   0.11308501  0.33284343  0.88736728
   0.22053436  0.66545329  0.77765769
   0.33449722  0.99888176  0.66674891
   0.44490706  0.33122492  0.89046177
   0.55395862  0.66591095  0.77809556
   0.66499889  0.00000000  0.66499889
   0.77881136  0.33257051  0.89019120
   0.89019120  0.66742949  0.77881136
   0.99599359  0.73665667  0.00515292
   0.00515292  0.26334333  0.99599359
   0.11830999  0.07007299  0.22509502
   0.10457702  0.59651303  0.22070388
   0.22070388  0.40348697  0.10457702
   0.22509502  0.92992701  0.11830999
   0.33505119  0.73173458  0.00418181
   0.33579513  0.26273659  0.00655669
   0.43943815  0.07021762  0.21423811
   0.44971100  0.59517392  0.21898359
   0.55106920  0.40363053  0.11484797
   0.55174619  0.93293224  0.11380997
   0.66634081  0.73328719  0.99740234
   0.66588685  0.26630063  0.00387611
   0.77267853  0.06646844  0.21974381
   0.78272282  0.59778079  0.22868246
   0.89606312  0.40378017  0.11240265
   0.89369843  0.93081144  0.10969297
   0.00655669  0.73726341  0.33579513
   0.00418181  0.26826542  0.33505119
   0.11380997  0.06706776  0.55174619
   0.11484797  0.59636947  0.55106920
   0.21898359  0.40482608  0.44971100
   0.21423811  0.92978238  0.43943815
   0.33037492  0.73527894  0.32721403
   0.32721403  0.26472106  0.33037492
   0.43987149  0.06645251  0.55406534
   0.44219898  0.59964666  0.55754638
   0.55754638  0.40035334  0.44219898
   0.55406534  0.93354749  0.43987149
   0.66026787  0.73346273  0.32919831
   0.66399957  0.26661119  0.32767034
   0.78023002  0.06739040  0.56033368
   0.77553969  0.60160649  0.55118106
   0.88385148  0.40485776  0.43649631
   0.89379545  0.93432409  0.44801199
   0.00387611  0.73369937  0.66588685
   0.99740234  0.26671281  0.66634081
   0.10969297  0.06918856  0.89369843
   0.11240265  0.59621983  0.89606312
   0.22868246  0.40221921  0.78272282
   0.21974381  0.93353156  0.77267853
   0.32767034  0.73338881  0.66399957
   0.32919831  0.26653727  0.66026787
   0.44801199  0.06567591  0.89379545
   0.43649631  0.59514224  0.88385148
   0.55118106  0.39839351  0.77553969
   0.56033368  0.93260960  0.78023002
   0.66878648  0.73304347  0.67277851
   0.67277851  0.26695653  0.66878648
   0.78075396  0.06688639  0.88644551
   0.78269124  0.59978706  0.89317487
   0.89317487  0.40021294  0.78269124
   0.88644551  0.93311361  0.78075396
 
 position of ions in cartesian coordinates  (Angst):
   4.10754026  7.12311446  7.13969784
   1.40199921  0.81015711 11.90135746
  -0.00687073  1.62356852  2.37803821
  -1.41071475  2.44366787  7.14068285
  -0.10771705  3.40925675 11.88846280
  -1.51986766  4.22436411  2.36981524
   2.81414809  0.00444218  7.13871282
   4.41085274  0.80026111 11.90958043
   2.99887374  1.61566570  2.39093287
   0.22741360  4.87886469  7.15188337
   4.10402624  2.64070134  7.12751230
   4.12393137  5.51123810 11.88735781
   2.70341881  6.33137139  2.39203786
   0.00799467  0.01384718  0.00000000
   1.39438681  0.81940415  4.77993233
   0.00494367  1.62159954  9.49946334
   7.02369920  2.41773675 14.25988231
   0.01094392  3.24096034  4.75753782
  -1.43672199  4.07183502  9.50423539
  -2.82609138  4.89008920 14.26359506
  -1.42783670  5.68659792  4.77954425
  -2.80179393  6.49086224  9.52995509
  -1.42551589  7.29589332  0.01951336
   4.23718583  0.79600281  4.77516028
   2.79379429  1.63428094  9.52185785
   1.41448128  2.44995342  0.00000000
   2.79962913  3.25017948  4.74855728
   1.40743571  4.05396274  9.53083839
   0.00621461  4.87352456  0.01741065
   1.38664138  5.68791491  4.77156309
  -0.01209754  6.51162302  9.55163888
   5.64049942  0.00190069  0.01580061
   7.01466083  0.82332943  4.74944058
   5.63116889  1.61107916  9.49985143
   4.21000106  2.44646735 14.26198502
   5.63779201  3.24965775  4.72775679
   4.22507042  4.04914715  9.50783258
   2.80526236  4.85885688  0.00000000
   4.22367320  5.69124374  4.74842222
   2.80943736  6.50775319  9.53097346
  -4.17327826  7.28607066 10.52331496
   8.38907369  0.03319337  3.75608071
   1.40053804  0.86413942  1.00013622
   1.41757179  0.76602169  8.51734128
  -0.05287940  1.61498707  5.76205439
   0.04060994  1.64929431 13.27925945
  -1.38682928  2.45310468 10.45016445
  -1.36640325  2.45650360  3.75314950
  -0.04897071  3.21235817  1.00364315
  -0.05625387  3.28971805  8.49972587
  -1.36298481  4.03063057  5.76549441
  -1.37857820  4.03787494 13.32361040
   5.60180136  4.86996228 10.46946024
  -2.78477478  4.87023440  3.80548696
  -1.41145389  5.64903479  0.95153037
  -1.38239990  5.72472719  8.53835444
  -2.84235350  6.55331331  5.76913999
  -2.85918911  6.53831590 13.29482952
   2.80310841  0.04923493 10.52624617
   2.81037786  0.02984599  3.82923122
   4.17870363  0.82937676  0.95578527
   4.16463314  0.83925887  8.51390126
   2.86961860  1.60046479  5.77966980
   2.79898142  1.56809228 13.27575252
   1.36146440  2.41710199 10.49935264
   1.40505178  2.39193678  3.78004303
   2.81963508  3.21359158  0.94840578
   2.83520471  3.23289607  8.56209101
   1.37468004  4.07613037  5.71730467
   1.36574670  4.05299446 13.33098989
  -0.01662385  4.82932973 10.47484226
  -0.04181293  4.85460710  3.80850724
   1.43346142  5.70233357  0.96324912
   1.37198393  5.67039804  8.59155142
  -0.05321445  6.46219374  5.78306686
  -0.00195513  6.53713004 13.34351926
   5.60264638  0.02775455 10.47390871
   1.40912267  7.29060644  3.80993544
   7.08445448  0.79735057  0.98456615
   7.08902483  0.81942937  8.51025568
   5.64147140  1.66949320  5.74104123
   5.59044687  1.60648553 13.32786530
   4.21763182  2.39541555 10.47088843
   4.18314643  2.40459122  3.80455341
   5.65481053  3.27119484  0.93587641
   5.61554346  3.18933484  8.49632881
   4.21722907  4.02769498  5.68784425
   4.21414733  4.09690384 13.31614655
   2.84947064  4.88967762 10.46740042
   2.80236199  4.91687579  3.81199526
   4.18581020  5.70432102  0.95463824
   4.23046943  5.72075259  8.56411695
   2.83159466  6.52839331  5.71527872
   2.83969413  6.48150152 13.32475743
 


--------------------------------------------------------------------------------------------------------


 use serial FFT for orbitals x direction half grid
 k-point  1 :   0.0000 0.0000 0.0000  plane waves:   11205

 maximum and minimum number of plane-waves per node :     11205    11205

 maximum number of plane-waves:     11205
 maximum index in each direction: 
   IXMAX=   15   IYMAX=   26   IZMAX=   13
   IXMIN=    0   IYMIN=  -25   IZMIN=  -15

 The following grids will avoid any aliasing or wrap around errors in the Hartre
 e energy
  - symmetry arguments have not been applied
  - exchange correlation energies might require even more grid points
  - we recommend to set PREC=Normal or Accurate and rely on VASP defaults
 NGX is ok and might be reduce to    64
 NGY is ok and might be reduce to   108
 NGZ is ok and might be reduce to    60

 serial   3D FFT for wavefunctions
 parallel 3D FFT for charge:
    minimum data exchange during FFTs selected (reduces bandwidth)


 total amount of memory used by VASP MPI-rank0   145592. kBytes
=======================================================================

   base      :      30000. kBytes
   nonlr-proj:      39706. kBytes
   fftplans  :       9349. kBytes
   grid      :      55332. kBytes
   one-center:       1461. kBytes
   wavefun   :       9744. kBytes
 
     INWAV:  cpu time    0.0000: real time    0.0000
 Broyden mixing: mesh for mixing (old mesh)
   NGX = 31   NGY = 53   NGZ = 31
  (NGX  =128   NGY  =216   NGZ  =128)
  gives a total of  50933 points

 initial charge density was supplied:
 charge density of overlapping atoms calculated
 number of electron     633.0000000 magnetization      67.5000000
 keeping initial charge density in first step


--------------------------------------------------------------------------------------------------------


 Maximum index for non-local projection operator         6547
 Maximum index for augmentation-charges         1077 (set IRDMAX)


--------------------------------------------------------------------------------------------------------


 First call to EWALD:  gamma=   0.185
 Maximum number of real-space cells 3x 2x 3
 Maximum number of reciprocal cells 2x 4x 2

    FEWALD:  cpu time    0.0035: real time    0.0035


--------------------------------------- Iteration      1(   1)  ---------------------------------------


    POTLOK:  cpu time    0.2584: real time    0.3092
    SETDIJ:  cpu time    0.0277: real time    0.0278
     EDDAV:  cpu time    4.5601: real time    4.5976
    --------------------------------------------
      LOOP:  cpu time    4.8467: real time    4.9351

 eigenvalue-minimisations  :  1680
 total energy-change (2. order) : 0.1137473E+05  (-0.2925389E+05)
 number of electron     633.0000000 magnetization      67.5000000
 augmentation part      633.0000000 magnetization      67.5000000

 Free energy of the ion-electron system (eV)
  ---------------------------------------------------
  alpha Z        PSCENC =      1958.23443547
  Ewald energy   TEWEN  =    -36999.41243292
  -Hartree energ DENC   =    -19194.22461873
  -exchange      EXHF   =         0.00000000
  -V(xc)+E(xc)   XCENC  =      2573.88192300
  PAW double counting   =     45694.50341149   -47775.14712272
  entropy T*S    EENTRO =        -0.02680566
  eigenvalues    EBANDS =     10168.12596495
  atomic energy  EATOM  =     54948.79752401
  Solvation  Ediel_sol  =         0.00000000
  ---------------------------------------------------
  free energy    TOTEN  =     11374.73227889 eV

  energy without entropy =    11374.75908455  energy(sigma->0) =    11374.74568172


--------------------------------------------------------------------------------------------------------




--------------------------------------- Iteration      1(   2)  ---------------------------------------


     EDDAV:  cpu time    4.6735: real time    4.6846
    --------------------------------------------
      LOOP:  cpu time    4.6734: real time    4.6845

 eigenvalue-minimisations  :  1744
 total energy-change (2. order) :-0.9174825E+04  (-0.8456314E+04)
 number of electron     633.0000000 magnetization      67.5000000
 augmentation part      633.0000000 magnetization      67.5000000

 Free energy of the ion-electron system (eV)
  ---------------------------------------------------
  alpha Z        PSCENC =      1958.23443547
  Ewald energy   TEWEN  =    -36999.41243292
  -Hartree energ DENC   =    -19194.22461873
  -exchange      EXHF   =         0.00000000
  -V(xc)+E(xc)   XCENC  =      2573.88192300
  PAW double counting   =     45694.50341149   -47775.14712272
  entropy T*S    EENTRO =        -0.01840496
  eigenvalues    EBANDS =       993.29283906
  atomic energy  EATOM  =     54948.79752401
  Solvation  Ediel_sol  =         0.00000000
  ---------------------------------------------------
  free energy    TOTEN  =      2199.90755369 eV

  energy without entropy =     2199.92595865  energy(sigma->0) =     2199.91675617


--------------------------------------------------------------------------------------------------------




--------------------------------------- Iteration      1(   3)  ---------------------------------------


     EDDAV:  cpu time    4.9018: real time    4.9135
    --------------------------------------------
      LOOP:  cpu time    4.9018: real time    4.9135

 eigenvalue-minimisations  :  1840
 total energy-change (2. order) :-0.2514684E+04  (-0.2126766E+04)
 number of electron     633.0000000 magnetization      67.5000000
 augmentation part      633.0000000 magnetization      67.5000000

 Free energy of the ion-electron system (eV)
  ---------------------------------------------------
  alpha Z        PSCENC =      1958.23443547
  Ewald energy   TEWEN  =    -36999.41243292
  -Hartree energ DENC   =    -19194.22461873
  -exchange      EXHF   =         0.00000000
  -V(xc)+E(xc)   XCENC  =      2573.88192300
  PAW double counting   =     45694.50341149   -47775.14712272
  entropy T*S    EENTRO =        -0.11702160
  eigenvalues    EBANDS =     -1521.29222304
  atomic energy  EATOM  =     54948.79752401
  Solvation  Ediel_sol  =         0.00000000
  ---------------------------------------------------
  free energy    TOTEN  =      -314.77612505 eV

  energy without entropy =     -314.65910345  energy(sigma->0) =     -314.71761425


--------------------------------------------------------------------------------------------------------




--------------------------------------- Iteration      1(   4)  ---------------------------------------


     EDDAV:  cpu time    5.0330: real time    5.0449
    --------------------------------------------
      LOOP:  cpu time    5.0330: real time    5.0449

 eigenvalue-minimisations  :  1920
 total energy-change (2. order) :-0.4281554E+03  (-0.4099113E+03)
 number of electron     633.0000000 magnetization      67.5000000
 augmentation part      633.0000000 magnetization      67.5000000

 Free energy of the ion-electron system (eV)
  ---------------------------------------------------
  alpha Z        PSCENC =      1958.23443547
  Ewald energy   TEWEN  =    -36999.41243292
  -Hartree energ DENC   =    -19194.22461873
  -exchange      EXHF   =         0.00000000
  -V(xc)+E(xc)   XCENC  =      2573.88192300
  PAW double counting   =     45694.50341149   -47775.14712272
  entropy T*S    EENTRO =        -0.25114669
  eigenvalues    EBANDS =     -1949.31348560
  atomic energy  EATOM  =     54948.79752401
  Solvation  Ediel_sol  =         0.00000000
  ---------------------------------------------------
  free energy    TOTEN  =      -742.93151270 eV

  energy without entropy =     -742.68036601  energy(sigma->0) =     -742.80593935


--------------------------------------------------------------------------------------------------------




--------------------------------------- Iteration      1(   5)  ---------------------------------------


     EDDAV:  cpu time    6.1578: real time    6.1724
    CHARGE:  cpu time    0.3481: real time    0.3489
    MIXING:  cpu time    0.0054: real time    0.0054
    --------------------------------------------
      LOOP:  cpu time    6.5109: real time    6.5264

 eigenvalue-minimisations  :  2480
 total energy-change (2. order) :-0.2205232E+02  (-0.2181246E+02)
 number of electron     632.9999976 magnetization      72.6145956
 augmentation part      188.3644054 magnetization      50.9247912

 Broyden mixing:
  rms(total) = 0.15879E+02    rms(broyden)= 0.15878E+02
  rms(prec ) = 0.17437E+02
  weight for this iteration     100.00

 Free energy of the ion-electron system (eV)
  ---------------------------------------------------
  alpha Z        PSCENC =      1958.23443547
  Ewald energy   TEWEN  =    -36999.41243292
  -Hartree energ DENC   =    -19194.22461873
  -exchange      EXHF   =         0.00000000
  -V(xc)+E(xc)   XCENC  =      2573.88192300
  PAW double counting   =     45694.50341149   -47775.14712272
  entropy T*S    EENTRO =        -0.24037535
  eigenvalues    EBANDS =     -1971.37658120
  atomic energy  EATOM  =     54948.79752401
  Solvation  Ediel_sol  =         0.00000000
  ---------------------------------------------------
  free energy    TOTEN  =      -764.98383696 eV

  energy without entropy =     -764.74346161  energy(sigma->0) =     -764.86364928


--------------------------------------------------------------------------------------------------------




--------------------------------------- Iteration      1(   6)  ---------------------------------------


    POTLOK:  cpu time    0.2263: real time    0.2268
    SETDIJ:  cpu time    0.0287: real time    0.0288
     EDDAV:  cpu time    6.2770: real time    6.2920
    CHARGE:  cpu time    0.3353: real time    0.3361
    MIXING:  cpu time    0.0052: real time    0.0052
    --------------------------------------------
      LOOP:  cpu time    6.8725: real time    6.8889

 eigenvalue-minimisations  :  2544
 total energy-change (2. order) :-0.7824862E+02  (-0.1763860E+03)
 number of electron     632.9999968 magnetization      68.0438583
 augmentation part      237.8629804 magnetization      70.0631066

 Broyden mixing:
  rms(total) = 0.28829E+02    rms(broyden)= 0.28828E+02
  rms(prec ) = 0.30596E+02
  weight for this iteration     100.00

 eigenvalues of (default mixing * dielectric matrix)
  average eigenvalue GAMMA=   0.2456
  0.2456

 Free energy of the ion-electron system (eV)
  ---------------------------------------------------
  alpha Z        PSCENC =      1958.23443547
  Ewald energy   TEWEN  =    -36999.41243292
  -Hartree energ DENC   =    -18322.73088687
  -exchange      EXHF   =         0.00000000
  -V(xc)+E(xc)   XCENC  =      2610.49527882
  PAW double counting   =     50393.52874032   -52185.14284204
  entropy T*S    EENTRO =        -0.04762595
  eigenvalues    EBANDS =     -3246.95464406
  atomic energy  EATOM  =     54948.79752401
  Solvation  Ediel_sol  =         0.00000000
  ---------------------------------------------------
  free energy    TOTEN  =      -843.23245323 eV

  energy without entropy =     -843.18482728  energy(sigma->0) =     -843.20864025


--------------------------------------------------------------------------------------------------------




--------------------------------------- Iteration      1(   7)  ---------------------------------------


    POTLOK:  cpu time    0.2255: real time    0.2261
    SETDIJ:  cpu time    0.0288: real time    0.0288
     EDDAV:  cpu time    5.7887: real time    5.8024
    CHARGE:  cpu time    0.3355: real time    0.3363
    MIXING:  cpu time    0.0054: real time    0.0054
    --------------------------------------------
      LOOP:  cpu time    6.3839: real time    6.3990

 eigenvalue-minimisations  :  2304
 total energy-change (2. order) : 0.1847074E+03  (-0.5375221E+02)
 number of electron     632.9999957 magnetization      63.2741825
 augmentation part      227.8221089 magnetization      56.0351007

 Broyden mixing:
  rms(total) = 0.13926E+02    rms(broyden)= 0.13925E+02
  rms(prec ) = 0.15530E+02
  weight for this iteration     100.00

 eigenvalues of (default mixing * dielectric matrix)
  average eigenvalue GAMMA=   0.4613
  0.4613  0.4613

 Free energy of the ion-electron system (eV)
  ---------------------------------------------------
  alpha Z        PSCENC =      1958.23443547
  Ewald energy   TEWEN  =    -36999.41243292
  -Hartree energ DENC   =    -18571.91742052
  -exchange      EXHF   =         0.00000000
  -V(xc)+E(xc)   XCENC  =      2582.91465859
  PAW double counting   =     52135.02435564   -54086.56450257
  entropy T*S    EENTRO =        -0.05275536
  eigenvalues    EBANDS =     -2625.54896214
  atomic energy  EATOM  =     54948.79752401
  Solvation  Ediel_sol  =         0.00000000
  ---------------------------------------------------
  free energy    TOTEN  =      -658.52509980 eV

  energy without entropy =     -658.47234445  energy(sigma->0) =     -658.49872212


--------------------------------------------------------------------------------------------------------




--------------------------------------- Iteration      1(   8)  ---------------------------------------


    POTLOK:  cpu time    0.2260: real time    0.2265
    SETDIJ:  cpu time    0.0286: real time    0.0286
     EDDAV:  cpu time    6.6602: real time    6.6760
    CHARGE:  cpu time    0.3338: real time    0.3346
    MIXING:  cpu time    0.0056: real time    0.0056
    --------------------------------------------
      LOOP:  cpu time    7.2542: real time    7.2714

 eigenvalue-minimisations  :  2736
 total energy-change (2. order) :-0.8542667E+02  (-0.3171078E+02)
 number of electron     632.9999979 magnetization      57.9089150
 augmentation part      207.6507214 magnetization      55.6326906

 Broyden mixing:
  rms(total) = 0.14363E+02    rms(broyden)= 0.14362E+02
  rms(prec ) = 0.19401E+02
  weight for this iteration     100.00

 eigenvalues of (default mixing * dielectric matrix)
  average eigenvalue GAMMA=   0.4488
  0.5732  0.5732  0.1999

 Free energy of the ion-electron system (eV)
  ---------------------------------------------------
  alpha Z        PSCENC =      1958.23443547
  Ewald energy   TEWEN  =    -36999.41243292
  -Hartree energ DENC   =    -18765.14921192
  -exchange      EXHF   =         0.00000000
  -V(xc)+E(xc)   XCENC  =      2567.81701609
  PAW double counting   =     53885.87414409   -55978.88479098
  entropy T*S    EENTRO =        -0.07953222
  eigenvalues    EBANDS =     -2361.14892513
  atomic energy  EATOM  =     54948.79752401
  Solvation  Ediel_sol  =         0.00000000
  ---------------------------------------------------
  free energy    TOTEN  =      -743.95177352 eV

  energy without entropy =     -743.87224130  energy(sigma->0) =     -743.91200741


--------------------------------------------------------------------------------------------------------




--------------------------------------- Iteration      1(   9)  ---------------------------------------


    POTLOK:  cpu time    0.2255: real time    0.2261
    SETDIJ:  cpu time    0.0287: real time    0.0288
     EDDAV:  cpu time    5.4669: real time    5.4799
    CHARGE:  cpu time    0.3355: real time    0.3364
    MIXING:  cpu time    0.0059: real time    0.0059
    --------------------------------------------
      LOOP:  cpu time    6.0626: real time    6.0770

 eigenvalue-minimisations  :  2144
 total energy-change (2. order) : 0.8062440E+02  (-0.3871368E+02)
 number of electron     632.9999969 magnetization      53.4032571
 augmentation part      204.3476900 magnetization      44.8494610

 Broyden mixing:
  rms(total) = 0.13343E+02    rms(broyden)= 0.13343E+02
  rms(prec ) = 0.15550E+02
  weight for this iteration     100.00

 eigenvalues of (default mixing * dielectric matrix)
  average eigenvalue GAMMA=   0.4080
  0.6198  0.6198  0.2389  0.1535

 Free energy of the ion-electron system (eV)
  ---------------------------------------------------
  alpha Z        PSCENC =      1958.23443547
  Ewald energy   TEWEN  =    -36999.41243292
  -Hartree energ DENC   =    -18699.33394029
  -exchange      EXHF   =         0.00000000
  -V(xc)+E(xc)   XCENC  =      2560.31644640
  PAW double counting   =     55265.41112578   -57386.43286034
  entropy T*S    EENTRO =        -0.08242596
  eigenvalues    EBANDS =     -2310.82525050
  atomic energy  EATOM  =     54948.79752401
  Solvation  Ediel_sol  =         0.00000000
  ---------------------------------------------------
  free energy    TOTEN  =      -663.32737835 eV

  energy without entropy =     -663.24495239  energy(sigma->0) =     -663.28616537


--------------------------------------------------------------------------------------------------------




--------------------------------------- Iteration      1(  10)  ---------------------------------------


    POTLOK:  cpu time    0.2257: real time    0.2262
    SETDIJ:  cpu time    0.0286: real time    0.0287
     EDDAV:  cpu time    5.8505: real time    5.8644
    CHARGE:  cpu time    0.3353: real time    0.3360
    MIXING:  cpu time    0.0059: real time    0.0059
    --------------------------------------------
      LOOP:  cpu time    6.4460: real time    6.4613

 eigenvalue-minimisations  :  2336
 total energy-change (2. order) : 0.4476398E+02  (-0.1285552E+02)
 number of electron     632.9999954 magnetization      51.1071786
 augmentation part      209.3082622 magnetization      47.4849088

 Broyden mixing:
  rms(total) = 0.86976E+01    rms(broyden)= 0.86968E+01
  rms(prec ) = 0.11165E+02
  weight for this iteration     100.00

 eigenvalues of (default mixing * dielectric matrix)
  average eigenvalue GAMMA=   0.4216
  0.6991  0.6991  0.2815  0.2815  0.1469

 Free energy of the ion-electron system (eV)
  ---------------------------------------------------
  alpha Z        PSCENC =      1958.23443547
  Ewald energy   TEWEN  =    -36999.41243292
  -Hartree energ DENC   =    -18642.76011869
  -exchange      EXHF   =         0.00000000
  -V(xc)+E(xc)   XCENC  =      2556.55957500
  PAW double counting   =     56496.81280887   -58637.84672291
  entropy T*S    EENTRO =        -0.07529699
  eigenvalues    EBANDS =     -2298.87317371
  atomic energy  EATOM  =     54948.79752401
  Solvation  Ediel_sol  =         0.00000000
  ---------------------------------------------------
  free energy    TOTEN  =      -618.56340188 eV

  energy without entropy =     -618.48810489  energy(sigma->0) =     -618.52575339


--------------------------------------------------------------------------------------------------------




--------------------------------------- Iteration      1(  11)  ---------------------------------------


    POTLOK:  cpu time    0.2265: real time    0.2270
    SETDIJ:  cpu time    0.0286: real time    0.0287
     EDDAV:  cpu time    5.5185: real time    5.5317
    CHARGE:  cpu time    0.3359: real time    0.3367
    MIXING:  cpu time    0.0061: real time    0.0061
    --------------------------------------------
      LOOP:  cpu time    6.1156: real time    6.1302

 eigenvalue-minimisations  :  2176
 total energy-change (2. order) : 0.9784379E+01  (-0.7424826E+01)
 number of electron     632.9999978 magnetization      46.8450688
 augmentation part      208.0613057 magnetization      37.9226168

 Broyden mixing:
  rms(total) = 0.10749E+02    rms(broyden)= 0.10749E+02
  rms(prec ) = 0.12689E+02
  weight for this iteration     100.00

 eigenvalues of (default mixing * dielectric matrix)
  average eigenvalue GAMMA=   0.4341
  0.7887  0.7887  0.3736  0.3736  0.1770  0.1027

 Free energy of the ion-electron system (eV)
  ---------------------------------------------------
  alpha Z        PSCENC =      1958.23443547
  Ewald energy   TEWEN  =    -36999.41243292
  -Hartree energ DENC   =    -18652.74272083
  -exchange      EXHF   =         0.00000000
  -V(xc)+E(xc)   XCENC  =      2557.03653188
  PAW double counting   =     56826.34233214   -58972.80500280
  entropy T*S    EENTRO =        -0.08115932
  eigenvalues    EBANDS =     -2274.14853067
  atomic energy  EATOM  =     54948.79752401
  Solvation  Ediel_sol  =         0.00000000
  ---------------------------------------------------
  free energy    TOTEN  =      -608.77902305 eV

  energy without entropy =     -608.69786373  energy(sigma->0) =     -608.73844339


--------------------------------------------------------------------------------------------------------




--------------------------------------- Iteration      1(  12)  ---------------------------------------


    POTLOK:  cpu time    0.2253: real time    0.2258
    SETDIJ:  cpu time    0.0285: real time    0.0286
     EDDAV:  cpu time    5.7096: real time    5.7232
    CHARGE:  cpu time    0.3401: real time    0.3409
    MIXING:  cpu time    0.0063: real time    0.0063
    --------------------------------------------
      LOOP:  cpu time    6.3098: real time    6.3248

 eigenvalue-minimisations  :  2272
 total energy-change (2. order) : 0.8616357E+01  (-0.7952580E+01)
 number of electron     632.9999994 magnetization      44.1215522
 augmentation part      204.1834914 magnetization      35.7512810

 Broyden mixing:
  rms(total) = 0.11208E+02    rms(broyden)= 0.11207E+02
  rms(prec ) = 0.13672E+02
  weight for this iteration     100.00

 eigenvalues of (default mixing * dielectric matrix)
  average eigenvalue GAMMA=   0.4107
  0.9037  0.7621  0.3766  0.3766  0.2057  0.1468  0.1035

 Free energy of the ion-electron system (eV)
  ---------------------------------------------------
  alpha Z        PSCENC =      1958.23443547
  Ewald energy   TEWEN  =    -36999.41243292
  -Hartree energ DENC   =    -18707.84967535
  -exchange      EXHF   =         0.00000000
  -V(xc)+E(xc)   XCENC  =      2558.61652639
  PAW double counting   =     57618.34125552   -59788.59960896
  entropy T*S    EENTRO =        -0.08513259
  eigenvalues    EBANDS =     -2188.20555809
  atomic energy  EATOM  =     54948.79752401
  Solvation  Ediel_sol  =         0.00000000
  ---------------------------------------------------
  free energy    TOTEN  =      -600.16266653 eV

  energy without entropy =     -600.07753394  energy(sigma->0) =     -600.12010023


--------------------------------------------------------------------------------------------------------




--------------------------------------- Iteration      1(  13)  ---------------------------------------


    POTLOK:  cpu time    0.2251: real time    0.2256
    SETDIJ:  cpu time    0.0286: real time    0.0287
     EDDAV:  cpu time    5.9338: real time    5.9479
    CHARGE:  cpu time    0.3355: real time    0.3363
    MIXING:  cpu time    0.0067: real time    0.0067
    --------------------------------------------
      LOOP:  cpu time    6.5297: real time    6.5452

 eigenvalue-minimisations  :  2384
 total energy-change (2. order) : 0.2881805E+02  (-0.1112934E+02)
 number of electron     632.9999964 magnetization      41.5574036
 augmentation part      208.4030831 magnetization      37.7691987

 Broyden mixing:
  rms(total) = 0.47898E+01    rms(broyden)= 0.47887E+01
  rms(prec ) = 0.54229E+01
  weight for this iteration     100.00

 eigenvalues of (default mixing * dielectric matrix)
  average eigenvalue GAMMA=   0.3988
  0.8766  0.8766  0.4025  0.4025  0.2646  0.1743  0.1074  0.0855

 Free energy of the ion-electron system (eV)
  ---------------------------------------------------
  alpha Z        PSCENC =      1958.23443547
  Ewald energy   TEWEN  =    -36999.41243292
  -Hartree energ DENC   =    -18683.39538983
  -exchange      EXHF   =         0.00000000
  -V(xc)+E(xc)   XCENC  =      2558.92739162
  PAW double counting   =     58162.21593365   -60334.03795737
  entropy T*S    EENTRO =        -0.04651958
  eigenvalues    EBANDS =     -2182.62759926
  atomic energy  EATOM  =     54948.79752401
  Solvation  Ediel_sol  =         0.00000000
  ---------------------------------------------------
  free energy    TOTEN  =      -571.34461422 eV

  energy without entropy =     -571.29809464  energy(sigma->0) =     -571.32135443


--------------------------------------------------------------------------------------------------------




--------------------------------------- Iteration      1(  14)  ---------------------------------------


    POTLOK:  cpu time    0.2253: real time    0.2258
    SETDIJ:  cpu time    0.0288: real time    0.0289
     EDDAV:  cpu time    5.7122: real time    5.7258
    CHARGE:  cpu time    0.3347: real time    0.3355
    MIXING:  cpu time    0.0072: real time    0.0073
    --------------------------------------------
      LOOP:  cpu time    6.3083: real time    6.3233

 eigenvalue-minimisations  :  2272
 total energy-change (2. order) : 0.5965921E+01  (-0.1974564E+01)
 number of electron     632.9999965 magnetization      38.9872020
 augmentation part      209.1734324 magnetization      34.0840283

 Broyden mixing:
  rms(total) = 0.33955E+01    rms(broyden)= 0.33950E+01
  rms(prec ) = 0.37659E+01
  weight for this iteration     100.00

 eigenvalues of (default mixing * dielectric matrix)
  average eigenvalue GAMMA=   0.3961
  0.8931  0.8931  0.4265  0.4265  0.2688  0.2688  0.1779  0.1121  0.0983

 Free energy of the ion-electron system (eV)
  ---------------------------------------------------
  alpha Z        PSCENC =      1958.23443547
  Ewald energy   TEWEN  =    -36999.41243292
  -Hartree energ DENC   =    -18685.42813416
  -exchange      EXHF   =         0.00000000
  -V(xc)+E(xc)   XCENC  =      2559.48240861
  PAW double counting   =     58443.66587252   -60618.58529585
  entropy T*S    EENTRO =        -0.05549794
  eigenvalues    EBANDS =     -2172.07757282
  atomic energy  EATOM  =     54948.79752401
  Solvation  Ediel_sol  =         0.00000000
  ---------------------------------------------------
  free energy    TOTEN  =      -565.37869309 eV

  energy without entropy =     -565.32319515  energy(sigma->0) =     -565.35094412


--------------------------------------------------------------------------------------------------------




--------------------------------------- Iteration      1(  15)  ---------------------------------------


    POTLOK:  cpu time    0.2251: real time    0.2256
    SETDIJ:  cpu time    0.0288: real time    0.0288
     EDDAV:  cpu time    5.3590: real time    5.3717
    CHARGE:  cpu time    0.3344: real time    0.3351
    MIXING:  cpu time    0.0071: real time    0.0072
    --------------------------------------------
      LOOP:  cpu time    5.9543: real time    5.9685

 eigenvalue-minimisations  :  2096
 total energy-change (2. order) :-0.1317277E+01  (-0.1504675E+01)
 number of electron     632.9999965 magnetization      34.9181580
 augmentation part      208.8954503 magnetization      30.8230173

 Broyden mixing:
  rms(total) = 0.40178E+01    rms(broyden)= 0.40174E+01
  rms(prec ) = 0.44124E+01
  weight for this iteration     100.00

 eigenvalues of (default mixing * dielectric matrix)
  average eigenvalue GAMMA=   0.4225
  1.0249  1.0249  0.4754  0.4754  0.3542  0.3542  0.1729  0.1318  0.1160  0.0948

 Free energy of the ion-electron system (eV)
  ---------------------------------------------------
  alpha Z        PSCENC =      1958.23443547
  Ewald energy   TEWEN  =    -36999.41243292
  -Hartree energ DENC   =    -18696.51849697
  -exchange      EXHF   =         0.00000000
  -V(xc)+E(xc)   XCENC  =      2559.79709744
  PAW double counting   =     58672.17995297   -60846.71517524
  entropy T*S    EENTRO =        -0.04529781
  eigenvalues    EBANDS =     -2163.01357739
  atomic energy  EATOM  =     54948.79752401
  Solvation  Ediel_sol  =         0.00000000
  ---------------------------------------------------
  free energy    TOTEN  =      -566.69597045 eV

  energy without entropy =     -566.65067264  energy(sigma->0) =     -566.67332155


--------------------------------------------------------------------------------------------------------




--------------------------------------- Iteration      1(  16)  ---------------------------------------


    POTLOK:  cpu time    0.2263: real time    0.2268
    SETDIJ:  cpu time    0.0287: real time    0.0288
     EDDAV:  cpu time    5.1067: real time    5.1188
    CHARGE:  cpu time    0.3379: real time    0.3387
    MIXING:  cpu time    0.0074: real time    0.0074
    --------------------------------------------
      LOOP:  cpu time    5.7070: real time    5.7206

 eigenvalue-minimisations  :  1952
 total energy-change (2. order) : 0.1633919E+01  (-0.8078261E+00)
 number of electron     632.9999967 magnetization      32.6256062
 augmentation part      209.2920913 magnetization      26.7425553

 Broyden mixing:
  rms(total) = 0.25796E+01    rms(broyden)= 0.25793E+01
  rms(prec ) = 0.29677E+01
  weight for this iteration     100.00

 eigenvalues of (default mixing * dielectric matrix)
  average eigenvalue GAMMA=   0.4225
  0.9014  0.9014  0.6018  0.6018  0.4055  0.3569  0.3569  0.1735  0.1438  0.1088
  0.0962

 Free energy of the ion-electron system (eV)
  ---------------------------------------------------
  alpha Z        PSCENC =      1958.23443547
  Ewald energy   TEWEN  =    -36999.41243292
  -Hartree energ DENC   =    -18707.40762904
  -exchange      EXHF   =         0.00000000
  -V(xc)+E(xc)   XCENC  =      2560.14960087
  PAW double counting   =     59026.13185121   -61200.73729182
  entropy T*S    EENTRO =        -0.03362656
  eigenvalues    EBANDS =     -2150.78448241
  atomic energy  EATOM  =     54948.79752401
  Solvation  Ediel_sol  =         0.00000000
  ---------------------------------------------------
  free energy    TOTEN  =      -565.06205121 eV

  energy without entropy =     -565.02842464  energy(sigma->0) =     -565.04523792


--------------------------------------------------------------------------------------------------------




--------------------------------------- Iteration      1(  17)  ---------------------------------------


    POTLOK:  cpu time    0.2256: real time    0.2261
    SETDIJ:  cpu time    0.0289: real time    0.0290
     EDDAV:  cpu time    5.4954: real time    5.5085
    CHARGE:  cpu time    0.3381: real time    0.3390
    MIXING:  cpu time    0.0081: real time    0.0081
    --------------------------------------------
      LOOP:  cpu time    6.0961: real time    6.1106

 eigenvalue-minimisations  :  2144
 total energy-change (2. order) :-0.1044793E+01  (-0.6515686E+00)
 number of electron     632.9999964 magnetization      29.8772653
 augmentation part      209.3568551 magnetization      24.6050724

 Broyden mixing:
  rms(total) = 0.28023E+01    rms(broyden)= 0.28019E+01
  rms(prec ) = 0.31302E+01
  weight for this iteration     100.00

 eigenvalues of (default mixing * dielectric matrix)
  average eigenvalue GAMMA=   0.4363
  1.2878  0.7589  0.7589  0.4915  0.4915  0.3889  0.3889  0.1710  0.1591  0.0958
  0.1105  0.1331

 Free energy of the ion-electron system (eV)
  ---------------------------------------------------
  alpha Z        PSCENC =      1958.23443547
  Ewald energy   TEWEN  =    -36999.41243292
  -Hartree energ DENC   =    -18706.51126664
  -exchange      EXHF   =         0.00000000
  -V(xc)+E(xc)   XCENC  =      2559.39892159
  PAW double counting   =     59272.08994968   -61446.21691103
  entropy T*S    EENTRO =        -0.04758062
  eigenvalues    EBANDS =     -2152.43948387
  atomic energy  EATOM  =     54948.79752401
  Solvation  Ediel_sol  =         0.00000000
  ---------------------------------------------------
  free energy    TOTEN  =      -566.10684434 eV

  energy without entropy =     -566.05926372  energy(sigma->0) =     -566.08305403


--------------------------------------------------------------------------------------------------------




--------------------------------------- Iteration      1(  18)  ---------------------------------------


    POTLOK:  cpu time    0.2257: real time    0.2263
    SETDIJ:  cpu time    0.0293: real time    0.0293
     EDDAV:  cpu time    5.6221: real time    5.6354
    CHARGE:  cpu time    0.3394: real time    0.3402
    MIXING:  cpu time    0.0079: real time    0.0079
    --------------------------------------------
      LOOP:  cpu time    6.2244: real time    6.2392

 eigenvalue-minimisations  :  2208
 total energy-change (2. order) :-0.7816465E+00  (-0.4008479E+00)
 number of electron     632.9999965 magnetization      27.1276635
 augmentation part      209.3921417 magnetization      21.5692665

 Broyden mixing:
  rms(total) = 0.16637E+01    rms(broyden)= 0.16634E+01
  rms(prec ) = 0.19959E+01
  weight for this iteration     100.00

 eigenvalues of (default mixing * dielectric matrix)
  average eigenvalue GAMMA=   0.4625
  1.3368  0.9217  0.9217  0.5308  0.4120  0.4120  0.4022  0.4022  0.1793  0.1440
  0.1440  0.1094  0.0960

 Free energy of the ion-electron system (eV)
  ---------------------------------------------------
  alpha Z        PSCENC =      1958.23443547
  Ewald energy   TEWEN  =    -36999.41243292
  -Hartree energ DENC   =    -18709.01986484
  -exchange      EXHF   =         0.00000000
  -V(xc)+E(xc)   XCENC  =      2558.38647710
  PAW double counting   =     59574.50931750   -61751.09607958
  entropy T*S    EENTRO =        -0.04296762
  eigenvalues    EBANDS =     -2147.24489996
  atomic energy  EATOM  =     54948.79752401
  Solvation  Ediel_sol  =         0.00000000
  ---------------------------------------------------
  free energy    TOTEN  =      -566.88849085 eV

  energy without entropy =     -566.84552323  energy(sigma->0) =     -566.86700704


--------------------------------------------------------------------------------------------------------




--------------------------------------- Iteration      1(  19)  ---------------------------------------


    POTLOK:  cpu time    0.2259: real time    0.2264
    SETDIJ:  cpu time    0.0287: real time    0.0288
     EDDAV:  cpu time    5.8533: real time    5.8672
    CHARGE:  cpu time    0.3395: real time    0.3403
    MIXING:  cpu time    0.0081: real time    0.0082
    --------------------------------------------
      LOOP:  cpu time    6.4555: real time    6.4708

 eigenvalue-minimisations  :  2320
 total energy-change (2. order) :-0.3523428E+01  (-0.6858618E+00)
 number of electron     632.9999963 magnetization      23.2275894
 augmentation part      209.2407706 magnetization      19.4877292

 Broyden mixing:
  rms(total) = 0.25313E+01    rms(broyden)= 0.25308E+01
  rms(prec ) = 0.28112E+01
  weight for this iteration     100.00

 eigenvalues of (default mixing * dielectric matrix)
  average eigenvalue GAMMA=   0.4688
  1.0055  1.0055  1.0128  1.0128  0.4567  0.4567  0.3873  0.3873  0.1779  0.1779
  0.0959  0.1096  0.1383  0.1383

 Free energy of the ion-electron system (eV)
  ---------------------------------------------------
  alpha Z        PSCENC =      1958.23443547
  Ewald energy   TEWEN  =    -36999.41243292
  -Hartree energ DENC   =    -18710.38780771
  -exchange      EXHF   =         0.00000000
  -V(xc)+E(xc)   XCENC  =      2557.09544155
  PAW double counting   =     59825.67193727   -62003.93893889
  entropy T*S    EENTRO =        -0.08115832
  eigenvalues    EBANDS =     -2146.39091897
  atomic energy  EATOM  =     54948.79752401
  Solvation  Ediel_sol  =         0.00000000
  ---------------------------------------------------
  free energy    TOTEN  =      -570.41191853 eV

  energy without entropy =     -570.33076021  energy(sigma->0) =     -570.37133937


--------------------------------------------------------------------------------------------------------




--------------------------------------- Iteration      1(  20)  ---------------------------------------


    POTLOK:  cpu time    0.2259: real time    0.2264
    SETDIJ:  cpu time    0.0284: real time    0.0285
     EDDAV:  cpu time    5.9183: real time    5.9324
    CHARGE:  cpu time    0.3392: real time    0.3400
    MIXING:  cpu time    0.0087: real time    0.0087
    --------------------------------------------
      LOOP:  cpu time    6.5206: real time    6.5361

 eigenvalue-minimisations  :  2352
 total energy-change (2. order) :-0.1682815E+01  (-0.5203513E+00)
 number of electron     632.9999964 magnetization      21.7149153
 augmentation part      209.4492924 magnetization      18.0290273

 Broyden mixing:
  rms(total) = 0.13904E+01    rms(broyden)= 0.13898E+01
  rms(prec ) = 0.15472E+01
  weight for this iteration     100.00

 eigenvalues of (default mixing * dielectric matrix)
  average eigenvalue GAMMA=   0.4640
  1.1713  1.1713  0.8816  0.8816  0.4867  0.4867  0.3809  0.3809  0.3075  0.1766
  0.0960  0.1093  0.1561  0.1366  0.1366

 Free energy of the ion-electron system (eV)
  ---------------------------------------------------
  alpha Z        PSCENC =      1958.23443547
  Ewald energy   TEWEN  =    -36999.41243292
  -Hartree energ DENC   =    -18710.69238803
  -exchange      EXHF   =         0.00000000
  -V(xc)+E(xc)   XCENC  =      2555.87055241
  PAW double counting   =     60101.43482363   -62279.59067189
  entropy T*S    EENTRO =        -0.09333892
  eigenvalues    EBANDS =     -2146.64323685
  atomic energy  EATOM  =     54948.79752401
  Solvation  Ediel_sol  =         0.00000000
  ---------------------------------------------------
  free energy    TOTEN  =      -572.09473309 eV

  energy without entropy =     -572.00139418  energy(sigma->0) =     -572.04806364


--------------------------------------------------------------------------------------------------------




--------------------------------------- Iteration      1(  21)  ---------------------------------------


    POTLOK:  cpu time    0.2260: real time    0.2265
    SETDIJ:  cpu time    0.0286: real time    0.0287
     EDDAV:  cpu time    5.6396: real time    5.6530
    CHARGE:  cpu time    0.3374: real time    0.3382
    MIXING:  cpu time    0.0090: real time    0.0091
    --------------------------------------------
      LOOP:  cpu time    6.2408: real time    6.2556

 eigenvalue-minimisations  :  2224
 total energy-change (2. order) :-0.1423023E+01  (-0.5144063E+00)
 number of electron     632.9999961 magnetization      20.3939737
 augmentation part      209.4451915 magnetization      17.3252828

 Broyden mixing:
  rms(total) = 0.16759E+01    rms(broyden)= 0.16756E+01
  rms(prec ) = 0.19652E+01
  weight for this iteration     100.00

 eigenvalues of (default mixing * dielectric matrix)
  average eigenvalue GAMMA=   0.4670
  1.3529  1.3529  0.7956  0.7956  0.5310  0.5310  0.3977  0.3977  0.3357  0.1798
  0.1653  0.1653  0.0960  0.1096  0.1333  0.1333

 Free energy of the ion-electron system (eV)
  ---------------------------------------------------
  alpha Z        PSCENC =      1958.23443547
  Ewald energy   TEWEN  =    -36999.41243292
  -Hartree energ DENC   =    -18711.30552590
  -exchange      EXHF   =         0.00000000
  -V(xc)+E(xc)   XCENC  =      2555.31275619
  PAW double counting   =     60163.60194245   -62341.33496837
  entropy T*S    EENTRO =        -0.09338900
  eigenvalues    EBANDS =     -2147.31809763
  atomic energy  EATOM  =     54948.79752401
  Solvation  Ediel_sol  =         0.00000000
  ---------------------------------------------------
  free energy    TOTEN  =      -573.51775572 eV

  energy without entropy =     -573.42436672  energy(sigma->0) =     -573.47106122


--------------------------------------------------------------------------------------------------------




--------------------------------------- Iteration      1(  22)  ---------------------------------------


    POTLOK:  cpu time    0.2257: real time    0.2262
    SETDIJ:  cpu time    0.0286: real time    0.0287
     EDDAV:  cpu time    5.4136: real time    5.4264
    CHARGE:  cpu time    0.3377: real time    0.3385
    MIXING:  cpu time    0.0090: real time    0.0090
    --------------------------------------------
      LOOP:  cpu time    6.0145: real time    6.0287

 eigenvalue-minimisations  :  2112
 total energy-change (2. order) :-0.5403396E+00  (-0.2928651E+00)
 number of electron     632.9999964 magnetization      18.0252379
 augmentation part      209.3309844 magnetization      13.7158057

 Broyden mixing:
  rms(total) = 0.89347E+00    rms(broyden)= 0.89306E+00
  rms(prec ) = 0.96921E+00
  weight for this iteration     100.00

 eigenvalues of (default mixing * dielectric matrix)
  average eigenvalue GAMMA=   0.5051
  1.4631  1.4631  1.0293  0.7975  0.7975  0.4453  0.4453  0.4088  0.4088  0.3893
  0.1764  0.1687  0.1385  0.1385  0.0960  0.1086  0.1114

 Free energy of the ion-electron system (eV)
  ---------------------------------------------------
  alpha Z        PSCENC =      1958.23443547
  Ewald energy   TEWEN  =    -36999.41243292
  -Hartree energ DENC   =    -18712.02251482
  -exchange      EXHF   =         0.00000000
  -V(xc)+E(xc)   XCENC  =      2554.89939489
  PAW double counting   =     60186.47913795   -62363.91671432
  entropy T*S    EENTRO =        -0.09326380
  eigenvalues    EBANDS =     -2147.02366172
  atomic energy  EATOM  =     54948.79752401
  Solvation  Ediel_sol  =         0.00000000
  ---------------------------------------------------
  free energy    TOTEN  =      -574.05809528 eV

  energy without entropy =     -573.96483147  energy(sigma->0) =     -574.01146337


--------------------------------------------------------------------------------------------------------




--------------------------------------- Iteration      1(  23)  ---------------------------------------


    POTLOK:  cpu time    0.2259: real time    0.2264
    SETDIJ:  cpu time    0.0287: real time    0.0288
     EDDAV:  cpu time    5.3830: real time    5.3958
    CHARGE:  cpu time    0.3381: real time    0.3389
    MIXING:  cpu time    0.0095: real time    0.0095
    --------------------------------------------
      LOOP:  cpu time    5.9852: real time    5.9994

 eigenvalue-minimisations  :  2096
 total energy-change (2. order) :-0.1855087E+01  (-0.3809757E+00)
 number of electron     632.9999963 magnetization      16.5661127
 augmentation part      209.1479325 magnetization      12.5404334

 Broyden mixing:
  rms(total) = 0.13108E+01    rms(broyden)= 0.13106E+01
  rms(prec ) = 0.14794E+01
  weight for this iteration     100.00

 eigenvalues of (default mixing * dielectric matrix)
  average eigenvalue GAMMA=   0.5069
  1.4556  1.4081  1.4081  0.8260  0.8260  0.4638  0.4638  0.4018  0.4018  0.3838
  0.1766  0.1766  0.0960  0.1409  0.1409  0.1298  0.1092  0.1156

 Free energy of the ion-electron system (eV)
  ---------------------------------------------------
  alpha Z        PSCENC =      1958.23443547
  Ewald energy   TEWEN  =    -36999.41243292
  -Hartree energ DENC   =    -18709.24337161
  -exchange      EXHF   =         0.00000000
  -V(xc)+E(xc)   XCENC  =      2554.07719245
  PAW double counting   =     60285.08372538   -62463.26355856
  entropy T*S    EENTRO =        -0.09224524
  eigenvalues    EBANDS =     -2150.09445101
  atomic energy  EATOM  =     54948.79752401
  Solvation  Ediel_sol  =         0.00000000
  ---------------------------------------------------
  free energy    TOTEN  =      -575.91318204 eV

  energy without entropy =     -575.82093680  energy(sigma->0) =     -575.86705942


--------------------------------------------------------------------------------------------------------




--------------------------------------- Iteration      1(  24)  ---------------------------------------


    POTLOK:  cpu time    0.2256: real time    0.2261
    SETDIJ:  cpu time    0.0287: real time    0.0287
     EDDAV:  cpu time    5.4459: real time    5.4588
    CHARGE:  cpu time    0.3382: real time    0.3390
    MIXING:  cpu time    0.0095: real time    0.0096
    --------------------------------------------
      LOOP:  cpu time    6.0479: real time    6.0623

 eigenvalue-minimisations  :  2128
[...]
   0.202E+02 0.476E+02 0.337E+03   -.209E+02 -.513E+02 -.355E+03   0.697E+00 0.368E+01 0.180E+02   0.241E-02 -.121E-02 0.183E-01
   0.312E+02 0.413E+02 -.337E+03   -.340E+02 -.438E+02 0.355E+03   0.284E+01 0.244E+01 -.180E+02   -.226E-02 0.148E-02 -.183E-01
   0.526E+02 -.132E+02 0.356E+03   -.568E+02 0.158E+02 -.375E+03   0.414E+01 -.263E+01 0.195E+02   0.359E-01 -.165E-02 0.270E-01
 -----------------------------------------------------------------------------------------------
   0.121E+00 0.209E+00 -.113E-05   -.142E-13 -.517E-12 0.568E-13   -.995E-01 -.172E+00 -.225E-11   -.157E-01 -.272E-01 0.724E-10
 
 
 POSITION                                       TOTAL-FORCE (eV/Angst)
 -----------------------------------------------------------------------------------
      4.09402      7.10641      7.18675        -0.005894     -0.010208     -0.000000
      1.39655      0.80723     11.97914         0.002443     -0.005865      0.003607
     -0.01249      1.62073      2.39435        -0.006301     -0.000816     -0.003607
     -1.41130      2.44925      7.18709         0.000637      0.002420     -0.001315
     -0.12964      3.41408     11.96643        -0.013367      0.003631     -0.003664
     -1.51728      4.22761      2.39014         0.007579      0.012035     -0.002729
      2.81347      0.01007      7.18640         0.001778      0.001762      0.001315
      4.40656      0.80748     11.98336         0.006634      0.012581      0.002729
      3.00821      1.60245      2.40706         0.009828     -0.009760      0.003664
      0.22762      4.86621      7.19749         0.016477     -0.009971     -0.003209
      4.08716      2.63791      7.17600        -0.016874      0.009284      0.003209
      4.10715      5.51546     11.97078        -0.010803      0.002949      0.006010
      2.70966      6.32230      2.40271         0.007956     -0.007881     -0.006010
      0.00602      0.01043      0.00000        -0.002260     -0.003914     -0.000000
      1.39086      0.82130      4.81338        -0.002349     -0.000428      0.002813
      0.00254      1.62285      9.56012         0.000804     -0.002249     -0.002813
      7.02302      2.40984     14.34650        -0.000989      0.001348     -0.000860
      0.00615      3.23730      4.78971        -0.002679      0.004567     -0.000038
     -1.44745      4.07149      9.56378        -0.001075     -0.002594     -0.002995
     -2.83564      4.88850     14.35783        -0.003770     -0.000967     -0.000902
     -1.43502      5.68498      4.81481         0.000119     -0.002520      0.003876
     -2.80605      6.49171      9.59463         0.001379      0.000691     -0.001121
     -1.43781      7.29471      0.02700         0.001662     -0.000182      0.000860
      4.23645      0.78989      4.80971        -0.001709     -0.002228      0.002995
      2.78722      1.63165      9.58378         0.005294     -0.000037      0.000038
      1.41017      2.44248      0.00000         0.000473      0.000819      0.000000
      2.79109      3.24390      4.77587         0.000303      0.000090     -0.000200
      1.40046      4.04678      9.59762        -0.000073      0.000308      0.000200
      0.00417      4.87796      0.01979        -0.000244      0.000959      0.000561
      1.38028      5.68807      4.80354         0.002092      0.001479     -0.000865
     -0.02063      6.50721      9.61719         0.000831      0.000554     -0.001277
      5.63809     -0.00381      0.01566         0.001048     -0.003748      0.000902
      7.01171      0.82342      4.77887        -0.000091      0.001539      0.001121
      5.62755      1.60740      9.55868        -0.002242     -0.001157     -0.003876
      4.20906      2.45027     14.35370         0.000952      0.000268     -0.000561
      5.63243      3.24341      4.75630         0.000064      0.000997      0.001277
      4.22258      4.04707      9.56996         0.000235      0.002551      0.000865
      2.80246      4.85401      0.00000         0.003559      0.006165      0.000000
      4.22138      5.68474      4.78088        -0.002184     -0.001183     -0.000594
      2.79915      6.50586      9.59262         0.000067     -0.002483      0.000594
     -4.17632      7.28318     10.59066         0.003634      0.006231     -0.005432
      8.38228      0.03246      3.78283         0.003579      0.006263      0.005432
      1.40081      0.85238      0.99760        -0.002023     -0.000945     -0.003434
      1.41602      0.76121      8.57757         0.003504     -0.000030     -0.003717
     -0.06208      1.61459      5.79593        -0.001778      0.003020      0.003717
      0.02448      1.64700     13.37590         0.000193     -0.002224      0.003434
     -1.38741      2.46079     10.51309        -0.005729     -0.008140     -0.005650
     -1.37117      2.46401      3.78528        -0.002517      0.002807      0.002823
     -0.06257      3.22176      1.00421        -0.007469      0.010333      0.001565
     -0.07847      3.29227      8.55393        -0.003454     -0.008563      0.000328
     -1.35317      4.02587      5.80532        -0.000765      0.002981     -0.000649
     -1.35178      4.02996     13.40695         0.010013     -0.004994     -0.004252
      5.59753      4.86795     10.52983         0.004937      0.001566     -0.000358
     -2.78574      4.86661      3.84157        -0.002219      0.000312      0.001514
     -1.42576      5.64621      0.95488         0.001151     -0.003274     -0.000426
     -1.38572      5.72333      8.60329        -0.002206      0.001913     -0.001496
     -2.85377      6.55619      5.80314        -0.003452     -0.004102      0.004640
     -2.87806      6.53376     13.38912        -0.004015     -0.000130      0.002771
      2.80618      0.05221     10.58822         0.003690     -0.000777     -0.002823
      2.81152      0.03653      3.86040        -0.004185     -0.009031      0.005650
      4.15265      0.85198      0.96654        -0.009331      0.006175      0.004252
      4.14980      0.84873      8.56817         0.002964      0.000828      0.000649
      2.87713      1.58585      5.81956        -0.005689     -0.007273     -0.000328
      2.80812      1.56437     13.36929         0.012683     -0.001301     -0.001565
      1.35340      2.41333     10.56129         0.001574     -0.003305     -0.001015
      1.40001      2.38642      3.81220        -0.003649     -0.000290      0.001015
      2.81474      3.20939      0.94959         0.002688      0.004213      0.000917
      2.83406      3.23153      8.62706         0.001342      0.004548      0.000110
      1.36827      4.07780      5.74643         0.003267      0.003436     -0.000110
      1.35875      4.05001     13.42390         0.002304      0.004434     -0.000917
     -0.03125      4.80866     10.54097        -0.002837     -0.000353     -0.003791
     -0.05727      4.84531      3.83898         0.005565      0.009250      0.003647
      1.43209      5.70250      0.96239         0.003910     -0.001448     -0.000350
      1.35737      5.65615      8.65750        -0.002416     -0.000921      0.000176
     -0.06285      6.45730      5.81407         0.004785     -0.001976      0.004591
     -0.02898      6.54703     13.44275        -0.001757     -0.003742      0.003525
      5.59419      0.02846     10.53193         0.001379     -0.001765     -0.001514
      1.40371      7.28925      3.84367        -0.001112      0.005058      0.000358
      7.08414      0.78208      0.98438         0.001895     -0.003542     -0.002771
      7.09142      0.81433      8.57035        -0.001827     -0.005040     -0.004640
      5.63612      1.66927      5.77020         0.002760     -0.000954      0.001496
      5.58935      1.59603     13.41861        -0.003411     -0.000640      0.000426
      4.21150      2.38073     10.53452         0.005228      0.009445     -0.003647
      4.16675      2.38494      3.83253         0.001113     -0.002633      0.003791
      5.67109      3.25609      0.93074        -0.002362     -0.003393     -0.003525
      5.61031      3.18190      8.55942        -0.004103      0.003156     -0.004591
      4.20639      4.01127      5.71600         0.000411     -0.002553     -0.000176
      4.20918      4.09915     13.41111        -0.003209      0.002662      0.000350
      2.85541      4.89625     10.53142         0.002303      0.000736      0.000949
      2.79927      4.92866      3.84208        -0.000514      0.002363     -0.000949
      4.15538      5.71403      0.96717        -0.014210      0.006749      0.007465
      4.22271      5.72957      8.62478        -0.000885     -0.002833      0.003197
      2.83731      6.52944      5.74871        -0.002011     -0.002183     -0.003197
      2.85752      6.46335     13.40633         0.012950     -0.008932     -0.007465
 -----------------------------------------------------------------------------------
    total drift:                                0.005654      0.009794     -0.000001


--------------------------------------------------------------------------------------------------------



  FREE ENERGIE OF THE ION-ELECTRON SYSTEM (eV)
  ---------------------------------------------------
  free  energy   TOTEN  =      -576.6773312557 eV

  energy  without entropy=     -576.6249065062  energy(sigma->0) =     -576.65111888
 
 d Force = 0.3036421E-03[ 0.292E-03, 0.315E-03]  d Energy = 0.3176876E-03-0.140E-04
 d Force = 0.1056864E+01[ 0.106E+01, 0.106E+01]  d Ewald  =-0.6514521E+00 0.171E+01


--------------------------------------------------------------------------------------------------------


    POTLOK:  cpu time    0.2558: real time    0.2564


--------------------------------------------------------------------------------------------------------


 Quasi-Newton relaxation of ions (Broydens 2nd method)
  g(Force)  = 0.261E-03   g(Stress)= 0.101E-03

 retain information from N=  1 steps
 eigenvalues of (default step * inverse Hessian matrix)
  average eigenvalue of G=   0.1933
 eigenvalue spectrum of G is  0.1933


--------------------------------------------------------------------------------------------------------


  
 reached required accuracy - stopping structural energy minimisation
     LOOP+:  cpu time   55.0487: real time   55.3981
    4ORBIT:  cpu time    0.0000: real time    0.0000

volume of typ            1:    11.4 %

volume of typ            2:    19.4 %

volume of typ            3:     9.9 %
 
total charge     
 
# of ion       s       p       d       tot
------------------------------------------
    1        2.076   0.245   0.093   2.413
    2        2.071   0.232   0.088   2.391
    3        2.071   0.232   0.088   2.391
    4        2.075   0.242   0.092   2.408
    5        2.071   0.235   0.089   2.394
    6        2.068   0.225   0.085   2.378
    7        2.075   0.242   0.092   2.408
    8        2.068   0.225   0.085   2.378
    9        2.071   0.235   0.089   2.394
   10        2.075   0.242   0.091   2.408
   11        2.075   0.242   0.091   2.408
   12        2.070   0.231   0.087   2.387
   13        2.070   0.231   0.087   2.387
   14        0.293   0.406   7.836   8.535
   15        0.280   0.379   7.848   8.507
   16        0.280   0.379   7.848   8.507
   17        0.286   0.391   7.836   8.514
   18        0.292   0.404   7.840   8.536
   19        0.286   0.391   7.839   8.516
   20        0.278   0.374   7.843   8.494
   21        0.282   0.382   7.840   8.504
   22        0.292   0.404   7.839   8.535
   23        0.286   0.391   7.836   8.514
   24        0.286   0.391   7.839   8.516
   25        0.292   0.404   7.840   8.536
   26        0.286   0.391   7.845   8.521
   27        0.276   0.369   7.842   8.486
   28        0.276   0.369   7.842   8.486
   29        0.284   0.385   7.833   8.502
   30        0.282   0.381   7.839   8.502
   31        0.280   0.377   7.843   8.499
   32        0.278   0.374   7.843   8.494
   33        0.292   0.404   7.839   8.535
   34        0.282   0.382   7.840   8.504
   35        0.284   0.385   7.833   8.502
   36        0.280   0.377   7.843   8.499
   37        0.282   0.381   7.839   8.502
   38        0.291   0.400   7.831   8.522
   39        0.276   0.369   7.838   8.484
   40        0.276   0.369   7.838   8.484
   41        1.271   2.762   0.006   4.038
   42        1.271   2.762   0.006   4.038
   43        1.267   2.769   0.007   4.043
   44        1.267   2.769   0.006   4.043
   45        1.267   2.769   0.006   4.043
   46        1.267   2.769   0.007   4.043
   47        1.276   2.748   0.007   4.032
   48        1.267   2.770   0.007   4.043
   49        1.272   2.758   0.006   4.036
   50        1.269   2.767   0.006   4.041
   51        1.271   2.759   0.006   4.036
   52        1.275   2.755   0.007   4.036
   53        1.273   2.756   0.007   4.036
   54        1.269   2.766   0.007   4.043
   55        1.269   2.767   0.007   4.043
   56        1.267   2.771   0.007   4.045
   57        1.264   2.777   0.007   4.048
   58        1.266   2.773   0.007   4.046
   59        1.267   2.770   0.007   4.043
   60        1.276   2.748   0.007   4.032
   61        1.275   2.755   0.007   4.036
   62        1.271   2.759   0.006   4.036
   63        1.269   2.767   0.006   4.041
   64        1.272   2.758   0.006   4.036
   65        1.265   2.775   0.007   4.047
   66        1.265   2.775   0.007   4.047
   67        1.273   2.755   0.007   4.035
   68        1.270   2.767   0.007   4.044
   69        1.270   2.767   0.007   4.044
   70        1.273   2.755   0.007   4.035
   71        1.275   2.756   0.007   4.038
   72        1.277   2.744   0.007   4.029
   73        1.270   2.765   0.007   4.042
   74        1.273   2.760   0.007   4.040
   75        1.264   2.777   0.006   4.047
   76        1.276   2.747   0.007   4.030
   77        1.269   2.766   0.007   4.043
   78        1.273   2.756   0.007   4.036
   79        1.266   2.773   0.007   4.046
   80        1.264   2.777   0.007   4.048
   81        1.267   2.771   0.007   4.045
   82        1.269   2.767   0.007   4.043
   83        1.277   2.744   0.007   4.029
   84        1.275   2.756   0.007   4.038
   85        1.276   2.747   0.007   4.030
   86        1.264   2.777   0.006   4.047
   87        1.273   2.760   0.007   4.040
   88        1.270   2.765   0.007   4.042
   89        1.274   2.758   0.007   4.038
   90        1.274   2.758   0.007   4.038
   91        1.278   2.742   0.007   4.027
   92        1.274   2.756   0.007   4.037
   93        1.274   2.756   0.007   4.037
   94        1.278   2.742   0.007   4.027
--------------------------------------------------
tot         103.22  162.61  213.19  479.01
 
magnetization (x)
 
# of ion       s       p       d       tot
------------------------------------------
    1        0.007   0.012   0.001   0.019
    2        0.006   0.009   0.000   0.015
    3        0.006   0.009   0.000   0.015
    4        0.007   0.010   0.000   0.017
    5        0.006   0.013   0.001   0.020
    6        0.006   0.010   0.000   0.016
    7        0.007   0.010   0.000   0.017
    8        0.006   0.010   0.000   0.016
    9        0.006   0.013   0.001   0.020
   10        0.007   0.012   0.000   0.019
   11        0.007   0.012   0.000   0.019
   12        0.006   0.012   0.001   0.018
   13        0.006   0.012   0.001   0.018
   14       -0.001  -0.001   0.189   0.188
   15       -0.000  -0.001   0.440   0.439
   16       -0.000  -0.001   0.440   0.439
   17       -0.001  -0.001   0.268   0.267
   18       -0.001  -0.001   0.200   0.199
   19       -0.001  -0.001   0.279   0.278
   20        0.000  -0.001   0.488   0.488
   21       -0.000  -0.001   0.363   0.362
   22       -0.000  -0.000   0.211   0.211
   23       -0.001  -0.001   0.268   0.267
   24       -0.001  -0.001   0.279   0.278
   25       -0.001  -0.001   0.200   0.199
   26        0.000  -0.000   0.369   0.369
   27       -0.000  -0.001   0.472   0.471
   28       -0.000  -0.001   0.472   0.471
   29       -0.000  -0.001   0.290   0.289
   30       -0.000  -0.001   0.367   0.366
   31       -0.000  -0.001   0.429   0.428
   32        0.000  -0.001   0.488   0.488
   33       -0.000  -0.000   0.211   0.211
   34       -0.000  -0.001   0.363   0.362
   35       -0.000  -0.001   0.290   0.289
   36       -0.000  -0.001   0.429   0.428
   37       -0.000  -0.001   0.367   0.366
   38       -0.001  -0.001   0.166   0.165
   39       -0.000  -0.001   0.437   0.436
   40       -0.000  -0.001   0.437   0.436
   41        0.011   0.074   0.000   0.085
   42        0.011   0.074   0.000   0.085
   43        0.004   0.007   0.000   0.012
   44        0.005   0.016   0.000   0.022
   45        0.005   0.016   0.000   0.022
   46        0.004   0.007   0.000   0.012
   47        0.009   0.076   0.000   0.085
   48        0.004   0.013   0.000   0.017
   49        0.011   0.068   0.000   0.080
   50        0.012   0.084   0.000   0.096
   51        0.010   0.072   0.000   0.082
   52        0.011   0.090   0.000   0.101
   53        0.004   0.000   0.000   0.004
   54        0.004   0.007   0.000   0.011
   55        0.004   0.009   0.000   0.013
   56        0.004   0.004   0.000   0.008
   57        0.005   0.014   0.000   0.020
   58        0.005   0.014   0.000   0.019
   59        0.004   0.013   0.000   0.017
   60        0.009   0.076   0.000   0.085
   61        0.011   0.090   0.000   0.101
   62        0.010   0.072   0.000   0.082
   63        0.012   0.084   0.000   0.096
   64        0.011   0.068   0.000   0.080
   65        0.004  -0.004   0.000  -0.000
   66        0.004  -0.004   0.000  -0.000
   67        0.003   0.007   0.000   0.010
   68        0.004   0.016   0.000   0.021
   69        0.004   0.016   0.000   0.021
   70        0.003   0.007   0.000   0.010
   71        0.011   0.085   0.000   0.097
   72        0.009   0.075   0.000   0.085
   73        0.003   0.008   0.000   0.012
   74        0.010   0.064   0.000   0.074
   75        0.004   0.008   0.000   0.012
   76        0.008   0.060   0.000   0.068
   77        0.004   0.007   0.000   0.011
   78        0.004   0.000   0.000   0.004
   79        0.005   0.014   0.000   0.019
   80        0.005   0.014   0.000   0.020
   81        0.004   0.004   0.000   0.008
   82        0.004   0.009   0.000   0.013
   83        0.009   0.075   0.000   0.085
   84        0.011   0.085   0.000   0.097
   85        0.008   0.060   0.000   0.068
   86        0.004   0.008   0.000   0.012
   87        0.010   0.064   0.000   0.074
   88        0.003   0.008   0.000   0.012
   89        0.011   0.075   0.000   0.085
   90        0.011   0.075   0.000   0.085
   91        0.010   0.078   0.000   0.088
   92        0.010   0.074   0.000   0.084
   93        0.010   0.074   0.000   0.084
   94        0.010   0.078   0.000   0.088
--------------------------------------------------
tot           0.45    2.32    9.23   12.00
 

 total amount of memory used by VASP MPI-rank0   145592. kBytes
=======================================================================

   base      :      30000. kBytes
   nonlr-proj:      39706. kBytes
   fftplans  :       9349. kBytes
   grid      :      55332. kBytes
   one-center:       1461. kBytes
   wavefun   :       9744. kBytes
 
  
  
 General timing and accounting informations for this job:
 ========================================================
  
                  Total CPU time used (sec):     1012.515
                            User time (sec):     1005.240
                          System time (sec):        7.275
                         Elapsed time (sec):     1021.938
  
                   Maximum memory used (kb):      203328.
                   Average memory used (kb):           0.
  
                          Minor page faults:        34638
                          Major page faults:           50
                 Voluntary context switches:          946
