 vasp.5.4.4.18Apr17-6-g9f103f2a35 (build May 12 2020 05:39:39) gamma-only       
  
 MD_VERSION_INFO: Compiled 2020-05-12T12:39:39-UTC in devlin.sd.materialsdesign.
 com:/home/medea2/data/build/wwolf/vasp-gpu5.4.4/13047/x86_64/src/src/build/gam 
 from svn 13047
 
 This VASP executable licensed from Materials Design, Inc.
 
 executed on                        Lin64 date 2023.01.20  05:42:54
 running on   16 total cores
 distrk:  each k-point on   16 cores,    1 groups
 distr:  one band on NCORES_PER_BAND=   1 cores,   16 groups


--------------------------------------------------------------------------------------------------------


 INCAR:
 POTCAR:    PAW_PBE Li_sv 10Sep2004               
 POTCAR:    PAW_PBE Ni 02Aug2007                  
 POTCAR:    PAW_PBE O 08Apr2002                   

 ----------------------------------------------------------------------------- 
|                                                                             |
|           W    W    AA    RRRRR   N    N  II  N    N   GGGG   !!!           |
|           W    W   A  A   R    R  NN   N  II  NN   N  G    G  !!!           |
|           W    W  A    A  R    R  N N  N  II  N N  N  G       !!!           |
|           W WW W  AAAAAA  RRRRR   N  N N  II  N  N N  G  GGG   !            |
|           WW  WW  A    A  R   R   N   NN  II  N   NN  G    G                |
|           W    W  A    A  R    R  N    N  II  N    N   GGGG   !!!           |
|                                                                             |
|      For optimal performance we recommend to set                            |
|        NCORE= 4 - approx SQRT( number of cores)                             |
|      NCORE specifies how many cores store one orbital (NPAR=cpu/NCORE).     |
|      This setting can  greatly improve the performance of VASP for DFT.     |
|      The default,   NCORE=1            might be grossly inefficient         |
|      on modern multi-core architectures or massively parallel machines.     |
|      Do your own testing !!!!                                               |
|      Unfortunately you need to use the default for GW and RPA calculations. |
|      (for HF NCORE is supported but not extensively tested yet)             |
|                                                                             |
 ----------------------------------------------------------------------------- 

 POTCAR:    PAW_PBE Li_sv 10Sep2004               
  local pseudopotential read in
  atomic valenz-charges read in
  non local Contribution for L=           0  read in
    real space projection operators read in
  non local Contribution for L=           0  read in
    real space projection operators read in
  non local Contribution for L=           1  read in
    real space projection operators read in
    PAW grid and wavefunctions read in
 
   number of l-projection  operators is LMAX  =           3
   number of lm-projection operators is LMMAX =           5
 
 POTCAR:    PAW_PBE Ni 02Aug2007                  
  local pseudopotential read in
  partial core-charges read in
  partial kinetic energy density read in
  atomic valenz-charges read in
  non local Contribution for L=           2  read in
    real space projection operators read in
  non local Contribution for L=           2  read in
    real space projection operators read in
  non local Contribution for L=           0  read in
    real space projection operators read in
  non local Contribution for L=           0  read in
    real space projection operators read in
  non local Contribution for L=           1  read in
    real space projection operators read in
  non local Contribution for L=           1  read in
    real space projection operators read in
    PAW grid and wavefunctions read in
 
   number of l-projection  operators is LMAX  =           6
   number of lm-projection operators is LMMAX =          18
 
 POTCAR:    PAW_PBE O 08Apr2002                   
  local pseudopotential read in
  partial core-charges read in
  partial kinetic energy density read in
  kinetic energy density of atom read in
  atomic valenz-charges read in
  non local Contribution for L=           0  read in
    real space projection operators read in
  non local Contribution for L=           0  read in
    real space projection operators read in
  non local Contribution for L=           1  read in
    real space projection operators read in
  non local Contribution for L=           1  read in
    real space projection operators read in
    PAW grid and wavefunctions read in
 
   number of l-projection  operators is LMAX  =           4
   number of lm-projection operators is LMMAX =           8
 
 Optimization of the real space projectors (new method)

 maximal supplied QI-value         = 22.11
 optimisation between [QCUT,QGAM] = [ 11.28, 22.77] = [ 35.61,145.23] Ry 
 Optimized for a Real-space Cutoff    1.10 Angstroem

   l    n(q)    QCUT    max X(q) W(low)/X(q) W(high)/X(q)  e(spline) 
   0      7    11.276    10.506    0.54E-04    0.58E-04    0.16E-07
   0      7    11.276     8.367    0.11E-03    0.14E-03    0.35E-07
   1      7    11.276     8.983    0.23E-03    0.43E-03    0.86E-07
 Optimization of the real space projectors (new method)

 maximal supplied QI-value         = 16.25
 optimisation between [QCUT,QGAM] = [ 11.38, 22.75] = [ 36.24,144.96] Ry 
 Optimized for a Real-space Cutoff    1.47 Angstroem

   l    n(q)    QCUT    max X(q) W(low)/X(q) W(high)/X(q)  e(spline) 
   2      9    11.376    60.317    0.17E-03    0.16E-04    0.16E-06
   2      9    11.376    55.921    0.17E-03    0.16E-04    0.17E-06
   0     10    11.376    51.690    0.45E-04    0.60E-04    0.21E-06
   0     10    11.376    30.015    0.37E-04    0.55E-04    0.19E-06
   1     10    11.376    18.849    0.83E-04    0.11E-03    0.92E-07
   1     10    11.376    14.624    0.69E-04    0.92E-04    0.82E-07
 Optimization of the real space projectors (new method)

 maximal supplied QI-value         = 24.76
 optimisation between [QCUT,QGAM] = [ 11.39, 22.77] = [ 36.31,145.25] Ry 
 Optimized for a Real-space Cutoff    1.10 Angstroem

   l    n(q)    QCUT    max X(q) W(low)/X(q) W(high)/X(q)  e(spline) 
   0      7    11.387    20.381    0.22E-03    0.48E-03    0.18E-06
   0      7    11.387    15.268    0.22E-03    0.52E-03    0.19E-06
   1      7    11.387     5.964    0.22E-03    0.73E-03    0.24E-06
   1      7    11.387     5.382    0.19E-03    0.60E-03    0.21E-06

 ----------------------------------------------------------------------------- 
|                                                                             |
|  ADVICE TO THIS USER RUNNING 'VASP/VAMP'   (HEAR YOUR MASTER'S VOICE ...):  |
|                                                                             |
|      You enforced a specific xc-type in the INCAR file,                     |
|      a different type was found on the POTCAR file                          |
|          I HOPE YOU KNOW, WHAT YOU ARE  DOING                               |
|                                                                             |
 ----------------------------------------------------------------------------- 

  PAW_PBE Li_sv 10Sep2004               :
 energy of atom  1       EATOM= -202.7858
 kinetic energy error for atom=    0.0143 (will be added to EATOM!!)
  PAW_PBE Ni 02Aug2007                  :
 energy of atom  2       EATOM=-1077.6739
 kinetic energy error for atom=    0.0030 (will be added to EATOM!!)
  PAW_PBE O 08Apr2002                   :
 energy of atom  3       EATOM= -432.3788
 kinetic energy error for atom=    0.0224 (will be added to EATOM!!)
 
 
 POSCAR: ce2883_1                                
  positions in direct lattice
  No initial velocities read in
 exchange correlation table for  LEXCH =       14
   RHO(1)=    0.500       N(1)  =     2000
   RHO(2)=  100.500       N(2)  =     4000
 


--------------------------------------------------------------------------------------------------------


 ion  position               nearest neighbor table
   1  0.996  0.501  0.991- 102 2.05 101 2.06  89 2.09  54 2.13  66 2.14  53 2.15  49 2.81  42 2.82

   2  0.116  0.834  0.222-  55 2.08  74 2.08  50 2.11  67 2.11  68 2.12  73 2.13  23 2.83  25 2.84
                            35 2.84  34 2.84
   3  0.223  0.166  0.112-  58 2.12  52 2.12  75 2.13  51 2.13  57 2.13  88 2.16
   4  0.328  0.501  0.991-  90 2.05  95 2.06  89 2.09  54 2.13  60 2.14  59 2.15  43 2.81  42 2.82

   5  0.439  0.834  0.222-  55 2.08  74 2.08  56 2.11  61 2.11  80 2.12  79 2.13  26 2.83  25 2.84
                            35 2.84  37 2.84
   6  0.561  0.166  0.112-  64 2.08  63 2.08  81 2.11  58 2.11  57 2.12  94 2.13  38 2.83  30 2.84
                            29 2.84  45 2.84
   7  0.666  0.500  0.998- 101 2.10  95 2.10  66 2.10  60 2.10  96 2.13  65 2.14
   8  0.777  0.834  0.221-  61 2.12  67 2.12  62 2.13  68 2.13  80 2.13  85 2.16
   9  0.884  0.166  0.112-  64 2.08  63 2.08  69 2.11  52 2.11  51 2.12 100 2.13  32 2.83  30 2.84
                            29 2.84  48 2.84
  10  0.004  0.499  0.343-  71 2.05  72 2.06  84 2.09  65 2.13  53 2.14  66 2.15  33 2.81  40 2.82

  11  0.121  0.833  0.564-  92 2.05  91 2.05  73 2.10  86 2.14  68 2.17  85 2.19  44 2.84  43 2.84

  12  0.220  0.167  0.452-  70 2.05  93 2.06  69 2.10  76 2.14  52 2.15  75 2.17  33 2.84  44 2.84

  13  0.334  0.500  0.335-  72 2.10  78 2.10  53 2.10  59 2.10  77 2.13  54 2.14
  14  0.565  0.167  0.452-  82 2.05  99 2.06  81 2.10  76 2.14  58 2.15  75 2.17  39 2.84  47 2.84

  15  0.672  0.499  0.343-  83 2.05  78 2.06  84 2.09  65 2.13  59 2.14  60 2.15  39 2.81  40 2.82

  16  0.777  0.833  0.564-  98 2.05 103 2.05  79 2.10  86 2.14  80 2.17  85 2.19  47 2.84  49 2.84

  17  0.223  0.167  0.769-  93 2.05  70 2.05  94 2.10  87 2.14  57 2.17  88 2.19  44 2.84  33 2.84

  18  0.322  0.500  0.667-  71 2.04  90 2.04  95 2.12  72 2.12  77 2.20  96 2.20  33 2.83  43 2.83

  19  0.435  0.833  0.881-  91 2.05  92 2.06  56 2.10  97 2.14  61 2.15  62 2.17  43 2.84  44 2.84

  20  0.678  0.500  0.667- 102 2.04  83 2.04 101 2.12  78 2.12  96 2.20  77 2.20  49 2.83  39 2.83

  21  0.780  0.833  0.881- 103 2.05  98 2.06  50 2.10  97 2.14  67 2.15  62 2.17  49 2.84  47 2.84

  22  0.879  0.167  0.769-  99 2.05  82 2.05 100 2.10  87 2.14  51 2.17  88 2.19  47 2.84  39 2.84

  23  0.002  0.998  0.001- 100 1.87  55 1.91  67 1.91  88 1.92 103 1.95  52 1.96  26 2.81   2 2.83
                            41 2.84  35 2.85  29 2.86  32 2.86  47 2.88
  24  0.111  0.335  0.220-  69 1.86  54 1.92  66 1.93  51 1.93  75 1.94  72 1.94  27 2.82  42 2.82
                            48 2.85  30 2.85  36 2.86  33 2.87
  25  0.222  0.668  0.110-  74 1.88  89 1.88  50 1.93  56 1.93  59 1.95  53 1.95  49 2.83  43 2.83
                             5 2.84   2 2.84  34 2.84  37 2.84  31 2.85  28 2.85
  26  0.332  0.998  0.001-  94 1.87  55 1.91  61 1.91  88 1.92  91 1.95  58 1.96  23 2.81   5 2.83
                            41 2.84  35 2.85  29 2.86  38 2.86  44 2.88
  27  0.442  0.335  0.220-  81 1.86  54 1.92  60 1.93  57 1.93  75 1.94  78 1.94  24 2.82  42 2.82
                            45 2.85  30 2.85  36 2.86  39 2.87
  28  0.558  0.665  0.113-  56 1.86  65 1.92  59 1.93  80 1.93  62 1.94  95 1.94  31 2.82  40 2.82
                            37 2.85  25 2.85  46 2.86  43 2.87
  29  0.666  0.001  0.999-  97 1.86  64 1.87 100 1.94  94 1.94  61 1.97  67 1.97  47 2.83  44 2.83
                             9 2.84   6 2.84  38 2.85  32 2.85  23 2.86  26 2.86
  30  0.778  0.332  0.223-  63 1.88  84 1.88  69 1.93  81 1.93  60 1.95  66 1.95  33 2.83  39 2.83
                             6 2.84   9 2.84  48 2.84  45 2.84  24 2.85  27 2.85
  31  0.889  0.665  0.113-  50 1.86  65 1.92  53 1.93  68 1.93  62 1.94 101 1.94  28 2.82  40 2.82
                            34 2.85  25 2.85  46 2.86  49 2.87
  32  0.998  0.002  0.333-  73 1.87  64 1.91  52 1.91  85 1.92  70 1.95  67 1.96  38 2.81   9 2.83
                            41 2.84  29 2.85  35 2.86  23 2.86  44 2.88
  33  0.108  0.334  0.555-  93 1.86  84 1.90  87 1.92  72 1.95  69 1.96  90 1.98  39 2.80  10 2.81
                            18 2.83  30 2.83  12 2.84  17 2.84  42 2.85  36 2.86  24 2.87  45 2.88
  34  0.224  0.669  0.444-  71 1.87  74 1.91  68 1.91  77 1.92  92 1.95  53 1.96  37 2.80  25 2.84
                            46 2.84   2 2.84  31 2.85  40 2.86  43 2.88
  35  0.334  0.999  0.335-  76 1.86  55 1.87  73 1.94  79 1.94  58 1.97  52 1.97  47 2.83  44 2.83
                             2 2.84   5 2.84  26 2.85  23 2.85  32 2.86  38 2.86
  36  0.445  0.332  0.556-  75 1.92  96 1.93  99 1.94  93 1.94  72 1.97  78 1.97  45 2.84  48 2.84
                            24 2.86  27 2.86  33 2.86  39 2.86
  37  0.553  0.669  0.444-  83 1.87  74 1.91  80 1.91  77 1.92  98 1.95  59 1.96  34 2.80  25 2.84
                            46 2.84   5 2.84  28 2.85  40 2.86  49 2.88
  38  0.668  0.002  0.333-  79 1.87  64 1.91  58 1.91  85 1.92  82 1.95  61 1.96  32 2.81   6 2.83
                            41 2.84  29 2.85  35 2.86  26 2.86  47 2.88
  39  0.780  0.334  0.555-  99 1.86  84 1.90  87 1.92  78 1.95  81 1.96 102 1.98  33 2.80  15 2.81
                            20 2.83  30 2.83  14 2.84  22 2.84  42 2.85  36 2.86  27 2.87  48 2.88
  40  0.888  0.664  0.443-  86 1.85  65 1.90  71 1.94  83 1.94  80 1.97  68 1.97  15 2.82  10 2.82
                            28 2.82  31 2.82  43 2.85  49 2.85  37 2.86  34 2.86
  41  0.000  0.000  0.667-  88 1.91  85 1.91  82 1.95  91 1.95  70 1.95 103 1.95  26 2.84  38 2.84
                            23 2.84  32 2.84  44 2.87  47 2.87
  42  0.112  0.336  0.890-  87 1.85  54 1.90  90 1.94 102 1.94  57 1.97  51 1.97   4 2.82   1 2.82
                            27 2.82  24 2.82  33 2.85  39 2.85  45 2.86  48 2.86
  43  0.220  0.666  0.778-  92 1.86  89 1.90  86 1.92  95 1.95  56 1.96  71 1.98  49 2.80   4 2.81
                            18 2.83  25 2.83  19 2.84  11 2.84  40 2.85  46 2.86  28 2.87  34 2.88
  44  0.336  0.000  0.667-  70 1.87  91 1.87  76 1.91  97 1.91  94 1.94  73 1.94  47 2.79  29 2.83
                            35 2.83  11 2.84  17 2.84  19 2.84  12 2.84  41 2.87  32 2.88  26 2.88
  45  0.447  0.331  0.890-  90 1.87  63 1.91  57 1.91  96 1.92  93 1.95  60 1.96  48 2.80  30 2.84
                            36 2.84   6 2.84  27 2.85  42 2.86  33 2.88
  46  0.555  0.668  0.777-  62 1.92  77 1.93  92 1.94  98 1.94 101 1.97  95 1.97  34 2.84  37 2.84
                            31 2.86  28 2.86  49 2.86  43 2.86
  47  0.664  0.000  0.667- 103 1.87  82 1.87  97 1.91  76 1.91 100 1.94  79 1.94  44 2.79  29 2.83
                            35 2.83  22 2.84  16 2.84  21 2.84  14 2.84  41 2.87  23 2.88  38 2.88
  48  0.776  0.331  0.890- 102 1.87  63 1.91  51 1.91  96 1.92  99 1.95  66 1.96  45 2.80  30 2.84
                            36 2.84   9 2.84  24 2.85  42 2.86  39 2.88
  49  0.892  0.666  0.778-  98 1.86  89 1.90  86 1.92 101 1.95  50 1.96  83 1.98  43 2.80   1 2.81
                            20 2.83  25 2.83  21 2.84  16 2.84  40 2.85  46 2.86  31 2.87  37 2.88
  50  0.995  0.736  0.007-  31 1.86  25 1.93  49 1.96  21 2.10   2 2.11
  51  0.997  0.261  0.001-  48 1.91  24 1.93  42 1.97   9 2.12   3 2.13  22 2.17
  52  0.108  0.073  0.223-  32 1.91  23 1.96  35 1.97   9 2.11   3 2.12  12 2.15
  53  0.111  0.593  0.222-  31 1.93  25 1.95  34 1.96  13 2.10  10 2.14   1 2.15
  54  0.221  0.406  0.109-  42 1.90  27 1.92  24 1.92   4 2.13   1 2.13  13 2.14
  55  0.227  0.930  0.120-  35 1.87  26 1.91  23 1.91   5 2.08   2 2.08
  56  0.345  0.736  0.007-  28 1.86  25 1.93  43 1.96  19 2.10   5 2.11
  57  0.337  0.261  0.001-  45 1.91  27 1.93  42 1.97   6 2.12   3 2.13  17 2.17
  58  0.448  0.073  0.223-  38 1.91  26 1.96  35 1.97   6 2.11   3 2.12  14 2.15
  59  0.444  0.593  0.222-  28 1.93  25 1.95  37 1.96  13 2.10  15 2.14   4 2.15
  60  0.556  0.407  0.112-  27 1.93  30 1.95  45 1.96   7 2.10   4 2.14  15 2.15
  61  0.552  0.927  0.111-  26 1.91  38 1.96  29 1.97   5 2.11   8 2.12  19 2.15
  62  0.666  0.738  0.999-  46 1.92  31 1.94  28 1.94   8 2.13  21 2.17  19 2.17
  63  0.670  0.263  0.007-  30 1.88  48 1.91  45 1.91   9 2.08   6 2.08
  64  0.773  0.070  0.213-  29 1.87  38 1.91  32 1.91   6 2.08   9 2.08
  65  0.779  0.594  0.224-  40 1.90  28 1.92  31 1.92  15 2.13  10 2.13   7 2.14
  66  0.889  0.407  0.112-  24 1.93  30 1.95  48 1.96   7 2.10   1 2.14  10 2.15
  67  0.892  0.927  0.111-  23 1.91  32 1.96  29 1.97   2 2.11   8 2.12  21 2.15
  68  0.003  0.739  0.333-  34 1.91  31 1.93  40 1.97   2 2.12   8 2.13  11 2.17
  69  0.005  0.264  0.326-  24 1.86  30 1.93  33 1.96  12 2.10   9 2.11
  70  0.122  0.071  0.561-  44 1.87  32 1.95  41 1.95  12 2.05  17 2.05
  71  0.117  0.596  0.548-  34 1.87  40 1.94  43 1.98  18 2.04  10 2.05
  72  0.220  0.407  0.443-  24 1.94  33 1.95  36 1.97  10 2.06  13 2.10  18 2.12
  73  0.211  0.931  0.440-  32 1.87  35 1.94  44 1.94  11 2.10   2 2.13
  74  0.330  0.737  0.326-  25 1.88  34 1.91  37 1.91   2 2.08   5 2.08
  75  0.334  0.262  0.334-  36 1.92  24 1.94  27 1.94   3 2.13  12 2.17  14 2.17
  76  0.441  0.069  0.548-  35 1.86  44 1.91  47 1.91  12 2.14  14 2.14
  77  0.444  0.597  0.556-  34 1.92  37 1.92  46 1.93  13 2.13  18 2.20  20 2.20
  78  0.556  0.407  0.443-  27 1.94  39 1.95  36 1.97  15 2.06  13 2.10  20 2.12
  79  0.562  0.931  0.440-  38 1.87  35 1.94  47 1.94  16 2.10   5 2.13
  80  0.663  0.739  0.333-  37 1.91  28 1.93  40 1.97   5 2.12   8 2.13  16 2.17
  81  0.655  0.264  0.326-  27 1.86  30 1.93  39 1.96  14 2.10   6 2.11
  82  0.772  0.071  0.561-  47 1.87  38 1.95  41 1.95  14 2.05  22 2.05
  83  0.764  0.596  0.548-  37 1.87  40 1.94  49 1.98  20 2.04  15 2.05
  84  0.886  0.402  0.439-  30 1.88  33 1.90  39 1.90  15 2.09  10 2.09
  85  0.890  0.930  0.446-  41 1.91  38 1.92  32 1.92   8 2.16  11 2.19  16 2.19
  86  0.994  0.734  0.655-  40 1.85  43 1.92  49 1.92  16 2.14  11 2.14
  87  0.006  0.266  0.679-  42 1.85  39 1.92  33 1.92  17 2.14  22 2.14
  88  0.110  0.070  0.887-  41 1.91  26 1.92  23 1.92   3 2.16  22 2.19  17 2.19
  89  0.114  0.598  0.895-  25 1.88  49 1.90  43 1.90   4 2.09   1 2.09
  90  0.236  0.404  0.786-  45 1.87  42 1.94  33 1.98  18 2.04   4 2.05
  91  0.228  0.929  0.772-  44 1.87  26 1.95  41 1.95  19 2.05  11 2.05
  92  0.328  0.736  0.673-  43 1.86  46 1.94  34 1.95  11 2.05  19 2.06
  93  0.322  0.264  0.661-  33 1.86  36 1.94  45 1.95  17 2.05  12 2.06
  94  0.438  0.069  0.893-  26 1.87  29 1.94  44 1.94  17 2.10   6 2.13
  95  0.444  0.593  0.891-  28 1.94  43 1.95  46 1.97   4 2.06   7 2.10  18 2.12
  96  0.556  0.403  0.778-  48 1.92  45 1.92  36 1.93   7 2.13  20 2.20  18 2.20
  97  0.559  0.931  0.785-  29 1.86  47 1.91  44 1.91  21 2.14  19 2.14
  98  0.678  0.736  0.673-  49 1.86  46 1.94  37 1.95  16 2.05  21 2.06
  99  0.672  0.264  0.661-  39 1.86  36 1.94  48 1.95  22 2.05  14 2.06
 100  0.789  0.069  0.893-  23 1.87  29 1.94  47 1.94  22 2.10   9 2.13
 101  0.780  0.593  0.891-  31 1.94  49 1.95  46 1.97   1 2.06   7 2.10  20 2.12
 102  0.883  0.404  0.786-  48 1.87  42 1.94  39 1.98  20 2.04   1 2.05
 103  0.878  0.929  0.772-  47 1.87  23 1.95  41 1.95  21 2.05  16 2.05
 
  LATTYP: Found a base centered monoclinic cell.
 ALAT       =    14.8173626593
 B/A-ratio  =     0.5752859836
 C/A-ratio  =     1.3815194916
 COS(beta)  =    -0.6287300260
  
  Lattice vectors:
  
 A1 = (   4.2850471135,   7.3954344006,   0.0081414045)
 A2 = (   8.5471576384,   0.0132424214,   0.0081414045)
 A3 = ( -12.8454952354,  -7.4163500761, -14.1078475985)


Analysis of symmetry for initial positions (statically):
=====================================================================
 Subroutine PRICEL returns:
 Original cell was already a primitive cell.
 

 Routine SETGRP: Setting up the symmetry group for a 
 base centered monoclinic supercell.


 Subroutine GETGRP returns: Found  4 space group operations
 (whereof  1 operations were pure point group operations)
 out of a pool of  4 trial point group operations.


The static configuration has the point symmetry C_1 .
 The point group associated with its full space group is C_2h.


Analysis of symmetry for dynamics (positions and initial velocities):
=====================================================================
 Subroutine PRICEL returns:
 Original cell was already a primitive cell.
 

 Routine SETGRP: Setting up the symmetry group for a 
 base centered monoclinic supercell.


 Subroutine GETGRP returns: Found  4 space group operations
 (whereof  1 operations were pure point group operations)
 out of a pool of  4 trial point group operations.


The dynamic configuration has the point symmetry C_1 .
 The point group associated with its full space group is C_2h.


Analysis of structural, dynamic, and magnetic symmetry:
=====================================================================
 Subroutine PRICEL returns:
 Original cell was already a primitive cell.
 

 Routine SETGRP: Setting up the symmetry group for a 
 base centered monoclinic supercell.


 Subroutine GETGRP returns: Found  4 space group operations
 (whereof  1 operations were pure point group operations)
 out of a pool of  4 trial point group operations.


The magnetic configuration has the point symmetry C_1 .
 The point group associated with its full space group is C_2h.


 Subroutine INISYM returns: Found  4 space group operations
 (whereof  1 operations are pure point group operations),
 and found     1 'primitive' translations

 
 
 KPOINTS: Automatic mesh                          

Automatic generation of k-mesh.
Space group operators:
 irot       det(A)        alpha          n_x          n_y          n_z        tau_x        tau_y        tau_z
    1     1.000000     0.000000     1.000000     0.000000     0.000000     0.000000     0.000000     0.000000
    2    -1.000000     0.000000     1.000000     0.000000     0.000000    -0.000000     0.000000     0.333333
    3     1.000000   180.000000    -0.500000     0.866025     0.000000     0.666667     0.000000     1.333333
    4    -1.000000   180.000000    -0.500000     0.866025     0.000000     0.333333     0.000000     1.000000
 
 Subroutine IBZKPT returns following result:
 ===========================================
 
 Found      1 irreducible k-points:
 
 Following reciprocal coordinates:
            Coordinates               Weight
  0.000000  0.000000  0.000000      1.000000
 
 Following cartesian coordinates:
            Coordinates               Weight
  0.000000  0.000000  0.000000      1.000000
 


--------------------------------------------------------------------------------------------------------




 Dimension of arrays:
   k-points           NKPTS =      1   k-points in BZ     NKDIM =      1   number of bands    NBANDS=    432
   number of dos      NEDOS =    301   number of ions     NIONS =    103
   non local maximal  LDIM  =      6   non local SUM 2l+1 LMDIM =     18
   total plane-waves  NPLWV = 442368
   max r-space proj   IRMAX =   6723   max aug-charges    IRDMAX=  16311
   dimension x,y,z NGX =    64 NGY =  108 NGZ =   64
   dimension x,y,z NGXF=   128 NGYF=  216 NGZF=  128
   support grid    NGXF=   128 NGYF=  216 NGZF=  128
   ions per type =              22  27  54
   NGX,Y,Z   is equivalent  to a cutoff of  12.48, 12.74, 12.45 a.u.
   NGXF,Y,Z  is equivalent  to a cutoff of  24.96, 25.48, 24.90 a.u.

 SYSTEM =  unknown system                          
 POSCAR =  ce2883_1                                

 Startparameter for this run:
   NWRITE =      1    write-flag & timer
   PREC   = accura    normal or accurate (medium, high low for compatibility)
   ISTART =      0    job   : 0-new  1-cont  2-samecut
   ICHARG =      2    charge: 1-file 2-atom 10-const
   ISPIN  =      2    spin polarized calculation?
   LNONCOLLINEAR =      F non collinear calculations
   LSORBIT =      F    spin-orbit coupling
   INIWAV =      1    electr: 0-lowe 1-rand  2-diag
   LASPH  =      F    aspherical Exc in radial PAW
   METAGGA=      F    non-selfconsistent MetaGGA calc.

 Electronic Relaxation 1
   ENCUT  =  500.0 eV  36.75 Ry    6.06 a.u.  15.54 25.69 15.58*2*pi/ulx,y,z
   ENINI  =  500.0     initial cutoff
   ENAUG  =  628.9 eV  augmentation charge cutoff
   NELM   =     80;   NELMIN=  2; NELMDL= -5     # of ELM steps 
   EDIFF  = 0.1E-04   stopping-criterion for ELM
   LREAL  =      T    real-space projection
   NLSPLINE    = F    spline interpolate recip. space projectors
   LCOMPAT=      F    compatible to vasp.4.4
   GGA_COMPAT  = T    GGA compatible to vasp.4.4-vasp.4.6
   LMAXPAW     = -100 max onsite density
   LMAXMIX     =    2 max onsite mixed and CHGCAR
   VOSKOWN=      1    Vosko Wilk Nusair interpolation
   ROPT   =   -0.00025  -0.00025  -0.00025
 Ionic relaxation
   EDIFFG = -.2E-01   stopping-criterion for IOM
   NSW    =     20    number of steps for IOM
   NBLOCK =      1;   KBLOCK =     20    inner block; outer block 
   IBRION =      1    ionic relax: 0-MD 1-quasi-New 2-CG
   NFREE  =      0    steps in history (QN), initial steepest desc. (CG)
   ISIF   =      3    stress and relaxation
   IWAVPR =     11    prediction:  0-non 1-charg 2-wave 3-comb
   ISYM   =      2    0-nonsym 1-usesym 2-fastsym
   LCORR  =      T    Harris-Foulkes like correction to forces

   POTIM  = 0.5000    time-step for ionic-motion
   TEIN   =    0.0    initial temperature
   TEBEG  =    0.0;   TEEND  =   0.0 temperature during run
   SMASS  =  -3.00    Nose mass-parameter (am)
   estimated Nose-frequenzy (Omega)   =  0.10E-29 period in steps =****** mass=  -0.166E-26a.u.
   SCALEE = 1.0000    scale energy and forces
   NPACO  =    256;   APACO  = 16.0  distance and # of slots for P.C.
   PSTRESS=    0.0 pullay stress

  Mass of Ions in am
   POMASS =   7.01 58.69 16.00
  Ionic Valenz
   ZVAL   =   3.00 10.00  6.00
  Atomic Wigner-Seitz radii
   RWIGS  =   1.23  1.15  0.73
  virtual crystal weights 
   VCA    =   1.00  1.00  1.00
   NELECT =     660.0000    total number of electrons
   NUPDOWN=      -1.0000    fix difference up-down

 DOS related values:
   EMIN   =  10.00;   EMAX   =-10.00  energy-range for DOS
   EFERMI =   0.00
   ISMEAR =     0;   SIGMA  =   0.05  broadening in eV -4-tet -1-fermi 0-gaus

 Electronic relaxation 2 (details)
   IALGO  =     38    algorithm
   LDIAG  =      T    sub-space diagonalisation (order eigenvalues)
   LSUBROT=      F    optimize rotation matrix (better conditioning)
   TURBO    =      0    0=normal 1=particle mesh
   IRESTART =      0    0=no restart 2=restart with 2 vectors
   NREBOOT  =      0    no. of reboots
   NMIN     =      0    reboot dimension
   EREF     =   0.00    reference energy to select bands
   IMIX   =      4    mixing-type and parameters
     AMIX     =   0.40;   BMIX     =  1.00
     AMIX_MAG =   1.60;   BMIX_MAG =  1.00
     AMIN     =   0.10
     WC   =   100.;   INIMIX=   1;  MIXPRE=   1;  MAXMIX= -45

 Intra band minimization:
   WEIMIN = 0.0010     energy-eigenvalue tresh-hold
   EBREAK =  0.58E-08  absolut break condition
   DEPER  =   0.30     relativ break condition  

   TIME   =   0.40     timestep for ELM

  volume/ion in A,a.u.               =       8.64        58.31
  Fermi-wavevector in a.u.,A,eV,Ry     =   1.481852  2.800294 29.876828  2.195885
  Thomas-Fermi vector in A             =   2.595711
 
 Write flags
   LWAVE        =      F    write WAVECAR
   LDOWNSAMPLE  =      F    k-point downsampling of WAVECAR
   LCHARG       =      T    write CHGCAR
   LVTOT        =      F    write LOCPOT, total local potential
   LVHAR        =      F    write LOCPOT, Hartree potential only
   LELF         =      F    write electronic localiz. function (ELF)
   LORBIT       =      0    0 simple, 1 ext, 2 COOP (PROOUT), +10 PAW based schemes


 Dipole corrections
   LMONO  =      F    monopole corrections only (constant potential shift)
   LDIPOL =      F    correct potential (dipole corrections)
   IDIPOL =      0    1-x, 2-y, 3-z, 4-all directions 
   EPSILON=  1.0000000 bulk dielectric constant

 Exchange correlation treatment:
   GGA     =    PS    GGA type
   LEXCH   =    14    internal setting for exchange type
   VOSKOWN=      1    Vosko Wilk Nusair interpolation
   LHFCALC =     F    Hartree Fock is set to
   LHFONE  =     F    Hartree Fock one center treatment
   AEXX    =    0.0000 exact exchange contribution

 Linear response parameters
   LEPSILON=     F    determine dielectric tensor
   LRPA    =     F    only Hartree local field effects (RPA)
   LNABLA  =     F    use nabla operator in PAW spheres
   LVEL    =     F    velocity operator in full k-point grid
   LINTERFAST=   F  fast interpolation
   KINTER  =     0    interpolate to denser k-point grid
   CSHIFT  =0.1000    complex shift for real part using Kramers Kronig
   OMEGAMAX=  -1.0    maximum frequency
   DEG_THRESHOLD= 0.2000000E-02 threshold for treating states as degnerate
   RTIME   =   -0.100 relaxation time in fs
  (WPLASMAI=    0.000 imaginary part of plasma frequency in eV, 0.658/RTIME)
   DFIELD  = 0.0000000 0.0000000 0.0000000 field for delta impulse in time
 
 Orbital magnetization related:
   ORBITALMAG=     F  switch on orbital magnetization
   LCHIMAG   =     F  perturbation theory with respect to B field
   DQ        =  0.001000  dq finite difference perturbation B field
   LLRAUG    =     F  two centre corrections for induced B field



--------------------------------------------------------------------------------------------------------


 quasi-Newton-method for relaxation of ions
 charge density and potential will be updated during run
 spin polarized calculation
 Variant of blocked Davidson
 Davidson routine will perform the subspace rotation
 perform sub-space diagonalisation
    after iterative eigenvector-optimisation
 modified Broyden-mixing scheme, WC =      100.0
 initial mixing is a Kerker type mixing with AMIX =  0.4000 and BMIX =      1.0000
 Hartree-type preconditioning will be used
 using additional bands          102
 real space projection scheme for non local part
 use partial core corrections
 calculate Harris-corrections to forces 
   (improved forces if not selfconsistent)
 use gradient corrections 
 use of overlap-Matrix (Vanderbilt PP)
 Gauss-broadening in eV      SIGMA  =   0.05


--------------------------------------------------------------------------------------------------------


  energy-cutoff  :      500.00
  volume of cell :      889.93
      direct lattice vectors                 reciprocal lattice vectors
    -4.262110525  7.382191979  0.000000000    -0.000209617  0.135340098 -0.000073499
     0.013290484  0.007673254 14.091564790    -0.000067535 -0.000038992  0.070964525
     8.547157638  0.013242421  0.008141404     0.116893537  0.067488515 -0.000146998

  length of vectors
     8.524221052 14.091573146  8.547171774     0.135340281  0.070964567  0.134977110


 
 k-points in units of 2pi/SCALE and weight: Automatic mesh                          
   0.00000000  0.00000000  0.00000000       1.000
 
 k-points in reciprocal lattice and weights: Automatic mesh                          
   0.00000000  0.00000000  0.00000000       1.000
 
 position of ions in fractional coordinates (direct lattice) 
   0.99626950  0.50063113  0.99066708
   0.11560042  0.83356009  0.22163791
   0.22290087  0.16643033  0.11246841
   0.32773091  0.50063113  0.99066708
   0.43937082  0.83356009  0.22163791
   0.56062918  0.16643991  0.11169542
   0.66577884  0.49972374  0.99822433
   0.77709913  0.83356967  0.22086492
   0.88439958  0.16643991  0.11169542
   0.00373050  0.49936887  0.34266625
   0.12097533  0.83345183  0.56449073
   0.22005106  0.16720903  0.45185481
   0.33422116  0.50027626  0.33510900
   0.56513709  0.16720903  0.45185481
   0.67226909  0.49936887  0.34266625
   0.77684873  0.83345183  0.56449073
   0.22315127  0.16654817  0.76884261
   0.32215666  0.50000000  0.66666667
   0.43486291  0.83279097  0.88147852
   0.67784334  0.50000000  0.66666667
   0.77994894  0.83279097  0.88147852
   0.87902467  0.16654817  0.76884261
   0.00240896  0.99764842  0.00062588
   0.11140824  0.33459824  0.22047582
   0.22178960  0.66784726  0.11024587
   0.33155024  0.99764842  0.00062588
   0.44240091  0.33459824  0.22047582
   0.55759909  0.66540176  0.11285751
   0.66593439  0.00092505  0.99853544
   0.77821040  0.33215274  0.22308746
   0.88859176  0.66540176  0.11285751
   0.99759104  0.00235158  0.33270745
   0.10835068  0.33390096  0.55515283
   0.22416623  0.66895535  0.44369031
   0.33406561  0.99907495  0.33479789
   0.44474664  0.33179741  0.55615996
   0.55285742  0.66895535  0.44369031
   0.66844976  0.00235158  0.33270745
   0.78013548  0.33390096  0.55515283
   0.88819703  0.66431489  0.44306073
   0.00000000  0.00000000  0.66666667
   0.11180297  0.33568511  0.89027260
   0.21986452  0.66609904  0.77818051
   0.33637321  0.00000000  0.66666667
   0.44714258  0.33104465  0.88964302
   0.55525336  0.66820259  0.77717338
   0.66362679  0.00000000  0.66666667
   0.77583377  0.33104465  0.88964302
   0.89164932  0.66609904  0.77818051
   0.99520153  0.73598050  0.00685266
   0.99711524  0.26060580  0.00082957
   0.10831773  0.07345003  0.22279510
   0.11098780  0.59298921  0.22160506
   0.22124990  0.40612068  0.10916646
   0.22664090  0.93003938  0.11994846
   0.34498446  0.73598050  0.00685266
   0.33704766  0.26060580  0.00082957
   0.44781069  0.07345003  0.22279510
   0.44395058  0.59298921  0.22160506
   0.55604942  0.40701079  0.11172827
   0.55218931  0.92654997  0.11053823
   0.66616053  0.73805061  0.99898772
   0.67014413  0.26275074  0.00695492
   0.77335910  0.06996062  0.21338487
   0.77875010  0.59387932  0.22416687
   0.88901220  0.40701079  0.11172827
   0.89168227  0.92654997  0.11053823
   0.00288476  0.73939420  0.33250376
   0.00479847  0.26401950  0.32648067
   0.12176512  0.07063485  0.56090327
   0.11663955  0.59615846  0.54770527
   0.22018085  0.40701948  0.44271456
   0.21137592  0.93087044  0.44035928
   0.32985587  0.73724926  0.32637841
   0.33383947  0.26194939  0.33434561
   0.44076652  0.06872554  0.54819972
   0.44449852  0.59674268  0.55566372
   0.55586705  0.40701948  0.44271456
   0.56231670  0.93087044  0.44035928
   0.66295234  0.73939420  0.33250376
   0.65501554  0.26401950  0.32648067
   0.77247148  0.07063485  0.56090327
   0.76439905  0.59615846  0.54770527
   0.88607933  0.40197024  0.43882532
   0.88960390  0.93034410  0.44587445
   0.99397359  0.73386771  0.65461385
   0.00602641  0.26613229  0.67871949
   0.11039610  0.06965590  0.88745888
   0.11392067  0.59802976  0.89450801
   0.23560095  0.40384154  0.78562807
   0.22752852  0.92936515  0.77243007
   0.32783651  0.73649232  0.67281087
   0.32169230  0.26350768  0.66052247
   0.43768330  0.06912956  0.89297405
   0.44413295  0.59298052  0.89061877
   0.55550148  0.40325732  0.77766962
   0.55923348  0.93127446  0.78513362
   0.67830770  0.73649232  0.67281087
   0.67216349  0.26350768  0.66052247
   0.78862408  0.06912956  0.89297405
   0.77981915  0.59298052  0.89061877
   0.88336045  0.40384154  0.78562807
   0.87823488  0.92936515  0.77243007
 
 position of ions in cartesian coordinates  (Angst):
   4.22783061  7.37161301  7.06274143
   1.41275081  0.86271563 11.74797046
   0.01346903  1.64826343  2.34617943
   7.07721597  2.43633280  7.06274143
   0.03280558  3.25285088 11.74797046
  -1.43257310  4.14142849  2.34630813
   5.70099928  4.93196063  7.05001641
  -1.41323655  5.74601594 11.74809916
  -2.81251833  6.53156374  2.34630813
   2.91955951  0.03590878  7.03967857
   4.32025801  0.90693362 11.74923621
   2.92641464  1.63172586  2.35991561
   1.44639084  2.47556117  7.05240359
   1.45561984  4.17921718  2.35991561
   0.07017415  4.97118900  7.03967857
   1.52485308  5.74871698 11.74923621
   5.62253712  1.65880482  2.35318379
   4.33168307  2.39088722  7.05121000
   5.69177027  3.22830461 11.74250438
   2.81570713  5.01663458  7.05121000
   4.22097547  5.77579594 11.74250438
   2.82713219  6.50058817  2.35318379
   0.00834147  0.02544690 14.05843244
   1.41405433  0.82792411  4.71680776
   0.00587305  1.64387789  9.41191049
  -1.39449504  2.45523102 14.05843244
   0.00332699  3.27137554  4.71680776
  -1.40309451  4.12290383  9.37747083
   5.69636614  4.92928564  0.02116488
  -1.40564058  5.75040148  4.68236810
  -2.81382185  6.56635527  9.37747083
  -1.40810899  7.36883247  0.03584615
   4.28761388  0.80977920  4.70970673
   2.84576051  1.66584674  9.43023992
   1.45102398  2.47823616 14.08125511
   2.86243726  3.29311595  4.68007262
   1.44484233  4.09230821  9.43023992
  -0.00527248  4.93904835  0.03584615
   1.42439282  5.76902356  4.70970673
   0.01014506  6.56780564  9.36484345
   5.69810512  0.00882828  0.00542760
   7.13724506  0.83971615  4.73757655
   5.72299738  1.63849824  9.39271326
   4.26444532  2.49199989  0.00542760
   5.70254778  3.31521359  4.67218008
   4.28495294  4.11440585  9.42234737
   2.86965439  4.90784865  0.00542760
   4.30162960  5.74167505  4.67218008
   2.85977632  6.59774260  9.39271326
  -4.17330661  7.35250686 10.37117269
  -4.23926132  7.36290681  3.67235027
   1.44357889  0.80313622  1.03683972
   1.42893222  0.82681799  8.35795005
  -0.00453104  1.63787113  5.72376464
   0.07161050  1.68183147 13.10668673
  -1.40200960  2.55247962 10.37117269
  -1.42598034  2.49016121  3.67235027
  -0.00337763  3.30933843  1.03683972
   0.00980806  3.28481316  8.35795005
  -1.40957558  4.10946622  5.73632854
  -1.39638990  4.08494094 13.05743887
   5.70906476  4.93661719 10.40842115
  -2.79329147  4.94924087  3.70262570
  -1.47137803  5.71244790  0.98759186
  -1.39523648  5.75640824  8.37051395
  -2.82869975  6.56746138  5.73632854
  -2.84334641  6.59114315 13.05743887
   2.83949379  0.03137257 10.42192832
   2.77353909  0.04177251  3.72310590
   4.27609104  0.90686321  0.99992211
   4.19211586  0.87288297  8.40526465
   2.85092550  1.63440308  5.73914569
   2.87528437  1.57339185 13.12100626
   1.39352394  2.44503850 10.39165289
   1.43832535  2.47090461  3.69399884
   2.80786720  3.26160991  0.97291352
   2.86277459  3.29331070  8.41356202
   1.42019381  4.11250305  5.73914569
   1.37953598  4.16410406 13.12100626
   0.02621281  4.90411816 10.42192832
   0.00224207  4.84179975  3.72310590
   1.50270861  5.71050248  0.99992211
   1.43129328  5.65476796  8.40526465
  -0.02051647  6.55010325  5.66796233
   0.03173379  6.58027000 13.11363421
   1.36841593  7.35200369 10.34667386
   5.77897427  0.05551811  3.75574614
   7.11565633  0.82725180  0.98878579
   7.16790659  0.85741854  8.43445766
   5.71609692  1.75275384  5.69715534
   5.64468159  1.69701931 13.10249789
   4.36313347  2.43471299 10.38380687
   4.27800368  2.38556320  3.71861313
   5.76785414  3.24341773  0.98141374
   5.72719630  3.29501874  8.36327430
   4.28461561  4.11421109  5.68885797
   4.33952300  4.14591189 13.12950648
   2.86938652  5.02195860 10.38380687
   2.78425673  4.97280880  3.71861313
   4.27210575  5.83412995  0.98141374
   4.29646461  5.77311871  8.36327430
   2.95527434  6.53463883  5.69715534
   2.87129916  6.50065859 13.10249789
 


--------------------------------------------------------------------------------------------------------


 use serial FFT for orbitals x direction half grid
 k-point  1 :   0.0000 0.0000 0.0000  plane waves:   11285

 maximum and minimum number of plane-waves per node :     11285    11285

 maximum number of plane-waves:     11285
 maximum index in each direction: 
   IXMAX=   15   IYMAX=   25   IZMAX=   13
   IXMIN=    0   IYMIN=  -25   IZMIN=  -15

 The following grids will avoid any aliasing or wrap around errors in the Hartre
 e energy
  - symmetry arguments have not been applied
  - exchange correlation energies might require even more grid points
  - we recommend to set PREC=Normal or Accurate and rely on VASP defaults
 NGX is ok and might be reduce to    64
 NGY is ok and might be reduce to   108
 NGZ is ok and might be reduce to    60

 serial   3D FFT for wavefunctions
 parallel 3D FFT for charge:
    minimum data exchange during FFTs selected (reduces bandwidth)


 total amount of memory used by VASP MPI-rank0   146905. kBytes
=======================================================================

   base      :      30000. kBytes
   nonlr-proj:      40414. kBytes
   fftplans  :       9349. kBytes
   grid      :      55332. kBytes
   one-center:       1601. kBytes
   wavefun   :      10209. kBytes
 
     INWAV:  cpu time    0.0000: real time    0.0000
 Broyden mixing: mesh for mixing (old mesh)
   NGX = 31   NGY = 51   NGZ = 31
  (NGX  =128   NGY  =216   NGZ  =128)
  gives a total of  49011 points

 initial charge density was supplied:
 charge density of overlapping atoms calculated
 number of electron     660.0000000 magnetization      67.5000000
 keeping initial charge density in first step


--------------------------------------------------------------------------------------------------------


 Maximum index for non-local projection operator         6484
 Maximum index for augmentation-charges         1077 (set IRDMAX)


--------------------------------------------------------------------------------------------------------


 First call to EWALD:  gamma=   0.184
 Maximum number of real-space cells 3x 2x 3
 Maximum number of reciprocal cells 2x 4x 2

    FEWALD:  cpu time    0.0040: real time    0.0041


--------------------------------------- Iteration      1(   1)  ---------------------------------------


    POTLOK:  cpu time    0.2595: real time    0.2614
    SETDIJ:  cpu time    0.0307: real time    0.0308
     EDDAV:  cpu time    4.8587: real time    4.8926
    --------------------------------------------
      LOOP:  cpu time    5.1495: real time    5.1855

 eigenvalue-minimisations  :  1760
 total energy-change (2. order) : 0.1185425E+05  (-0.3023258E+05)
 number of electron     660.0000000 magnetization      67.5000000
 augmentation part      660.0000000 magnetization      67.5000000

 Free energy of the ion-electron system (eV)
  ---------------------------------------------------
  alpha Z        PSCENC =      2073.89635875
  Ewald energy   TEWEN  =    -40715.88836716
  -Hartree energ DENC   =    -17319.99566683
  -exchange      EXHF   =         0.00000000
  -V(xc)+E(xc)   XCENC  =      2694.40077618
  PAW double counting   =     46412.19726292   -48629.89869309
  entropy T*S    EENTRO =        -0.02672922
  eigenvalues    EBANDS =     10581.60654766
  atomic energy  EATOM  =     56757.95358879
  Solvation  Ediel_sol  =         0.00000000
  ---------------------------------------------------
  free energy    TOTEN  =     11854.24507801 eV

  energy without entropy =    11854.27180723  energy(sigma->0) =    11854.25844262


--------------------------------------------------------------------------------------------------------




--------------------------------------- Iteration      1(   2)  ---------------------------------------


     EDDAV:  cpu time    4.8505: real time    4.8621
    --------------------------------------------
      LOOP:  cpu time    4.8503: real time    4.8619

 eigenvalue-minimisations  :  1760
 total energy-change (2. order) :-0.9570531E+04  (-0.8836392E+04)
 number of electron     660.0000000 magnetization      67.5000000
 augmentation part      660.0000000 magnetization      67.5000000

 Free energy of the ion-electron system (eV)
  ---------------------------------------------------
  alpha Z        PSCENC =      2073.89635875
  Ewald energy   TEWEN  =    -40715.88836716
  -Hartree energ DENC   =    -17319.99566683
  -exchange      EXHF   =         0.00000000
  -V(xc)+E(xc)   XCENC  =      2694.40077618
  PAW double counting   =     46412.19726292   -48629.89869309
  entropy T*S    EENTRO =        -0.02613909
  eigenvalues    EBANDS =      1011.07489290
  atomic energy  EATOM  =     56757.95358879
  Solvation  Ediel_sol  =         0.00000000
  ---------------------------------------------------
  free energy    TOTEN  =      2283.71401339 eV

  energy without entropy =     2283.74015247  energy(sigma->0) =     2283.72708293


--------------------------------------------------------------------------------------------------------




--------------------------------------- Iteration      1(   3)  ---------------------------------------


     EDDAV:  cpu time    5.1121: real time    5.1243
    --------------------------------------------
      LOOP:  cpu time    5.1121: real time    5.1243

 eigenvalue-minimisations  :  1888
 total energy-change (2. order) :-0.2606213E+04  (-0.2218465E+04)
 number of electron     660.0000000 magnetization      67.5000000
 augmentation part      660.0000000 magnetization      67.5000000

 Free energy of the ion-electron system (eV)
  ---------------------------------------------------
  alpha Z        PSCENC =      2073.89635875
  Ewald energy   TEWEN  =    -40715.88836716
  -Hartree energ DENC   =    -17319.99566683
  -exchange      EXHF   =         0.00000000
  -V(xc)+E(xc)   XCENC  =      2694.40077618
  PAW double counting   =     46412.19726292   -48629.89869309
  entropy T*S    EENTRO =        -0.10787131
  eigenvalues    EBANDS =     -1595.05650337
  atomic energy  EATOM  =     56757.95358879
  Solvation  Ediel_sol  =         0.00000000
  ---------------------------------------------------
  free energy    TOTEN  =      -322.49911510 eV

  energy without entropy =     -322.39124379  energy(sigma->0) =     -322.44517945


--------------------------------------------------------------------------------------------------------




--------------------------------------- Iteration      1(   4)  ---------------------------------------


     EDDAV:  cpu time    5.5106: real time    5.5237
    --------------------------------------------
      LOOP:  cpu time    5.5106: real time    5.5237

 eigenvalue-minimisations  :  2080
 total energy-change (2. order) :-0.4584454E+03  (-0.4376914E+03)
 number of electron     660.0000000 magnetization      67.5000000
 augmentation part      660.0000000 magnetization      67.5000000

 Free energy of the ion-electron system (eV)
  ---------------------------------------------------
  alpha Z        PSCENC =      2073.89635875
  Ewald energy   TEWEN  =    -40715.88836716
  -Hartree energ DENC   =    -17319.99566683
  -exchange      EXHF   =         0.00000000
  -V(xc)+E(xc)   XCENC  =      2694.40077618
  PAW double counting   =     46412.19726292   -48629.89869309
  entropy T*S    EENTRO =        -0.19813851
  eigenvalues    EBANDS =     -2053.41167807
  atomic energy  EATOM  =     56757.95358879
  Solvation  Ediel_sol  =         0.00000000
  ---------------------------------------------------
  free energy    TOTEN  =      -780.94455701 eV

  energy without entropy =     -780.74641849  energy(sigma->0) =     -780.84548775


--------------------------------------------------------------------------------------------------------




--------------------------------------- Iteration      1(   5)  ---------------------------------------


     EDDAV:  cpu time    6.8266: real time    6.8430
    CHARGE:  cpu time    0.3528: real time    0.3536
    MIXING:  cpu time    0.0051: real time    0.0051
    --------------------------------------------
      LOOP:  cpu time    7.1842: real time    7.2014

 eigenvalue-minimisations  :  2720
 total energy-change (2. order) :-0.2828542E+02  (-0.2798943E+02)
 number of electron     659.9999938 magnetization      72.4074292
 augmentation part      201.0502662 magnetization      51.0514519

 Broyden mixing:
  rms(total) = 0.14482E+02    rms(broyden)= 0.14480E+02
  rms(prec ) = 0.15995E+02
  weight for this iteration     100.00

 Free energy of the ion-electron system (eV)
  ---------------------------------------------------
  alpha Z        PSCENC =      2073.89635875
  Ewald energy   TEWEN  =    -40715.88836716
  -Hartree energ DENC   =    -17319.99566683
  -exchange      EXHF   =         0.00000000
  -V(xc)+E(xc)   XCENC  =      2694.40077618
  PAW double counting   =     46412.19726292   -48629.89869309
  entropy T*S    EENTRO =        -0.19329807
  eigenvalues    EBANDS =     -2081.70193418
  atomic energy  EATOM  =     56757.95358879
  Solvation  Ediel_sol  =         0.00000000
  ---------------------------------------------------
  free energy    TOTEN  =      -809.22997268 eV

  energy without entropy =     -809.03667461  energy(sigma->0) =     -809.13332365


--------------------------------------------------------------------------------------------------------




--------------------------------------- Iteration      1(   6)  ---------------------------------------


    POTLOK:  cpu time    0.2255: real time    0.2261
    SETDIJ:  cpu time    0.0317: real time    0.0318
     EDDAV:  cpu time    6.6801: real time    6.6959
    CHARGE:  cpu time    0.3455: real time    0.3464
    MIXING:  cpu time    0.0052: real time    0.0053
    --------------------------------------------
      LOOP:  cpu time    7.2880: real time    7.3054

 eigenvalue-minimisations  :  2672
 total energy-change (2. order) : 0.2924657E+01  (-0.1605957E+03)
 number of electron     659.9999931 magnetization      67.4950024
 augmentation part      247.5956509 magnetization      66.8998639

 Broyden mixing:
  rms(total) = 0.24872E+02    rms(broyden)= 0.24871E+02
  rms(prec ) = 0.26238E+02
  weight for this iteration     100.00

 eigenvalues of (default mixing * dielectric matrix)
  average eigenvalue GAMMA=   0.2587
  0.2587

 Free energy of the ion-electron system (eV)
  ---------------------------------------------------
  alpha Z        PSCENC =      2073.89635875
  Ewald energy   TEWEN  =    -40715.88836716
  -Hartree energ DENC   =    -16544.53170196
  -exchange      EXHF   =         0.00000000
  -V(xc)+E(xc)   XCENC  =      2731.23773520
  PAW double counting   =     50799.38489879   -52744.22359320
  entropy T*S    EENTRO =        -0.08428835
  eigenvalues    EBANDS =     -3164.04994687
  atomic energy  EATOM  =     56757.95358879
  Solvation  Ediel_sol  =         0.00000000
  ---------------------------------------------------
  free energy    TOTEN  =      -806.30531600 eV

  energy without entropy =     -806.22102765  energy(sigma->0) =     -806.26317183


--------------------------------------------------------------------------------------------------------




--------------------------------------- Iteration      1(   7)  ---------------------------------------


    POTLOK:  cpu time    0.2254: real time    0.2259
    SETDIJ:  cpu time    0.0315: real time    0.0316
     EDDAV:  cpu time    6.0832: real time    6.0977
    CHARGE:  cpu time    0.3457: real time    0.3465
    MIXING:  cpu time    0.0058: real time    0.0058
    --------------------------------------------
      LOOP:  cpu time    6.6916: real time    6.7075

 eigenvalue-minimisations  :  2384
 total energy-change (2. order) : 0.1546416E+03  (-0.4844541E+02)
 number of electron     659.9999932 magnetization      61.7821727
 augmentation part      232.2721045 magnetization      54.9599542

 Broyden mixing:
  rms(total) = 0.10533E+02    rms(broyden)= 0.10532E+02
  rms(prec ) = 0.11594E+02
  weight for this iteration     100.00

 eigenvalues of (default mixing * dielectric matrix)
  average eigenvalue GAMMA=   0.4777
  0.4777  0.4777

 Free energy of the ion-electron system (eV)
  ---------------------------------------------------
  alpha Z        PSCENC =      2073.89635875
  Ewald energy   TEWEN  =    -40715.88836716
  -Hartree energ DENC   =    -16806.17153973
  -exchange      EXHF   =         0.00000000
  -V(xc)+E(xc)   XCENC  =      2702.60080756
  PAW double counting   =     52653.12726024   -54771.89837906
  entropy T*S    EENTRO =        -0.07516626
  eigenvalues    EBANDS =     -2545.20828703
  atomic energy  EATOM  =     56757.95358879
  Solvation  Ediel_sol  =         0.00000000
  ---------------------------------------------------
  free energy    TOTEN  =      -651.66372389 eV

  energy without entropy =     -651.58855763  energy(sigma->0) =     -651.62614076


--------------------------------------------------------------------------------------------------------




--------------------------------------- Iteration      1(   8)  ---------------------------------------


    POTLOK:  cpu time    0.2250: real time    0.2255
    SETDIJ:  cpu time    0.0316: real time    0.0317
     EDDAV:  cpu time    6.6003: real time    6.6159
    CHARGE:  cpu time    0.3422: real time    0.3431
    MIXING:  cpu time    0.0057: real time    0.0057
    --------------------------------------------
      LOOP:  cpu time    7.2048: real time    7.2219

 eigenvalue-minimisations  :  2624
 total energy-change (2. order) :-0.9431800E+02  (-0.1841051E+02)
 number of electron     659.9999933 magnetization      57.0389015
 augmentation part      215.8392990 magnetization      55.7292567

 Broyden mixing:
  rms(total) = 0.15216E+02    rms(broyden)= 0.15216E+02
  rms(prec ) = 0.20025E+02
  weight for this iteration     100.00

 eigenvalues of (default mixing * dielectric matrix)
  average eigenvalue GAMMA=   0.4564
  0.5865  0.5865  0.1961

 Free energy of the ion-electron system (eV)
  ---------------------------------------------------
  alpha Z        PSCENC =      2073.89635875
  Ewald energy   TEWEN  =    -40715.88836716
  -Hartree energ DENC   =    -16907.31161900
  -exchange      EXHF   =         0.00000000
  -V(xc)+E(xc)   XCENC  =      2688.08840827
  PAW double counting   =     54446.74386363   -56676.11103824
  entropy T*S    EENTRO =        -0.05876982
  eigenvalues    EBANDS =     -2413.29414839
  atomic energy  EATOM  =     56757.95358879
  Solvation  Ediel_sol  =         0.00000000
  ---------------------------------------------------
  free energy    TOTEN  =      -745.98172317 eV

  energy without entropy =     -745.92295335  energy(sigma->0) =     -745.95233826


--------------------------------------------------------------------------------------------------------




--------------------------------------- Iteration      1(   9)  ---------------------------------------


    POTLOK:  cpu time    0.2248: real time    0.2253
    SETDIJ:  cpu time    0.0322: real time    0.0323
     EDDAV:  cpu time    5.7906: real time    5.8043
    CHARGE:  cpu time    0.3418: real time    0.3426
    MIXING:  cpu time    0.0062: real time    0.0063
    --------------------------------------------
      LOOP:  cpu time    6.3956: real time    6.4108

 eigenvalue-minimisations  :  2240
 total energy-change (2. order) : 0.7266284E+02  (-0.3297222E+02)
 number of electron     659.9999940 magnetization      53.4919952
 augmentation part      218.2580590 magnetization      51.7207456

 Broyden mixing:
  rms(total) = 0.10524E+02    rms(broyden)= 0.10523E+02
  rms(prec ) = 0.11325E+02
  weight for this iteration     100.00

 eigenvalues of (default mixing * dielectric matrix)
  average eigenvalue GAMMA=   0.3986
  0.6233  0.6233  0.2171  0.1308

 Free energy of the ion-electron system (eV)
  ---------------------------------------------------
  alpha Z        PSCENC =      2073.89635875
  Ewald energy   TEWEN  =    -40715.88836716
  -Hartree energ DENC   =    -16821.05590132
  -exchange      EXHF   =         0.00000000
  -V(xc)+E(xc)   XCENC  =      2681.81972731
  PAW double counting   =     55406.45235306   -57642.35360745
  entropy T*S    EENTRO =        -0.07011487
  eigenvalues    EBANDS =     -2414.07291690
  atomic energy  EATOM  =     56757.95358879
  Solvation  Ediel_sol  =         0.00000000
  ---------------------------------------------------
  free energy    TOTEN  =      -673.31887978 eV

  energy without entropy =     -673.24876491  energy(sigma->0) =     -673.28382235


--------------------------------------------------------------------------------------------------------




--------------------------------------- Iteration      1(  10)  ---------------------------------------


    POTLOK:  cpu time    0.2250: real time    0.2255
    SETDIJ:  cpu time    0.0315: real time    0.0316
     EDDAV:  cpu time    6.5391: real time    6.5546
    CHARGE:  cpu time    0.3451: real time    0.3459
    MIXING:  cpu time    0.0059: real time    0.0059
    --------------------------------------------
      LOOP:  cpu time    7.1467: real time    7.1637

 eigenvalue-minimisations  :  2608
 total energy-change (2. order) : 0.3040632E+02  (-0.4839473E+01)
 number of electron     659.9999938 magnetization      48.3134620
 augmentation part      220.5916363 magnetization      44.2284590

 Broyden mixing:
  rms(total) = 0.69193E+01    rms(broyden)= 0.69189E+01
  rms(prec ) = 0.76916E+01
  weight for this iteration     100.00

 eigenvalues of (default mixing * dielectric matrix)
  average eigenvalue GAMMA=   0.4545
  0.7485  0.7485  0.2984  0.2984  0.1789

 Free energy of the ion-electron system (eV)
  ---------------------------------------------------
  alpha Z        PSCENC =      2073.89635875
  Ewald energy   TEWEN  =    -40715.88836716
  -Hartree energ DENC   =    -16795.56704749
  -exchange      EXHF   =         0.00000000
  -V(xc)+E(xc)   XCENC  =      2679.22977107
  PAW double counting   =     56093.17782517   -58342.60716557
  entropy T*S    EENTRO =        -0.08963058
  eigenvalues    EBANDS =     -2393.01789046
  atomic energy  EATOM  =     56757.95358879
  Solvation  Ediel_sol  =         0.00000000
  ---------------------------------------------------
  free energy    TOTEN  =      -642.91255746 eV

  energy without entropy =     -642.82292689  energy(sigma->0) =     -642.86774218


--------------------------------------------------------------------------------------------------------




--------------------------------------- Iteration      1(  11)  ---------------------------------------


    POTLOK:  cpu time    0.2263: real time    0.2268
    SETDIJ:  cpu time    0.0315: real time    0.0315
     EDDAV:  cpu time    6.0939: real time    6.1084
    CHARGE:  cpu time    0.3447: real time    0.3455
    MIXING:  cpu time    0.0061: real time    0.0061
    --------------------------------------------
      LOOP:  cpu time    6.7024: real time    6.7183

 eigenvalue-minimisations  :  2384
 total energy-change (2. order) :-0.6207585E+02  (-0.1281599E+02)
 number of electron     659.9999937 magnetization      43.5993742
 augmentation part      218.0044461 magnetization      36.2211635

 Broyden mixing:
  rms(total) = 0.13106E+02    rms(broyden)= 0.13106E+02
  rms(prec ) = 0.15897E+02
  weight for this iteration     100.00

 eigenvalues of (default mixing * dielectric matrix)
  average eigenvalue GAMMA=   0.4372
  0.8121  0.8121  0.3408  0.3408  0.1846  0.1326

 Free energy of the ion-electron system (eV)
  ---------------------------------------------------
  alpha Z        PSCENC =      2073.89635875
  Ewald energy   TEWEN  =    -40715.88836716
  -Hartree energ DENC   =    -16807.35434543
  -exchange      EXHF   =         0.00000000
  -V(xc)+E(xc)   XCENC  =      2679.23374840
  PAW double counting   =     56973.29708022   -59240.78609823
  entropy T*S    EENTRO =        -0.08331640
  eigenvalues    EBANDS =     -2425.25705539
  atomic energy  EATOM  =     56757.95358879
  Solvation  Ediel_sol  =         0.00000000
  ---------------------------------------------------
  free energy    TOTEN  =      -704.98840645 eV

  energy without entropy =     -704.90509005  energy(sigma->0) =     -704.94674825


--------------------------------------------------------------------------------------------------------




--------------------------------------- Iteration      1(  12)  ---------------------------------------


    POTLOK:  cpu time    0.2253: real time    0.2258
    SETDIJ:  cpu time    0.0315: real time    0.0316
     EDDAV:  cpu time    6.4181: real time    6.4333
    CHARGE:  cpu time    0.3443: real time    0.3451
    MIXING:  cpu time    0.0065: real time    0.0065
    --------------------------------------------
      LOOP:  cpu time    7.0257: real time    7.0424

 eigenvalue-minimisations  :  2544
 total energy-change (2. order) : 0.5932347E+02  (-0.9476307E+01)
 number of electron     659.9999938 magnetization      41.4141062
 augmentation part      218.2964231 magnetization      38.3697581

 Broyden mixing:
  rms(total) = 0.93782E+01    rms(broyden)= 0.93777E+01
  rms(prec ) = 0.11118E+02
  weight for this iteration     100.00

 eigenvalues of (default mixing * dielectric matrix)
  average eigenvalue GAMMA=   0.4215
  0.8627  0.8627  0.3697  0.3697  0.1760  0.1760  0.1338

 Free energy of the ion-electron system (eV)
  ---------------------------------------------------
  alpha Z        PSCENC =      2073.89635875
  Ewald energy   TEWEN  =    -40715.88836716
  -Hartree energ DENC   =    -16814.57026831
  -exchange      EXHF   =         0.00000000
  -V(xc)+E(xc)   XCENC  =      2679.95937013
  PAW double counting   =     57909.87491505   -60197.95736897
  entropy T*S    EENTRO =        -0.03770063
  eigenvalues    EBANDS =     -2338.89546455
  atomic energy  EATOM  =     56757.95358879
  Solvation  Ediel_sol  =         0.00000000
  ---------------------------------------------------
  free energy    TOTEN  =      -645.66493689 eV

  energy without entropy =     -645.62723626  energy(sigma->0) =     -645.64608658


--------------------------------------------------------------------------------------------------------




--------------------------------------- Iteration      1(  13)  ---------------------------------------


    POTLOK:  cpu time    0.2253: real time    0.2258
    SETDIJ:  cpu time    0.0315: real time    0.0316
     EDDAV:  cpu time    5.6819: real time    5.6954
    CHARGE:  cpu time    0.3423: real time    0.3431
    MIXING:  cpu time    0.0070: real time    0.0070
    --------------------------------------------
      LOOP:  cpu time    6.2880: real time    6.3029

 eigenvalue-minimisations  :  2176
 total energy-change (2. order) : 0.3013944E+02  (-0.2815288E+01)
 number of electron     659.9999938 magnetization      37.4085036
 augmentation part      220.2090582 magnetization      33.2343166

 Broyden mixing:
  rms(total) = 0.36427E+01    rms(broyden)= 0.36411E+01
  rms(prec ) = 0.41684E+01
  weight for this iteration     100.00

 eigenvalues of (default mixing * dielectric matrix)
  average eigenvalue GAMMA=   0.4494
  0.9865  0.9865  0.4324  0.4324  0.3308  0.1780  0.1242  0.1242

 Free energy of the ion-electron system (eV)
  ---------------------------------------------------
  alpha Z        PSCENC =      2073.89635875
  Ewald energy   TEWEN  =    -40715.88836716
  -Hartree energ DENC   =    -16818.97066753
  -exchange      EXHF   =         0.00000000
  -V(xc)+E(xc)   XCENC  =      2680.18626153
  PAW double counting   =     58224.85295960   -60522.29665267
  entropy T*S    EENTRO =        -0.11021228
  eigenvalues    EBANDS =     -2295.14876935
  atomic energy  EATOM  =     56757.95358879
  Solvation  Ediel_sol  =         0.00000000
  ---------------------------------------------------
  free energy    TOTEN  =      -615.52550031 eV

  energy without entropy =     -615.41528803  energy(sigma->0) =     -615.47039417


--------------------------------------------------------------------------------------------------------




--------------------------------------- Iteration      1(  14)  ---------------------------------------


    POTLOK:  cpu time    0.2248: real time    0.2253
    SETDIJ:  cpu time    0.0315: real time    0.0316
     EDDAV:  cpu time    5.7643: real time    5.7780
    CHARGE:  cpu time    0.3464: real time    0.3472
    MIXING:  cpu time    0.0070: real time    0.0070
    --------------------------------------------
      LOOP:  cpu time    6.3740: real time    6.3891

 eigenvalue-minimisations  :  2224
 total energy-change (2. order) :-0.4732355E+01  (-0.3851571E+01)
 number of electron     659.9999937 magnetization      35.3614892
 augmentation part      218.9707409 magnetization      29.3740699

 Broyden mixing:
  rms(total) = 0.54109E+01    rms(broyden)= 0.54099E+01
  rms(prec ) = 0.62983E+01
  weight for this iteration     100.00

 eigenvalues of (default mixing * dielectric matrix)
  average eigenvalue GAMMA=   0.4166
  1.2021  0.7583  0.4351  0.4351  0.3281  0.1916  0.1545  0.1224  0.1224

 Free energy of the ion-electron system (eV)
  ---------------------------------------------------
  alpha Z        PSCENC =      2073.89635875
  Ewald energy   TEWEN  =    -40715.88836716
  -Hartree energ DENC   =    -16832.54966160
  -exchange      EXHF   =         0.00000000
  -V(xc)+E(xc)   XCENC  =      2679.56290802
  PAW double counting   =     58686.56910375   -60991.11368967
  entropy T*S    EENTRO =        -0.05592904
  eigenvalues    EBANDS =     -2278.63216705
  atomic energy  EATOM  =     56757.95358879
  Solvation  Ediel_sol  =         0.00000000
  ---------------------------------------------------
  free energy    TOTEN  =      -620.25785520 eV

  energy without entropy =     -620.20192616  energy(sigma->0) =     -620.22989068


--------------------------------------------------------------------------------------------------------




--------------------------------------- Iteration      1(  15)  ---------------------------------------


    POTLOK:  cpu time    0.2252: real time    0.2258
    SETDIJ:  cpu time    0.0316: real time    0.0317
     EDDAV:  cpu time    6.0923: real time    6.1067
    CHARGE:  cpu time    0.3446: real time    0.3455
    MIXING:  cpu time    0.0075: real time    0.0075
    --------------------------------------------
      LOOP:  cpu time    6.7013: real time    6.7172

 eigenvalue-minimisations  :  2384
 total energy-change (2. order) : 0.5756157E+01  (-0.2797196E+01)
 number of electron     659.9999938 magnetization      33.3664154
 augmentation part      219.6673337 magnetization      29.6101003

 Broyden mixing:
  rms(total) = 0.26087E+01    rms(broyden)= 0.26075E+01
  rms(prec ) = 0.31040E+01
  weight for this iteration     100.00

 eigenvalues of (default mixing * dielectric matrix)
  average eigenvalue GAMMA=   0.4176
  1.1862  0.7786  0.4621  0.4621  0.3802  0.3802  0.1537  0.1324  0.1324  0.1083

 Free energy of the ion-electron system (eV)
  ---------------------------------------------------
  alpha Z        PSCENC =      2073.89635875
  Ewald energy   TEWEN  =    -40715.88836716
  -Hartree energ DENC   =    -16825.71261504
  -exchange      EXHF   =         0.00000000
  -V(xc)+E(xc)   XCENC  =      2678.91663477
  PAW double counting   =     59007.04766699   -61314.68820417
  entropy T*S    EENTRO =        -0.13453448
  eigenvalues    EBANDS =     -2275.89222675
  atomic energy  EATOM  =     56757.95358879
  Solvation  Ediel_sol  =         0.00000000
  ---------------------------------------------------
  free energy    TOTEN  =      -614.50169829 eV

  energy without entropy =     -614.36716382  energy(sigma->0) =     -614.43443106


--------------------------------------------------------------------------------------------------------




--------------------------------------- Iteration      1(  16)  ---------------------------------------


    POTLOK:  cpu time    0.2254: real time    0.2260
    SETDIJ:  cpu time    0.0315: real time    0.0316
     EDDAV:  cpu time    5.9825: real time    5.9967
    CHARGE:  cpu time    0.3424: real time    0.3433
    MIXING:  cpu time    0.0074: real time    0.0074
    --------------------------------------------
      LOOP:  cpu time    6.5892: real time    6.6049

 eigenvalue-minimisations  :  2320
 total energy-change (2. order) :-0.1220509E+01  (-0.1432823E+01)
 number of electron     659.9999938 magnetization      30.1612656
 augmentation part      219.4380532 magnetization      24.6872745

 Broyden mixing:
  rms(total) = 0.25520E+01    rms(broyden)= 0.25513E+01
  rms(prec ) = 0.28259E+01
  weight for this iteration     100.00

 eigenvalues of (default mixing * dielectric matrix)
  average eigenvalue GAMMA=   0.4200
  1.3896  0.5439  0.5439  0.4964  0.4748  0.4748  0.1724  0.1724  0.1206  0.1206
  0.1110

 Free energy of the ion-electron system (eV)
  ---------------------------------------------------
  alpha Z        PSCENC =      2073.89635875
  Ewald energy   TEWEN  =    -40715.88836716
  -Hartree energ DENC   =    -16829.58301551
  -exchange      EXHF   =         0.00000000
  -V(xc)+E(xc)   XCENC  =      2678.56345860
  PAW double counting   =     59192.88247328   -61501.59165829
  entropy T*S    EENTRO =        -0.04243581
  eigenvalues    EBANDS =     -2271.91260963
  atomic energy  EATOM  =     56757.95358879
  Solvation  Ediel_sol  =         0.00000000
  ---------------------------------------------------
  free energy    TOTEN  =      -615.72220695 eV

  energy without entropy =     -615.67977115  energy(sigma->0) =     -615.70098905


--------------------------------------------------------------------------------------------------------




--------------------------------------- Iteration      1(  17)  ---------------------------------------


    POTLOK:  cpu time    0.2253: real time    0.2258
    SETDIJ:  cpu time    0.0324: real time    0.0324
     EDDAV:  cpu time    5.9426: real time    5.9568
    CHARGE:  cpu time    0.3421: real time    0.3429
    MIXING:  cpu time    0.0082: real time    0.0082
    --------------------------------------------
      LOOP:  cpu time    6.5504: real time    6.5661

 eigenvalue-minimisations  :  2288
 total energy-change (2. order) :-0.4405588E+00  (-0.3968449E+00)
 number of electron     659.9999938 magnetization      28.3248138
 augmentation part      219.4538385 magnetization      21.8541048

 Broyden mixing:
  rms(total) = 0.24287E+01    rms(broyden)= 0.24279E+01
  rms(prec ) = 0.26435E+01
  weight for this iteration     100.00

 eigenvalues of (default mixing * dielectric matrix)
  average eigenvalue GAMMA=   0.4368
  1.5649  0.6761  0.6761  0.4426  0.4426  0.3902  0.3902  0.1599  0.1465  0.1229
  0.1229  0.1063

 Free energy of the ion-electron system (eV)
  ---------------------------------------------------
  alpha Z        PSCENC =      2073.89635875
  Ewald energy   TEWEN  =    -40715.88836716
  -Hartree energ DENC   =    -16829.41845271
  -exchange      EXHF   =         0.00000000
  -V(xc)+E(xc)   XCENC  =      2678.05485554
  PAW double counting   =     59555.88821813   -61866.75405652
  entropy T*S    EENTRO =        -0.03703897
  eigenvalues    EBANDS =     -2269.85787162
  atomic energy  EATOM  =     56757.95358879
  Solvation  Ediel_sol  =         0.00000000
  ---------------------------------------------------
  free energy    TOTEN  =      -616.16276575 eV

  energy without entropy =     -616.12572678  energy(sigma->0) =     -616.14424626


--------------------------------------------------------------------------------------------------------




--------------------------------------- Iteration      1(  18)  ---------------------------------------


    POTLOK:  cpu time    0.2254: real time    0.2259
    SETDIJ:  cpu time    0.0315: real time    0.0316
     EDDAV:  cpu time    5.8842: real time    5.8982
    CHARGE:  cpu time    0.3424: real time    0.3432
    MIXING:  cpu time    0.0080: real time    0.0080
    --------------------------------------------
      LOOP:  cpu time    6.4915: real time    6.5069

 eigenvalue-minimisations  :  2272
 total energy-change (2. order) :-0.1133961E+01  (-0.5052718E+00)
 number of electron     659.9999938 magnetization      25.8829778
 augmentation part      219.2987459 magnetization      20.0614539

 Broyden mixing:
  rms(total) = 0.18284E+01    rms(broyden)= 0.18278E+01
  rms(prec ) = 0.20578E+01
  weight for this iteration     100.00

 eigenvalues of (default mixing * dielectric matrix)
  average eigenvalue GAMMA=   0.4640
  1.7378  0.8508  0.8508  0.4302  0.4302  0.3896  0.3896  0.3161  0.1616  0.1254
  0.1254  0.1231  0.1016

 Free energy of the ion-electron system (eV)
  ---------------------------------------------------
  alpha Z        PSCENC =      2073.89635875
  Ewald energy   TEWEN  =    -40715.88836716
  -Hartree energ DENC   =    -16831.17061675
  -exchange      EXHF   =         0.00000000
  -V(xc)+E(xc)   XCENC  =      2677.58497511
  PAW double counting   =     59817.54744653   -62131.95412088
  entropy T*S    EENTRO =        -0.05687316
  eigenvalues    EBANDS =     -2265.20911779
  atomic energy  EATOM  =     56757.95358879
  Solvation  Ediel_sol  =         0.00000000
  ---------------------------------------------------
  free energy    TOTEN  =      -617.29672655 eV

  energy without entropy =     -617.23985339  energy(sigma->0) =     -617.26828997


--------------------------------------------------------------------------------------------------------




--------------------------------------- Iteration      1(  19)  ---------------------------------------


    POTLOK:  cpu time    0.2255: real time    0.2260
    SETDIJ:  cpu time    0.0317: real time    0.0318
     EDDAV:  cpu time    6.0147: real time    6.0290
    CHARGE:  cpu time    0.3417: real time    0.3425
    MIXING:  cpu time    0.0081: real time    0.0081
    --------------------------------------------
      LOOP:  cpu time    6.6217: real time    6.6374

 eigenvalue-minimisations  :  2336
 total energy-change (2. order) :-0.1824862E+01  (-0.7148968E+00)
 number of electron     659.9999938 magnetization      21.7748069
 augmentation part      219.3930659 magnetization      16.0031297

 Broyden mixing:
  rms(total) = 0.23048E+01    rms(broyden)= 0.23040E+01
  rms(prec ) = 0.25930E+01
  weight for this iteration     100.00

 eigenvalues of (default mixing * dielectric matrix)
  average eigenvalue GAMMA=   0.4876
  1.9692  0.9341  0.9341  0.4685  0.4685  0.4498  0.4498  0.3814  0.1613  0.1250
  0.1250  0.1462  0.1140  0.0989

 Free energy of the ion-electron system (eV)
  ---------------------------------------------------
  alpha Z        PSCENC =      2073.89635875
  Ewald energy   TEWEN  =    -40715.88836716
  -Hartree energ DENC   =    -16826.95196436
  -exchange      EXHF   =         0.00000000
  -V(xc)+E(xc)   XCENC  =      2677.10389040
  PAW double counting   =     60121.40544162   -62437.25159300
  entropy T*S    EENTRO =        -0.07365819
  eigenvalues    EBANDS =     -2269.31528577
  atomic energy  EATOM  =     56757.95358879
  Solvation  Ediel_sol  =         0.00000000
  ---------------------------------------------------
  free energy    TOTEN  =      -619.12158890 eV

  energy without entropy =     -619.04793071  energy(sigma->0) =     -619.08475981


--------------------------------------------------------------------------------------------------------




--------------------------------------- Iteration      1(  20)  ---------------------------------------


    POTLOK:  cpu time    0.2253: real time    0.2258
    SETDIJ:  cpu time    0.0314: real time    0.0315
     EDDAV:  cpu time    6.2468: real time    6.2616
    CHARGE:  cpu time    0.3430: real time    0.3438
    MIXING:  cpu time    0.0088: real time    0.0088
    --------------------------------------------
      LOOP:  cpu time    6.8553: real time    6.8716

 eigenvalue-minimisations  :  2448
 total energy-change (2. order) :-0.4142054E+00  (-0.2371795E+00)
 number of electron     659.9999939 magnetization      19.6857976
 augmentation part      219.6188128 magnetization      15.1045415

 Broyden mixing:
  rms(total) = 0.10848E+01    rms(broyden)= 0.10842E+01
  rms(prec ) = 0.12184E+01
  weight for this iteration     100.00

 eigenvalues of (default mixing * dielectric matrix)
  average eigenvalue GAMMA=   0.5061
  2.2474  0.8835  0.8835  0.5077  0.5077  0.5248  0.5248  0.3662  0.3662  0.1565
  0.1552  0.1251  0.1251  0.1180  0.0996

 Free energy of the ion-electron system (eV)
  ---------------------------------------------------
  alpha Z        PSCENC =      2073.89635875
  Ewald energy   TEWEN  =    -40715.88836716
  -Hartree energ DENC   =    -16826.66688018
  -exchange      EXHF   =         0.00000000
  -V(xc)+E(xc)   XCENC  =      2676.73184460
  PAW double counting   =     60574.91457736   -62893.90929996
  entropy T*S    EENTRO =        -0.08065212
  eigenvalues    EBANDS =     -2266.48696444
  atomic energy  EATOM  =     56757.95358879
  Solvation  Ediel_sol  =         0.00000000
  ---------------------------------------------------
  free energy    TOTEN  =      -619.53579434 eV

  energy without entropy =     -619.45514223  energy(sigma->0) =     -619.49546829


--------------------------------------------------------------------------------------------------------




--------------------------------------- Iteration      1(  21)  ---------------------------------------


    POTLOK:  cpu time    0.2253: real time    0.2258
    SETDIJ:  cpu time    0.0314: real time    0.0315
     EDDAV:  cpu time    5.9600: real time    5.9741
    CHARGE:  cpu time    0.3434: real time    0.3442
    MIXING:  cpu time    0.0087: real time    0.0087
    --------------------------------------------
      LOOP:  cpu time    6.5688: real time    6.5844

 eigenvalue-minimisations  :  2320
 total energy-change (2. order) :-0.5433768E+00  (-0.1490699E+00)
 number of electron     659.9999938 magnetization      18.6167909
 augmentation part      219.6377485 magnetization      14.7391407

 Broyden mixing:
  rms(total) = 0.11526E+01    rms(broyden)= 0.11523E+01
  rms(prec ) = 0.12816E+01
  weight for this iteration     100.00

 eigenvalues of (default mixing * dielectric matrix)
  average eigenvalue GAMMA=   0.4884
  2.3469  0.8140  0.8140  0.5895  0.5895  0.5040  0.5040  0.3657  0.3657  0.1614
  0.1614  0.1251  0.1251  0.1346  0.1149  0.0993

 Free energy of the ion-electron system (eV)
  ---------------------------------------------------
  alpha Z        PSCENC =      2073.89635875
  Ewald energy   TEWEN  =    -40715.88836716
  -Hartree energ DENC   =    -16828.14997147
  -exchange      EXHF   =         0.00000000
  -V(xc)+E(xc)   XCENC  =      2676.72085893
  PAW double counting   =     60700.99883788   -63019.51227105
  entropy T*S    EENTRO =        -0.04799377
  eigenvalues    EBANDS =     -2266.05021209
  atomic energy  EATOM  =     56757.95358879
  Solvation  Ediel_sol  =         0.00000000
  ---------------------------------------------------
  free energy    TOTEN  =      -620.07917119 eV

  energy without entropy =     -620.03117741  energy(sigma->0) =     -620.05517430


--------------------------------------------------------------------------------------------------------




--------------------------------------- Iteration      1(  22)  ---------------------------------------


    POTLOK:  cpu time    0.2250: real time    0.2255
    SETDIJ:  cpu time    0.0315: real time    0.0316
     EDDAV:  cpu time    5.8612: real time    5.8750
    CHARGE:  cpu time    0.3430: real time    0.3438
    MIXING:  cpu time    0.0090: real time    0.0090
    --------------------------------------------
      LOOP:  cpu time    6.4697: real time    6.4851

 eigenvalue-minimisations  :  2272
 total energy-change (2. order) :-0.2000848E-01  (-0.4288886E-01)
 number of electron     659.9999938 magnetization      17.5985408
 augmentation part      219.6590666 magnetization      14.1178468

 Broyden mixing:
  rms(total) = 0.77180E+00    rms(broyden)= 0.77166E+00
  rms(prec ) = 0.82282E+00
  weight for this iteration     100.00

 eigenvalues of (default mixing * dielectric matrix)
  average eigenvalue GAMMA=   0.4795
  2.3933  0.7502  0.7502  0.5943  0.5943  0.5422  0.5422  0.3925  0.3153  0.3153
  0.1867  0.1251  0.1251  0.1592  0.1489  0.1176  0.0994

 Free energy of the ion-electron system (eV)
  ---------------------------------------------------
  alpha Z        PSCENC =      2073.89635875
  Ewald energy   TEWEN  =    -40715.88836716
  -Hartree energ DENC   =    -16829.02349536
  -exchange      EXHF   =         0.00000000
  -V(xc)+E(xc)   XCENC  =      2676.76467697
  PAW double counting   =     60751.25022428   -63069.51441100
[...]
     -2.82060      6.53741      2.33576         0.002424     -0.008505     -0.004986
      2.91626      0.02699      7.02308         0.002791     -0.005156     -0.003197
      4.30466      0.89626     11.72877        -0.006556     -0.001644      0.013713
      2.91936      1.62738      2.34959        -0.001250     -0.004226     -0.002323
      1.44135      2.47582      7.03619         0.008684      0.005014     -0.003301
      1.44559      4.18003      2.34959        -0.004285      0.001031     -0.002323
      0.05806      4.97754      7.02308        -0.003070      0.004995     -0.003197
      1.50507      5.74530     11.72877        -0.004702     -0.004856      0.013713
      5.62154      1.65656      2.33851         0.004702      0.004856     -0.013713
      4.32460      2.38232      7.03364         0.002636     -0.004566     -0.000000
      5.68102      3.22183     11.71770         0.004285     -0.001031      0.002323
      2.80201      5.01954      7.03364        -0.002636      0.004566      0.000000
      4.20725      5.77448     11.71770         0.001250      0.004226      0.002323
      2.82195      6.50560      2.33851         0.006556      0.001644     -0.013713
     -0.00034      0.01854     14.03307         0.001731     -0.003982      0.005318
      1.40771      0.82393      4.70536        -0.001267     -0.002721     -0.001496
     -0.00396      1.64137      9.39288        -0.002780     -0.001605      0.002607
     -1.40757      2.45592     14.03307        -0.002583      0.003490      0.005318
     -0.00605      3.27263      4.70536        -0.002990      0.000263     -0.001496
     -1.41267      4.12655      9.35993         0.002990     -0.000263      0.001496
      5.68923      4.92833      0.01337         0.001746      0.001008     -0.000574
     -1.41476      5.75782      4.67241         0.002780      0.001605     -0.002607
     -2.82643      6.57526      9.35993         0.001267      0.002721      0.001496
     -1.41838      7.38065      0.03222        -0.001731      0.003982     -0.005318
      4.28497      0.80396      4.69889         0.001528     -0.001317      0.000282
      2.83601      1.65697      9.40660         0.001479     -0.003683     -0.003697
      1.43738      2.47353     14.05392        -0.001746     -0.001008      0.000574
      2.85294      3.29080      4.66959         0.001656      0.000956      0.000173
      1.42953      4.09306      9.40660        -0.002450      0.003122     -0.003697
     -0.01115      4.94327      0.03222         0.002583     -0.003490     -0.005318
      1.41529      5.77440      4.69889        -0.000376      0.001982      0.000282
     -0.00209      6.57342      9.34197         0.001430      0.000826     -0.001448
      5.69689      0.00178      0.00133        -0.000000     -0.000000      0.000000
      7.12870      0.82844      4.72532        -0.001430     -0.000826      0.001448
      5.71132      1.62746      9.36840         0.000376     -0.001982     -0.000282
      4.25916      2.49200      0.00133        -0.002113      0.003659      0.000000
      5.69708      3.30881      4.66069         0.002450     -0.003122      0.003697
      4.27367      4.11106      9.39770        -0.001656     -0.000956     -0.000173
      2.86427      4.90803      0.00133         0.002113     -0.003659     -0.000000
      4.29060      5.74490      4.66069        -0.001479      0.003683      0.003697
      2.84164      6.59790      9.36840        -0.001528      0.001317     -0.000282
     -4.19611      7.36409     10.35386         0.002352     -0.004696      0.003119
     -4.25236      7.37835      3.66302        -0.005745     -0.001975      0.003939
      1.43735      0.80837      1.03499        -0.003147     -0.000834     -0.003766
      1.42624      0.82004      8.34386         0.004158     -0.004188      0.006354
     -0.01509      1.63495      5.72124        -0.002942     -0.001699     -0.000156
      0.06091      1.67883     13.07620        -0.006145     -0.003548      0.006232
     -1.41436      2.54596     10.35386        -0.002891      0.004384      0.003119
     -1.43013      2.49012      3.66302        -0.004583     -0.003988      0.003939
     -0.00471      3.30609      1.03499        -0.002296     -0.002309     -0.003766
     -0.00015      3.29063      8.34386        -0.001547      0.005695      0.006354
     -1.41857      4.10856      5.72142         0.001547     -0.005695     -0.006354
     -1.41401      4.09310     13.03030         0.002296      0.002309      0.003766
      5.70428      4.93702     10.38343         0.011181      0.006455     -0.005278
     -2.80044      4.95779      3.69627         0.001723      0.000995      0.002423
     -1.47963      5.72036      0.98909         0.006145      0.003548     -0.006232
     -1.40363      5.76424      8.34404         0.002942      0.001699      0.000156
     -2.84496      6.57915      5.72142        -0.004158      0.004188     -0.006354
     -2.85607      6.59082     13.03030         0.003147      0.000834      0.003766
      2.83364      0.02084     10.40227         0.005745      0.001975     -0.003939
      2.77739      0.03509      3.71143        -0.002352      0.004696     -0.003119
      4.27002      0.89966      0.99459        -0.002784      0.000331     -0.007184
      4.18885      0.86331      8.38295         0.000716     -0.002286     -0.002726
      2.84667      1.62176      5.72289         0.002269     -0.008491     -0.003191
      2.85522      1.57397     13.08968        -0.006723      0.001376     -0.003980
      1.38172      2.44140     10.36902        -0.001723     -0.000995     -0.002423
      1.42233      2.46484      3.68385        -0.011181     -0.006455      0.005278
      2.80517      3.26322      0.97482         0.002453      0.001416     -0.003918
      2.84760      3.28772      8.39082        -0.011715     -0.006764     -0.003512
      1.40437      4.11990      5.72289        -0.006219      0.006211     -0.003191
      1.36726      4.15120     13.08968        -0.002170     -0.006510     -0.003980
      0.01142      4.90907     10.40227         0.004583      0.003988     -0.003939
     -0.00436      4.85323      3.71143         0.002891     -0.004384     -0.003119
      1.49069      5.71360      0.99459        -0.001105     -0.002577     -0.007184
      1.41863      5.66148      8.38295        -0.001622      0.001763     -0.002726
     -0.03282      6.55568      5.66108         0.000077      0.000044     -0.004842
      0.01426      6.58286     13.07625         0.004386      0.002532     -0.000573
      1.35624      7.35766     10.32536         0.001498      0.000865     -0.001722
      5.77037      0.04421      3.74193        -0.001498     -0.000865      0.001722
      7.11235      0.81900      0.99104        -0.004386     -0.002532      0.000573
      7.15943      0.84619      8.40621        -0.000077     -0.000044      0.004842
      5.70798      1.74039      5.68434         0.001622     -0.001763      0.002726
      5.63592      1.68827     13.07270         0.001105      0.002577      0.007184
      4.34361      2.42246     10.35778        -0.001449     -0.008177     -0.002505
      4.28034      2.38593      3.70951         0.007806     -0.002834      0.002505
      5.75935      3.25067      0.97761         0.002170      0.006510      0.003980
      5.72224      3.28196      8.34439         0.006219     -0.006211      0.003191
      4.27901      4.11414      5.67646         0.011715      0.006764      0.003512
      4.32144      4.13864     13.09247        -0.002453     -0.001416      0.003918
      2.84627      5.01593     10.35778        -0.007806      0.002834     -0.002505
      2.78300      4.97941      3.70951         0.001449      0.008177      0.002505
      4.27139      5.82790      0.97761         0.006723     -0.001376      0.003980
      4.27994      5.78011      8.34439        -0.002269      0.008491      0.003191
      2.93776      6.53855      5.68434        -0.000716      0.002286      0.002726
      2.85659      6.50220     13.07270         0.002784     -0.000331      0.007184
 -----------------------------------------------------------------------------------
    total drift:                                0.001417     -0.001477     -0.000572


--------------------------------------------------------------------------------------------------------



  FREE ENERGIE OF THE ION-ELECTRON SYSTEM (eV)
  ---------------------------------------------------
  free  energy   TOTEN  =      -621.0424189865 eV

  energy  without entropy=     -620.9859727653  energy(sigma->0) =     -621.01419588
 
 d Force = 0.8543433E-03[ 0.573E-03, 0.114E-02]  d Energy = 0.8205801E-03 0.338E-04
 d Force = 0.4002364E+01[ 0.399E+01, 0.402E+01]  d Ewald  = 0.6627027E+01-0.262E+01


--------------------------------------------------------------------------------------------------------


    POTLOK:  cpu time    0.2584: real time    0.2591


--------------------------------------------------------------------------------------------------------


 Quasi-Newton relaxation of ions (Broydens 2nd method)
  g(Force)  = 0.274E-03   g(Stress)= 0.472E-04

 retain information from N=  3 steps
 eigenvalues of (default step * inverse Hessian matrix)
  average eigenvalue of G=   1.7467
 eigenvalue spectrum of G is  2.0994  2.0994  1.0412


--------------------------------------------------------------------------------------------------------


  
 reached required accuracy - stopping structural energy minimisation
     LOOP+:  cpu time   67.2647: real time   67.5372
    4ORBIT:  cpu time    0.0000: real time    0.0000

volume of typ            1:    19.3 %

volume of typ            2:    19.3 %

volume of typ            3:     9.9 %
 
total charge     
 
# of ion       s       p       d       tot
------------------------------------------
    1        2.085   0.270   0.103   2.458
    2        2.082   0.260   0.100   2.443
    3        2.078   0.250   0.094   2.421
    4        2.085   0.270   0.103   2.458
    5        2.082   0.260   0.100   2.443
    6        2.082   0.260   0.100   2.443
    7        2.081   0.258   0.098   2.437
    8        2.078   0.250   0.094   2.421
    9        2.082   0.260   0.100   2.443
   10        2.085   0.270   0.103   2.458
   11        2.080   0.256   0.096   2.432
   12        2.081   0.257   0.097   2.435
   13        2.081   0.258   0.098   2.437
   14        2.081   0.257   0.097   2.435
   15        2.085   0.270   0.103   2.458
   16        2.080   0.256   0.096   2.432
   17        2.080   0.256   0.096   2.432
   18        2.082   0.260   0.098   2.440
   19        2.081   0.257   0.097   2.435
   20        2.082   0.260   0.098   2.440
   21        2.081   0.257   0.097   2.435
   22        2.080   0.256   0.096   2.432
   23        0.266   0.349   7.856   8.471
   24        0.269   0.355   7.858   8.482
   25        0.270   0.357   7.857   8.484
   26        0.266   0.349   7.856   8.471
   27        0.269   0.355   7.858   8.482
   28        0.269   0.355   7.858   8.482
   29        0.270   0.357   7.857   8.484
   30        0.270   0.357   7.857   8.484
   31        0.269   0.355   7.858   8.482
   32        0.266   0.349   7.856   8.471
   33        0.265   0.346   7.854   8.465
   34        0.269   0.356   7.853   8.478
   35        0.270   0.357   7.857   8.484
   36        0.253   0.323   7.862   8.438
   37        0.269   0.356   7.853   8.478
   38        0.266   0.349   7.856   8.471
   39        0.265   0.346   7.854   8.465
   40        0.264   0.346   7.859   8.470
   41        0.256   0.329   7.855   8.440
   42        0.264   0.346   7.859   8.470
   43        0.265   0.346   7.854   8.465
   44        0.274   0.366   7.847   8.487
   45        0.269   0.356   7.853   8.478
   46        0.253   0.323   7.862   8.438
   47        0.274   0.366   7.847   8.487
   48        0.269   0.356   7.853   8.478
   49        0.265   0.346   7.854   8.465
   50        1.268   2.769   0.006   4.043
   51        1.262   2.782   0.005   4.050
   52        1.262   2.783   0.005   4.050
   53        1.263   2.782   0.005   4.049
   54        1.257   2.796   0.006   4.058
   55        1.261   2.787   0.007   4.054
   56        1.268   2.769   0.006   4.043
   57        1.262   2.782   0.005   4.050
   58        1.262   2.783   0.005   4.050
   59        1.263   2.782   0.005   4.049
   60        1.263   2.782   0.005   4.049
   61        1.262   2.783   0.005   4.050
   62        1.262   2.783   0.006   4.051
   63        1.262   2.783   0.007   4.052
   64        1.261   2.787   0.007   4.054
   65        1.257   2.796   0.006   4.058
   66        1.263   2.782   0.005   4.049
   67        1.262   2.783   0.005   4.050
   68        1.262   2.782   0.005   4.050
   69        1.268   2.769   0.006   4.043
   70        1.266   2.775   0.006   4.047
   71        1.265   2.778   0.006   4.049
   72        1.260   2.790   0.005   4.055
   73        1.268   2.768   0.006   4.042
   74        1.262   2.783   0.007   4.052
   75        1.262   2.783   0.006   4.051
   76        1.263   2.779   0.007   4.048
   77        1.261   2.785   0.006   4.052
   78        1.260   2.790   0.005   4.055
   79        1.268   2.768   0.006   4.042
   80        1.262   2.782   0.005   4.050
   81        1.268   2.769   0.006   4.043
   82        1.266   2.775   0.006   4.047
   83        1.265   2.778   0.006   4.049
   84        1.261   2.786   0.007   4.053
   85        1.262   2.784   0.006   4.051
   86        1.266   2.773   0.007   4.045
   87        1.266   2.773   0.007   4.045
   88        1.262   2.784   0.006   4.051
   89        1.261   2.786   0.007   4.053
   90        1.265   2.778   0.006   4.049
   91        1.266   2.775   0.006   4.047
   92        1.266   2.777   0.006   4.049
   93        1.266   2.777   0.006   4.049
   94        1.268   2.768   0.006   4.042
   95        1.260   2.790   0.005   4.055
   96        1.261   2.785   0.006   4.052
   97        1.263   2.779   0.007   4.048
   98        1.266   2.777   0.006   4.049
   99        1.266   2.777   0.006   4.049
  100        1.268   2.768   0.006   4.042
  101        1.260   2.790   0.005   4.055
  102        1.265   2.778   0.006   4.049
  103        1.266   2.775   0.006   4.047
--------------------------------------------------
tot         121.22  165.28  214.58  501.08
 
magnetization (x)
 
# of ion       s       p       d       tot
------------------------------------------
    1        0.007   0.012   0.001   0.020
    2       -0.000  -0.000   0.000  -0.000
    3       -0.001   0.000   0.000  -0.001
    4        0.007   0.012   0.001   0.020
    5       -0.000  -0.000   0.000  -0.000
    6       -0.000  -0.000   0.000  -0.000
    7        0.006   0.011   0.001   0.018
    8       -0.001   0.000   0.000  -0.001
    9       -0.000  -0.000   0.000  -0.000
   10        0.007   0.012   0.001   0.020
   11       -0.000  -0.001  -0.000  -0.002
   12       -0.000   0.001   0.000   0.001
   13        0.006   0.011   0.001   0.018
   14       -0.000   0.001   0.000   0.001
   15        0.007   0.012   0.001   0.020
   16       -0.000  -0.001  -0.000  -0.002
   17       -0.000  -0.001  -0.000  -0.002
   18        0.007   0.013   0.001   0.021
   19       -0.000   0.001   0.000   0.001
   20        0.007   0.013   0.001   0.021
   21       -0.000   0.001   0.000   0.001
   22       -0.000  -0.001  -0.000  -0.002
   23        0.000   0.001  -0.578  -0.576
   24       -0.001  -0.001   0.520   0.519
   25       -0.000  -0.001   0.514   0.513
   26        0.000   0.001  -0.578  -0.576
   27       -0.001  -0.001   0.520   0.518
   28       -0.001  -0.001   0.520   0.518
   29        0.001   0.001  -0.524  -0.523
   30       -0.000  -0.001   0.514   0.513
   31       -0.001  -0.001   0.520   0.518
   32        0.000   0.001  -0.578  -0.576
   33       -0.000  -0.001   0.543   0.542
   34       -0.001  -0.001   0.485   0.483
   35        0.001   0.001  -0.524  -0.523
   36       -0.000  -0.001   0.868   0.868
   37       -0.001  -0.001   0.485   0.483
   38        0.000   0.001  -0.578  -0.576
   39       -0.000  -0.001   0.543   0.542
   40       -0.000  -0.001   0.618   0.617
   41        0.000   0.001  -0.765  -0.764
   42       -0.000  -0.001   0.618   0.617
   43       -0.000  -0.001   0.543   0.542
   44        0.001   0.001  -0.365  -0.364
   45       -0.001  -0.001   0.485   0.483
   46       -0.000  -0.001   0.868   0.868
   47        0.001   0.001  -0.365  -0.364
   48       -0.001  -0.001   0.485   0.483
   49       -0.000  -0.001   0.543   0.542
   50        0.011   0.079   0.000   0.090
   51        0.011   0.070   0.000   0.081
   52       -0.012  -0.078  -0.000  -0.091
   53        0.012   0.076   0.000   0.089
   54        0.004  -0.009   0.000  -0.004
   55       -0.004  -0.005  -0.000  -0.010
   56        0.011   0.079   0.000   0.090
   57        0.011   0.070   0.000   0.081
   58       -0.012  -0.078  -0.000  -0.091
   59        0.012   0.076   0.000   0.089
   60        0.012   0.076   0.000   0.089
   61       -0.012  -0.078  -0.000  -0.091
   62        0.012   0.060   0.000   0.072
   63        0.003   0.006   0.000   0.009
   64       -0.004  -0.005  -0.000  -0.010
   65        0.004  -0.009   0.000  -0.004
   66        0.012   0.076   0.000   0.089
   67       -0.012  -0.078  -0.000  -0.091
   68        0.011   0.070   0.000   0.081
   69        0.011   0.079   0.000   0.090
   70       -0.012  -0.077  -0.000  -0.090
   71        0.012   0.083   0.000   0.095
   72        0.014   0.091   0.000   0.105
   73       -0.011  -0.073  -0.000  -0.084
   74        0.003   0.006   0.000   0.009
   75        0.012   0.060   0.000   0.072
   76       -0.002   0.003  -0.000   0.000
   77        0.010   0.048   0.000   0.059
   78        0.014   0.091   0.000   0.105
   79       -0.011  -0.073  -0.000  -0.084
   80        0.011   0.070   0.000   0.081
   81        0.011   0.079   0.000   0.090
   82       -0.012  -0.077  -0.000  -0.090
   83        0.012   0.083   0.000   0.095
   84        0.003  -0.009   0.000  -0.006
   85       -0.011  -0.044  -0.000  -0.055
   86        0.007   0.037   0.000   0.044
   87        0.007   0.037   0.000   0.044
   88       -0.011  -0.044  -0.000  -0.055
   89        0.003  -0.009   0.000  -0.006
   90        0.012   0.083   0.000   0.095
   91       -0.012  -0.077  -0.000  -0.090
   92        0.012   0.072   0.000   0.084
   93        0.012   0.072   0.000   0.084
   94       -0.011  -0.073  -0.000  -0.084
   95        0.014   0.091   0.000   0.105
   96        0.010   0.048   0.000   0.059
   97       -0.002   0.003  -0.000   0.000
   98        0.012   0.072   0.000   0.084
   99        0.012   0.072   0.000   0.084
  100       -0.011  -0.073  -0.000  -0.084
  101        0.014   0.091   0.000   0.105
  102        0.012   0.083   0.000   0.095
  103       -0.012  -0.077  -0.000  -0.090
--------------------------------------------------
tot           0.23    1.23    5.35    6.82
 

 total amount of memory used by VASP MPI-rank0   146905. kBytes
=======================================================================

   base      :      30000. kBytes
   nonlr-proj:      40414. kBytes
   fftplans  :       9349. kBytes
   grid      :      55332. kBytes
   one-center:       1601. kBytes
   wavefun   :      10209. kBytes
 
  
  
 General timing and accounting informations for this job:
 ========================================================
  
                  Total CPU time used (sec):      951.449
                            User time (sec):      945.575
                          System time (sec):        5.874
                         Elapsed time (sec):      959.208
  
                   Maximum memory used (kb):      210532.
                   Average memory used (kb):           0.
  
                          Minor page faults:        35889
                          Major page faults:           51
                 Voluntary context switches:          898
