 vasp.5.4.4.18Apr17-6-g9f103f2a35 (build May 12 2020 04:58:55) complex          
  
 MD_VERSION_INFO: Compiled 2020-05-12T11:58:55-UTC in devlin.sd.materialsdesign.
 com:/home/medea2/data/build/wwolf/vasp-gpu5.4.4/13047/x86_64/src/src/build/std 
 from svn 13047
 
 This VASP executable licensed from Materials Design, Inc.
 
 executed on                        Lin64 date 2023.02.20  11:58:27
 running on   16 total cores
 distrk:  each k-point on   16 cores,    1 groups
 distr:  one band on NCORES_PER_BAND=   1 cores,   16 groups


--------------------------------------------------------------------------------------------------------


 INCAR:
 POTCAR:    PAW_PBE Ni 02Aug2007                  
 POTCAR:    PAW_PBE O 08Apr2002                   

 ----------------------------------------------------------------------------- 
|                                                                             |
|           W    W    AA    RRRRR   N    N  II  N    N   GGGG   !!!           |
|           W    W   A  A   R    R  NN   N  II  NN   N  G    G  !!!           |
|           W    W  A    A  R    R  N N  N  II  N N  N  G       !!!           |
|           W WW W  AAAAAA  RRRRR   N  N N  II  N  N N  G  GGG   !            |
|           WW  WW  A    A  R   R   N   NN  II  N   NN  G    G                |
|           W    W  A    A  R    R  N    N  II  N    N   GGGG   !!!           |
|                                                                             |
|      For optimal performance we recommend to set                            |
|        NCORE= 4 - approx SQRT( number of cores)                             |
|      NCORE specifies how many cores store one orbital (NPAR=cpu/NCORE).     |
|      This setting can  greatly improve the performance of VASP for DFT.     |
|      The default,   NCORE=1            might be grossly inefficient         |
|      on modern multi-core architectures or massively parallel machines.     |
|      Do your own testing !!!!                                               |
|      Unfortunately you need to use the default for GW and RPA calculations. |
|      (for HF NCORE is supported but not extensively tested yet)             |
|                                                                             |
 ----------------------------------------------------------------------------- 

 POTCAR:    PAW_PBE Ni 02Aug2007                  
  local pseudopotential read in
  partial core-charges read in
  partial kinetic energy density read in
  atomic valenz-charges read in
  non local Contribution for L=           2  read in
    real space projection operators read in
  non local Contribution for L=           2  read in
    real space projection operators read in
  non local Contribution for L=           0  read in
    real space projection operators read in
  non local Contribution for L=           0  read in
    real space projection operators read in
  non local Contribution for L=           1  read in
    real space projection operators read in
  non local Contribution for L=           1  read in
    real space projection operators read in
    PAW grid and wavefunctions read in
 
   number of l-projection  operators is LMAX  =           6
   number of lm-projection operators is LMMAX =          18
 
 POTCAR:    PAW_PBE O 08Apr2002                   
  local pseudopotential read in
  partial core-charges read in
  partial kinetic energy density read in
  kinetic energy density of atom read in
  atomic valenz-charges read in
  non local Contribution for L=           0  read in
    real space projection operators read in
  non local Contribution for L=           0  read in
    real space projection operators read in
  non local Contribution for L=           1  read in
    real space projection operators read in
  non local Contribution for L=           1  read in
    real space projection operators read in
    PAW grid and wavefunctions read in
 
   number of l-projection  operators is LMAX  =           4
   number of lm-projection operators is LMMAX =           8
 

 ----------------------------------------------------------------------------- 
|                                                                             |
|  ADVICE TO THIS USER RUNNING 'VASP/VAMP'   (HEAR YOUR MASTER'S VOICE ...):  |
|                                                                             |
|      You have a (more or less) 'large supercell' and for larger cells       |
|      it might be more efficient to use real space projection opertators     |
|      So try LREAL= Auto  in the INCAR   file.                               |
|      Mind:          For very  accurate calculation you might also keep the  |
|      reciprocal projection scheme          (i.e. LREAL=.FALSE.)             |
|                                                                             |
 ----------------------------------------------------------------------------- 


 ----------------------------------------------------------------------------- 
|                                                                             |
|  ADVICE TO THIS USER RUNNING 'VASP/VAMP'   (HEAR YOUR MASTER'S VOICE ...):  |
|                                                                             |
|      You enforced a specific xc-type in the INCAR file,                     |
|      a different type was found on the POTCAR file                          |
|          I HOPE YOU KNOW, WHAT YOU ARE  DOING                               |
|                                                                             |
 ----------------------------------------------------------------------------- 

  PAW_PBE Ni 02Aug2007                  :
 energy of atom  1       EATOM=-1077.6739
 kinetic energy error for atom=    0.0030 (will be added to EATOM!!)
  PAW_PBE O 08Apr2002                   :
 energy of atom  2       EATOM= -432.3788
 kinetic energy error for atom=    0.0224 (will be added to EATOM!!)
 
 
 POSCAR: ce425834_5                              
  positions in direct lattice
  No initial velocities read in
 exchange correlation table for  LEXCH =       14
   RHO(1)=    0.500       N(1)  =     2000
   RHO(2)=  100.500       N(2)  =     4000
 


--------------------------------------------------------------------------------------------------------


 ion  position               nearest neighbor table
   1  0.980  0.018  0.022-  78 1.79  33 1.82  66 1.86  81 1.89  45 1.91  30 1.92  25 2.65   7 2.74
                            19 2.78  13 2.84   4 2.84  10 2.84
   2  0.252  0.322  0.856-  53 1.73  44 1.83  50 1.84  47 1.84  29 1.87  32 1.89  14 2.66  11 2.74
                             5 2.74  26 2.76   8 2.76  20 2.86
   3  0.102  0.656  0.806-  52 1.77  67 1.82  28 1.85  37 1.86  31 1.89  34 1.91  12 2.74  27 2.75
                             9 2.79  21 2.79  15 2.80   6 2.90
   4  0.984  0.015  0.679-  69 1.78  33 1.84  72 1.84  36 1.90  66 1.93  39 1.93  19 2.70   7 2.77
                            13 2.80  22 2.80   1 2.84  16 2.89
   5  0.236  0.332  0.537-  53 1.83  32 1.86  56 1.87  35 1.88  59 1.91  38 1.95  14 2.72   2 2.74
                            20 2.75  17 2.84  23 2.86   8 2.86
   6  0.099  0.659  0.460-  43 1.79  34 1.82  58 1.88  73 1.89  40 1.91  37 1.91   9 2.66  21 2.74
                            24 2.75  15 2.76  18 2.79   3 2.90
   7  0.993  0.014  0.343-  75 1.80  45 1.83  78 1.83  72 1.86  42 1.87  39 1.93   1 2.74  22 2.76
                             4 2.77  16 2.79  10 2.79  25 2.80
   8  0.255  0.330  0.185-  38 1.80  41 1.84  62 1.87  59 1.87  47 1.87  44 1.91  17 2.69  11 2.73
                             2 2.76  26 2.84   5 2.86  23 2.88
   9  0.100  0.652  0.141-  40 1.78  31 1.79  43 1.85  46 1.86  79 1.88  28 1.88   6 2.66  24 2.74
                            18 2.76  27 2.78   3 2.79  12 2.79
  10  0.326  0.009  0.009-  30 1.80  45 1.83  48 1.84  63 1.86  51 1.90  42 1.99  19 2.74  16 2.75
                            13 2.78   7 2.79  22 2.81   1 2.84
  11  0.580  0.322  0.857-  71 1.85  65 1.86  50 1.87  62 1.88  68 1.90  47 1.95   8 2.73   2 2.74
                            23 2.75  20 2.76  17 2.79  14 2.80
  12  0.431  0.660  0.804-  52 1.78  49 1.83  55 1.84  31 1.85  46 1.87  70 1.92   3 2.74  18 2.74
                             9 2.79  24 2.83  21 2.83  15 2.85
  13  0.319  0.011  0.680-  36 1.84  51 1.85  30 1.86  54 1.89  33 1.93  57 1.93  22 2.75  10 2.78
                             4 2.80  16 2.83   1 2.84  25 2.86
  14  0.563  0.319  0.531-  53 1.79  71 1.82  74 1.85  77 1.86  56 1.92  50 1.92   2 2.66   5 2.72
                            17 2.78  23 2.80  11 2.80  26 2.94
  15  0.428  0.662  0.463-  58 1.83  37 1.86  55 1.86  52 1.88  76 1.89  61 1.95  18 2.76   6 2.76
                             3 2.80  27 2.81  24 2.84  12 2.85
  16  0.331  0.016  0.335-  63 1.78  60 1.83  36 1.85  57 1.86  42 1.87  39 1.89  10 2.75  25 2.77
                            19 2.77   7 2.79  13 2.83   4 2.89
  17  0.573  0.330  0.194-  56 1.81  65 1.83  77 1.84  62 1.85  80 1.86  59 1.88   8 2.69  20 2.76
                            14 2.78  11 2.79  26 2.82   5 2.84
  18  0.436  0.654  0.129-  49 1.79  58 1.83  46 1.85  43 1.85  61 1.90  64 1.91  12 2.74   9 2.76
                            15 2.76   6 2.79  27 2.81  21 2.82
  19  0.659  0.018  1.000-  69 1.83  60 1.85  81 1.85  48 1.87  66 1.88  63 1.90   4 2.70  10 2.74
                            16 2.77   1 2.78  22 2.80  25 2.83
  20  0.905  0.328  0.865-  80 1.78  35 1.82  29 1.84  32 1.84  65 1.87  68 1.96  26 2.69   5 2.75
                            11 2.76  17 2.76   2 2.86  23 2.89
  21  0.775  0.657  0.793-  73 1.80  67 1.86  64 1.88  49 1.89  70 1.90  34 1.95   6 2.74  24 2.78
                             3 2.79  18 2.82  12 2.83  27 2.83
  22  0.655  0.014  0.666-  75 1.75  54 1.82  69 1.85  48 1.85  51 1.88  72 1.91  25 2.72  13 2.75
                             7 2.76  19 2.80   4 2.80  10 2.81
  23  0.902  0.334  0.522-  74 1.79  38 1.84  71 1.86  35 1.86  68 1.87  41 1.89  11 2.75  26 2.78
                            14 2.80   5 2.86   8 2.88  20 2.89
  24  0.768  0.659  0.464-  76 1.79  70 1.86  73 1.86  40 1.86  79 1.87  55 1.93   9 2.74  27 2.75
                             6 2.75  21 2.78  12 2.83  15 2.84
  25  0.661  0.019  0.337-  78 1.81  57 1.82  60 1.85  54 1.87  75 1.88  81 1.88   1 2.65  22 2.72
                            16 2.77   7 2.80  19 2.83  13 2.86
  26  0.917  0.330  0.181-  80 1.80  41 1.82  29 1.84  74 1.86  44 1.90  77 2.00  20 2.69   2 2.76
                            23 2.78  17 2.82   8 2.84  14 2.94
  27  0.771  0.657  0.133-  67 1.82  61 1.83  76 1.84  28 1.85  64 1.87  79 1.93   3 2.75  24 2.75
                             9 2.78  15 2.81  18 2.81  21 2.83
  28  0.992  0.724  0.027-  27 1.85   3 1.85   9 1.88
  29  0.023  0.259  0.965-  26 1.84  20 1.84   2 1.87
  30  0.220  0.078  0.904-  10 1.80  13 1.86   1 1.92
  31  0.213  0.589  0.924-   9 1.79  12 1.85   3 1.89
  32  0.125  0.396  0.763-  20 1.84   5 1.86   2 1.89
  33  0.079  0.950  0.806-   1 1.82   4 1.84  13 1.93
  34  0.008  0.728  0.676-   6 1.82   3 1.91  21 1.95
  35  0.006  0.267  0.641-  20 1.82  23 1.86   5 1.88
  36  0.218  0.079  0.561-  13 1.84  16 1.85   4 1.90
  37  0.209  0.590  0.580-  15 1.86   3 1.86   6 1.91
  38  0.129  0.394  0.402-   8 1.80  23 1.84   5 1.95
  39  0.112  0.941  0.453-  16 1.89   7 1.93   4 1.93
  40  0.989  0.728  0.341-   9 1.78  24 1.86   6 1.91
  41  0.029  0.268  0.292-  26 1.82   8 1.84  23 1.89
  42  0.209  0.089  0.239-  16 1.87   7 1.87  10 1.99
  43  0.214  0.588  0.253-   6 1.79  18 1.85   9 1.85
  44  0.146  0.398  0.065-   2 1.83  26 1.90   8 1.91
  45  0.103  0.946  0.125-   7 1.83  10 1.83   1 1.91
  46  0.318  0.725  0.030-  18 1.85   9 1.86  12 1.87
  47  0.347  0.250  0.976-   2 1.84   8 1.87  11 1.95
  48  0.540  0.081  0.889-  10 1.84  22 1.85  19 1.87
  49  0.543  0.593  0.910-  18 1.79  12 1.83  21 1.89
  50  0.465  0.395  0.753-   2 1.84  11 1.87  14 1.92
  51  0.436  0.941  0.781-  13 1.85  22 1.88  10 1.90
  52  0.316  0.719  0.699-   3 1.77  12 1.78  15 1.88
  53  0.342  0.262  0.648-   2 1.73  14 1.79   5 1.83
  54  0.542  0.083  0.565-  22 1.82  25 1.87  13 1.89
  55  0.531  0.594  0.583-  12 1.84  15 1.86  24 1.93
  56  0.463  0.397  0.410-  17 1.81   5 1.87  14 1.92
  57  0.448  0.949  0.441-  25 1.82  16 1.86  13 1.93
  58  0.326  0.726  0.343-  15 1.83  18 1.83   6 1.88
  59  0.350  0.259  0.311-   8 1.87  17 1.88   5 1.91
  60  0.550  0.084  0.223-  16 1.83  19 1.85  25 1.85
  61  0.557  0.585  0.236-  27 1.83  18 1.90  15 1.95
  62  0.477  0.399  0.072-  17 1.85   8 1.87  11 1.88
  63  0.436  0.946  0.127-  16 1.78  10 1.86  19 1.90
  64  0.663  0.725  0.018-  27 1.87  21 1.88  18 1.91
  65  0.683  0.259  0.981-  17 1.83  11 1.86  20 1.87
  66  0.879  0.090  0.904-   1 1.86  19 1.88   4 1.93
  67  0.881  0.592  0.913-   3 1.82  27 1.82  21 1.86
  68  0.794  0.402  0.745-  23 1.87  11 1.90  20 1.96
  69  0.769  0.952  0.780-   4 1.78  19 1.83  22 1.85
  70  0.661  0.730  0.683-  24 1.86  21 1.90  12 1.92
  71  0.687  0.259  0.630-  14 1.82  11 1.85  23 1.86
  72  0.882  0.085  0.563-   4 1.84   7 1.86  22 1.91
  73  0.874  0.590  0.579-  21 1.80  24 1.86   6 1.89
  74  0.784  0.387  0.413-  23 1.79  14 1.85  26 1.86
  75  0.772  0.953  0.453-  22 1.75   7 1.80  25 1.88
  76  0.662  0.723  0.354-  24 1.79  27 1.84  15 1.89
  77  0.678  0.257  0.303-  17 1.84  14 1.86  26 2.00
  78  0.881  0.081  0.237-   1 1.79  25 1.81   7 1.83
  79  0.878  0.581  0.252-  24 1.87   9 1.88  27 1.93
  80  0.801  0.393  0.080-  20 1.78  26 1.80  17 1.86
  81  0.758  0.946  0.117-  19 1.85  25 1.88   1 1.89
 
  LATTYP: Found a hexagonal cell.
 ALAT       =     8.3527645270
 C/A-ratio  =     1.6375025413
  
  Lattice vectors:
  
 A1 = (   4.1763822500,   0.0000000000,   7.2337062800)
 A2 = (  -8.3527645000,   0.0000000000,   0.0000000000)
 A3 = (   0.0000000000, -13.6776731400,   0.0000000000)


Analysis of symmetry for initial positions (statically):
=====================================================================
 Subroutine PRICEL returns:
 Original cell was already a primitive cell.
 

 Routine SETGRP: Setting up the symmetry group for a 
 hexagonal supercell.


 Subroutine GETGRP returns: Found  1 space group operations
 (whereof  1 operations were pure point group operations)
 out of a pool of 24 trial point group operations.


The static configuration has the point symmetry C_1 .


Analysis of symmetry for dynamics (positions and initial velocities):
=====================================================================
 Subroutine PRICEL returns:
 Original cell was already a primitive cell.
 

 Routine SETGRP: Setting up the symmetry group for a 
 hexagonal supercell.


 Subroutine GETGRP returns: Found  1 space group operations
 (whereof  1 operations were pure point group operations)
 out of a pool of 24 trial point group operations.


The dynamic configuration has the point symmetry C_1 .


Analysis of structural, dynamic, and magnetic symmetry:
=====================================================================
 Subroutine PRICEL returns:
 Original cell was already a primitive cell.
 

 Routine SETGRP: Setting up the symmetry group for a 
 hexagonal supercell.


 Subroutine GETGRP returns: Found  1 space group operations
 (whereof  1 operations were pure point group operations)
 out of a pool of 24 trial point group operations.


The magnetic configuration has the point symmetry C_1 .


 Subroutine INISYM returns: Found  1 space group operations
 (whereof  1 operations are pure point group operations),
 and found     1 'primitive' translations

 
 
 KPOINTS: Automatic mesh                          

Automatic generation of k-mesh.
Space group operators:
 irot       det(A)        alpha          n_x          n_y          n_z        tau_x        tau_y        tau_z
    1     1.000000     0.000000     1.000000     0.000000     0.000000     0.000000     0.000000     0.000000
 
 Subroutine IBZKPT returns following result:
 ===========================================
 
 Found     38 irreducible k-points:
 
 Following reciprocal coordinates:
            Coordinates               Weight
  0.000000  0.000000  0.000000      1.000000
  0.200000  0.000000 -0.000000      2.000000
  0.400000  0.000000 -0.000000      2.000000
  0.000000  0.333333  0.000000      2.000000
  0.200000  0.333333 -0.000000      2.000000
  0.400000  0.333333 -0.000000      2.000000
 -0.400000  0.333333  0.000000      2.000000
 -0.200000  0.333333  0.000000      2.000000
  0.000000  0.000000  0.200000      2.000000
  0.200000  0.000000  0.200000      2.000000
  0.400000  0.000000  0.200000      2.000000
 -0.400000  0.000000  0.200000      2.000000
 -0.200000  0.000000  0.200000      2.000000
  0.000000  0.333333  0.200000      2.000000
  0.200000  0.333333  0.200000      2.000000
  0.400000  0.333333  0.200000      2.000000
 -0.400000  0.333333  0.200000      2.000000
 -0.200000  0.333333  0.200000      2.000000
  0.000000 -0.333333  0.200000      2.000000
  0.200000 -0.333333  0.200000      2.000000
  0.400000 -0.333333  0.200000      2.000000
 -0.400000 -0.333333  0.200000      2.000000
 -0.200000 -0.333333  0.200000      2.000000
  0.000000  0.000000  0.400000      2.000000
  0.200000  0.000000  0.400000      2.000000
  0.400000  0.000000  0.400000      2.000000
 -0.400000  0.000000  0.400000      2.000000
 -0.200000  0.000000  0.400000      2.000000
  0.000000  0.333333  0.400000      2.000000
  0.200000  0.333333  0.400000      2.000000
  0.400000  0.333333  0.400000      2.000000
 -0.400000  0.333333  0.400000      2.000000
 -0.200000  0.333333  0.400000      2.000000
  0.000000 -0.333333  0.400000      2.000000
  0.200000 -0.333333  0.400000      2.000000
  0.400000 -0.333333  0.400000      2.000000
 -0.400000 -0.333333  0.400000      2.000000
 -0.200000 -0.333333  0.400000      2.000000
 
 Following cartesian coordinates:
            Coordinates               Weight
  0.000000  0.000000  0.000000      1.000000
  0.023944  0.000000 -0.013824      2.000000
  0.047888  0.000000 -0.027648      2.000000
  0.000000  0.024371  0.000000      2.000000
  0.023944  0.024371 -0.013824      2.000000
  0.047888  0.024371 -0.027648      2.000000
 -0.047888  0.024371  0.027648      2.000000
 -0.023944  0.024371  0.013824      2.000000
  0.000000  0.000000  0.027648      2.000000
  0.023944  0.000000  0.013824      2.000000
  0.047888  0.000000  0.000000      2.000000
 -0.047888  0.000000  0.055297      2.000000
 -0.023944  0.000000  0.041473      2.000000
  0.000000  0.024371  0.027648      2.000000
  0.023944  0.024371  0.013824      2.000000
  0.047888  0.024371  0.000000      2.000000
 -0.047888  0.024371  0.055297      2.000000
 -0.023944  0.024371  0.041473      2.000000
  0.000000 -0.024371  0.027648      2.000000
  0.023944 -0.024371  0.013824      2.000000
  0.047888 -0.024371  0.000000      2.000000
 -0.047888 -0.024371  0.055297      2.000000
 -0.023944 -0.024371  0.041473      2.000000
  0.000000  0.000000  0.055297      2.000000
  0.023944  0.000000  0.041473      2.000000
  0.047888  0.000000  0.027648      2.000000
 -0.047888  0.000000  0.082945      2.000000
 -0.023944  0.000000  0.069121      2.000000
  0.000000  0.024371  0.055297      2.000000
  0.023944  0.024371  0.041473      2.000000
  0.047888  0.024371  0.027648      2.000000
 -0.047888  0.024371  0.082945      2.000000
 -0.023944  0.024371  0.069121      2.000000
  0.000000 -0.024371  0.055297      2.000000
  0.023944 -0.024371  0.041473      2.000000
  0.047888 -0.024371  0.027648      2.000000
 -0.047888 -0.024371  0.082945      2.000000
 -0.023944 -0.024371  0.069121      2.000000
 


--------------------------------------------------------------------------------------------------------




 Dimension of arrays:
   k-points           NKPTS =     38   k-points in BZ     NKDIM =     38   number of bands    NBANDS=    400
   number of dos      NEDOS =    301   number of ions     NIONS =     81
   non local maximal  LDIM  =      6   non local SUM 2l+1 LMDIM =     18
   total plane-waves  NPLWV = 409600
   max r-space proj   IRMAX =      1   max aug-charges    IRDMAX=  16263
   dimension x,y,z NGX =    64 NGY =  100 NGZ =   64
   dimension x,y,z NGXF=   128 NGYF=  200 NGZF=  128
   support grid    NGXF=   128 NGYF=  200 NGZF=  128
   ions per type =              27  54
   NGX,Y,Z   is equivalent  to a cutoff of  12.74, 12.15, 12.74 a.u.
   NGXF,Y,Z  is equivalent  to a cutoff of  25.48, 24.31, 25.48 a.u.

 SYSTEM =  unknown system                          
 POSCAR =  ce425834_5                              

 Startparameter for this run:
   NWRITE =      1    write-flag & timer
   PREC   = accura    normal or accurate (medium, high low for compatibility)
   ISTART =      0    job   : 0-new  1-cont  2-samecut
   ICHARG =      2    charge: 1-file 2-atom 10-const
   ISPIN  =      2    spin polarized calculation?
   LNONCOLLINEAR =      F non collinear calculations
   LSORBIT =      F    spin-orbit coupling
   INIWAV =      1    electr: 0-lowe 1-rand  2-diag
   LASPH  =      F    aspherical Exc in radial PAW
   METAGGA=      F    non-selfconsistent MetaGGA calc.

 Electronic Relaxation 1
   ENCUT  =  500.0 eV  36.75 Ry    6.06 a.u.  15.23 24.94 15.23*2*pi/ulx,y,z
   ENINI  =  500.0     initial cutoff
   ENAUG  =  605.4 eV  augmentation charge cutoff
   NELM   =     80;   NELMIN=  2; NELMDL= -5     # of ELM steps 
   EDIFF  = 0.1E-04   stopping-criterion for ELM
   LREAL  =      F    real-space projection
   NLSPLINE    = F    spline interpolate recip. space projectors
   LCOMPAT=      F    compatible to vasp.4.4
   GGA_COMPAT  = T    GGA compatible to vasp.4.4-vasp.4.6
   LMAXPAW     = -100 max onsite density
   LMAXMIX     =    2 max onsite mixed and CHGCAR
   VOSKOWN=      1    Vosko Wilk Nusair interpolation
   ROPT   =    0.00000   0.00000
 Ionic relaxation
   EDIFFG = 0.1E-03   stopping-criterion for IOM
   NSW    =      0    number of steps for IOM
   NBLOCK =      1;   KBLOCK =      1    inner block; outer block 
   IBRION =     -1    ionic relax: 0-MD 1-quasi-New 2-CG
   NFREE  =      0    steps in history (QN), initial steepest desc. (CG)
   ISIF   =      2    stress and relaxation
   IWAVPR =     10    prediction:  0-non 1-charg 2-wave 3-comb
   ISYM   =      2    0-nonsym 1-usesym 2-fastsym
   LCORR  =      T    Harris-Foulkes like correction to forces

   POTIM  = 0.5000    time-step for ionic-motion
   TEIN   =    0.0    initial temperature
   TEBEG  =    0.0;   TEEND  =   0.0 temperature during run
   SMASS  =  -3.00    Nose mass-parameter (am)
   estimated Nose-frequenzy (Omega)   =  0.10E-29 period in steps =****** mass=  -0.159E-26a.u.
   SCALEE = 1.0000    scale energy and forces
   NPACO  =    256;   APACO  = 16.0  distance and # of slots for P.C.
   PSTRESS=    0.0 pullay stress

  Mass of Ions in am
   POMASS =  58.69 16.00
  Ionic Valenz
   ZVAL   =  10.00  6.00
  Atomic Wigner-Seitz radii
   RWIGS  =   1.15  0.73
  virtual crystal weights 
   VCA    =   1.00  1.00
   NELECT =     594.0000    total number of electrons
   NUPDOWN=      -1.0000    fix difference up-down

 DOS related values:
   EMIN   =  10.00;   EMAX   =-10.00  energy-range for DOS
   EFERMI =   0.00
   ISMEAR =     1;   SIGMA  =   0.10  broadening in eV -4-tet -1-fermi 0-gaus

 Electronic relaxation 2 (details)
   IALGO  =     38    algorithm
   LDIAG  =      T    sub-space diagonalisation (order eigenvalues)
   LSUBROT=      F    optimize rotation matrix (better conditioning)
   TURBO    =      0    0=normal 1=particle mesh
   IRESTART =      0    0=no restart 2=restart with 2 vectors
   NREBOOT  =      0    no. of reboots
   NMIN     =      0    reboot dimension
   EREF     =   0.00    reference energy to select bands
   IMIX   =      4    mixing-type and parameters
     AMIX     =   0.40;   BMIX     =  1.00
     AMIX_MAG =   1.60;   BMIX_MAG =  1.00
     AMIN     =   0.10
     WC   =   100.;   INIMIX=   1;  MIXPRE=   1;  MAXMIX= -45

 Intra band minimization:
   WEIMIN = 0.0000     energy-eigenvalue tresh-hold
   EBREAK =  0.63E-08  absolut break condition
   DEPER  =   0.30     relativ break condition  

   TIME   =   0.40     timestep for ELM

  volume/ion in A,a.u.               =      10.20        68.85
  Fermi-wavevector in a.u.,A,eV,Ry     =   1.466457  2.771201 29.259259  2.150495
  Thomas-Fermi vector in A             =   2.582192
 
 Write flags
   LWAVE        =      F    write WAVECAR
   LDOWNSAMPLE  =      F    k-point downsampling of WAVECAR
   LCHARG       =      T    write CHGCAR
   LVTOT        =      F    write LOCPOT, total local potential
   LVHAR        =      F    write LOCPOT, Hartree potential only
   LELF         =      F    write electronic localiz. function (ELF)
   LORBIT       =      0    0 simple, 1 ext, 2 COOP (PROOUT), +10 PAW based schemes


 Dipole corrections
   LMONO  =      F    monopole corrections only (constant potential shift)
   LDIPOL =      F    correct potential (dipole corrections)
   IDIPOL =      0    1-x, 2-y, 3-z, 4-all directions 
   EPSILON=  1.0000000 bulk dielectric constant

 Exchange correlation treatment:
   GGA     =    PS    GGA type
   LEXCH   =    14    internal setting for exchange type
   VOSKOWN=      1    Vosko Wilk Nusair interpolation
   LHFCALC =     F    Hartree Fock is set to
   LHFONE  =     F    Hartree Fock one center treatment
   AEXX    =    0.0000 exact exchange contribution

 Linear response parameters
   LEPSILON=     F    determine dielectric tensor
   LRPA    =     F    only Hartree local field effects (RPA)
   LNABLA  =     F    use nabla operator in PAW spheres
   LVEL    =     F    velocity operator in full k-point grid
   LINTERFAST=   F  fast interpolation
   KINTER  =     0    interpolate to denser k-point grid
   CSHIFT  =0.1000    complex shift for real part using Kramers Kronig
   OMEGAMAX=  -1.0    maximum frequency
   DEG_THRESHOLD= 0.2000000E-02 threshold for treating states as degnerate
   RTIME   =   -0.100 relaxation time in fs
  (WPLASMAI=    0.000 imaginary part of plasma frequency in eV, 0.658/RTIME)
   DFIELD  = 0.0000000 0.0000000 0.0000000 field for delta impulse in time
 
 Orbital magnetization related:
   ORBITALMAG=     F  switch on orbital magnetization
   LCHIMAG   =     F  perturbation theory with respect to B field
   DQ        =  0.001000  dq finite difference perturbation B field
   LLRAUG    =     F  two centre corrections for induced B field



--------------------------------------------------------------------------------------------------------


 Static calculation
 charge density and potential will be updated during run
 spin polarized calculation
 Variant of blocked Davidson
 Davidson routine will perform the subspace rotation
 perform sub-space diagonalisation
    after iterative eigenvector-optimisation
 modified Broyden-mixing scheme, WC =      100.0
 initial mixing is a Kerker type mixing with AMIX =  0.4000 and BMIX =      1.0000
 Hartree-type preconditioning will be used
 using additional bands          103
 reciprocal scheme for non local part
 use partial core corrections
 calculate Harris-corrections to forces 
   (improved forces if not selfconsistent)
 use gradient corrections 
 use of overlap-Matrix (Vanderbilt PP)
 Methfessel and Paxton  Order N= 1 SIGMA  =   0.10


--------------------------------------------------------------------------------------------------------


  energy-cutoff  :      500.00
  volume of cell :      826.42
      direct lattice vectors                 reciprocal lattice vectors
     8.352764500  0.000000000  0.000000000     0.119720842  0.000000000 -0.069120860
     0.000000000 13.677673140  0.000000000     0.000000000  0.073111851  0.000000000
     4.176382250  0.000000000  7.233706280     0.000000000  0.000000000  0.138241720

  length of vectors
     8.352764500 13.677673140  8.352764527     0.138241721  0.073111851  0.138241720


 
 k-points in units of 2pi/SCALE and weight: Automatic mesh                          
   0.00000000  0.00000000  0.00000000       0.013
   0.02394417  0.00000000 -0.01382417       0.027
   0.04788834  0.00000000 -0.02764834       0.027
   0.00000000  0.02437062  0.00000000       0.027
   0.02394417  0.02437062 -0.01382417       0.027
   0.04788834  0.02437062 -0.02764834       0.027
  -0.04788834  0.02437062  0.02764834       0.027
  -0.02394417  0.02437062  0.01382417       0.027
   0.00000000  0.00000000  0.02764834       0.027
   0.02394417  0.00000000  0.01382417       0.027
   0.04788834  0.00000000  0.00000000       0.027
  -0.04788834  0.00000000  0.05529669       0.027
  -0.02394417  0.00000000  0.04147252       0.027
   0.00000000  0.02437062  0.02764834       0.027
   0.02394417  0.02437062  0.01382417       0.027
   0.04788834  0.02437062  0.00000000       0.027
  -0.04788834  0.02437062  0.05529669       0.027
  -0.02394417  0.02437062  0.04147252       0.027
   0.00000000 -0.02437062  0.02764834       0.027
   0.02394417 -0.02437062  0.01382417       0.027
   0.04788834 -0.02437062  0.00000000       0.027
  -0.04788834 -0.02437062  0.05529669       0.027
  -0.02394417 -0.02437062  0.04147252       0.027
   0.00000000  0.00000000  0.05529669       0.027
   0.02394417  0.00000000  0.04147252       0.027
   0.04788834  0.00000000  0.02764834       0.027
  -0.04788834  0.00000000  0.08294503       0.027
  -0.02394417  0.00000000  0.06912086       0.027
   0.00000000  0.02437062  0.05529669       0.027
   0.02394417  0.02437062  0.04147252       0.027
   0.04788834  0.02437062  0.02764834       0.027
  -0.04788834  0.02437062  0.08294503       0.027
  -0.02394417  0.02437062  0.06912086       0.027
   0.00000000 -0.02437062  0.05529669       0.027
   0.02394417 -0.02437062  0.04147252       0.027
   0.04788834 -0.02437062  0.02764834       0.027
  -0.04788834 -0.02437062  0.08294503       0.027
  -0.02394417 -0.02437062  0.06912086       0.027
 
 k-points in reciprocal lattice and weights: Automatic mesh                          
   0.00000000  0.00000000  0.00000000       0.013
   0.20000000  0.00000000 -0.00000000       0.027
   0.40000000  0.00000000 -0.00000000       0.027
   0.00000000  0.33333333  0.00000000       0.027
   0.20000000  0.33333333 -0.00000000       0.027
   0.40000000  0.33333333 -0.00000000       0.027
  -0.40000000  0.33333333  0.00000000       0.027
  -0.20000000  0.33333333  0.00000000       0.027
   0.00000000  0.00000000  0.20000000       0.027
   0.20000000  0.00000000  0.20000000       0.027
   0.40000000  0.00000000  0.20000000       0.027
  -0.40000000  0.00000000  0.20000000       0.027
  -0.20000000  0.00000000  0.20000000       0.027
   0.00000000  0.33333333  0.20000000       0.027
   0.20000000  0.33333333  0.20000000       0.027
   0.40000000  0.33333333  0.20000000       0.027
  -0.40000000  0.33333333  0.20000000       0.027
  -0.20000000  0.33333333  0.20000000       0.027
   0.00000000 -0.33333333  0.20000000       0.027
   0.20000000 -0.33333333  0.20000000       0.027
   0.40000000 -0.33333333  0.20000000       0.027
  -0.40000000 -0.33333333  0.20000000       0.027
  -0.20000000 -0.33333333  0.20000000       0.027
   0.00000000  0.00000000  0.40000000       0.027
   0.20000000  0.00000000  0.40000000       0.027
   0.40000000  0.00000000  0.40000000       0.027
  -0.40000000  0.00000000  0.40000000       0.027
  -0.20000000  0.00000000  0.40000000       0.027
   0.00000000  0.33333333  0.40000000       0.027
   0.20000000  0.33333333  0.40000000       0.027
   0.40000000  0.33333333  0.40000000       0.027
  -0.40000000  0.33333333  0.40000000       0.027
  -0.20000000  0.33333333  0.40000000       0.027
   0.00000000 -0.33333333  0.40000000       0.027
   0.20000000 -0.33333333  0.40000000       0.027
   0.40000000 -0.33333333  0.40000000       0.027
  -0.40000000 -0.33333333  0.40000000       0.027
  -0.20000000 -0.33333333  0.40000000       0.027
 
 position of ions in fractional coordinates (direct lattice) 
   0.98008017  0.01801722  0.02151254
   0.25217784  0.32223665  0.85638543
   0.10184166  0.65589930  0.80621125
   0.98424959  0.01537599  0.67927287
   0.23577740  0.33155481  0.53716107
   0.09904510  0.65915396  0.46029795
   0.99331344  0.01370622  0.34322469
   0.25485418  0.32993871  0.18526566
   0.10041927  0.65245477  0.14086532
   0.32617156  0.00938284  0.00893983
   0.57965058  0.32209202  0.85706175
   0.43072269  0.66010902  0.80370225
   0.31878942  0.01148956  0.68019754
   0.56330592  0.31926502  0.53093025
   0.42832632  0.66166351  0.46326530
   0.33089826  0.01628823  0.33511935
   0.57261410  0.32974286  0.19438648
   0.43609885  0.65429495  0.12925965
   0.65893781  0.01823572  0.99968138
   0.90534855  0.32835863  0.86531653
   0.77456959  0.65675816  0.79283327
   0.65547973  0.01405683  0.66591172
   0.90153603  0.33403432  0.52177710
   0.76757502  0.65868113  0.46411597
   0.66108702  0.01889055  0.33722554
   0.91698697  0.32954728  0.18106675
   0.77098722  0.65662140  0.13339408
   0.99229544  0.72449650  0.02705511
   0.02294970  0.25917285  0.96505609
   0.21950864  0.07832922  0.90386435
   0.21339848  0.58911042  0.92385670
   0.12539863  0.39586392  0.76301052
   0.07909345  0.94999061  0.80593599
   0.00764447  0.72779694  0.67550673
   0.00617475  0.26748054  0.64128290
   0.21787562  0.07925947  0.56120184
   0.20913250  0.59041567  0.58018629
   0.12936994  0.39393785  0.40195222
   0.11150522  0.94093048  0.45314029
   0.98882336  0.72812240  0.34123489
   0.02898096  0.26835578  0.29243796
   0.20893817  0.08929905  0.23913429
   0.21383716  0.58821880  0.25301083
   0.14573006  0.39829572  0.06479958
   0.10281963  0.94618681  0.12539067
   0.31797496  0.72508909  0.03044596
   0.34655262  0.24984237  0.97558182
   0.54025971  0.08121377  0.88852651
   0.54271514  0.59320465  0.91007659
   0.46519490  0.39544842  0.75327654
   0.43584570  0.94084687  0.78112458
   0.31630224  0.71888991  0.69922588
   0.34169444  0.26195082  0.64758227
   0.54153662  0.08320211  0.56498966
   0.53111379  0.59369054  0.58333495
   0.46283410  0.39652955  0.41037128
   0.44769273  0.94882420  0.44088118
   0.32644035  0.72587826  0.34346150
   0.35015096  0.25942660  0.31064260
   0.55011775  0.08358790  0.22347061
   0.55686797  0.58513431  0.23603943
   0.47700795  0.39937379  0.07155468
   0.43564192  0.94610724  0.12744031
   0.66332938  0.72509312  0.01793063
   0.68308327  0.25876077  0.98071756
   0.87902163  0.09032446  0.90440004
   0.88098968  0.59203200  0.91263441
   0.79398124  0.40230904  0.74510015
   0.76872672  0.95221402  0.77955637
   0.66127971  0.72994509  0.68255766
   0.68708556  0.25898278  0.63037641
   0.88212645  0.08485588  0.56303456
   0.87409603  0.58954242  0.57855876
   0.78411055  0.38743756  0.41344231
   0.77242351  0.95271611  0.45347532
   0.66164493  0.72298483  0.35421421
   0.67796069  0.25658268  0.30272838
   0.88134931  0.08143549  0.23713178
   0.87809262  0.58091030  0.25193976
   0.80054298  0.39259933  0.07967099
   0.75763872  0.94565839  0.11705640
 
 position of ions in cartesian coordinates  (Angst):
   8.27622344  0.24643365  0.15561540
   5.68297502  4.40744757  6.19484066
   4.21770576  8.97117624  5.83189538
  11.05810819  0.21030777  4.91366043
   4.21278305  4.53489832  3.88566541
   2.74968058  9.01569241  3.32966017
   9.73035074  0.18746920  2.48278660
   2.90247716  4.51279383  1.34015737
   1.42708594  8.92406308  1.01897835
   2.76177037  0.12833542  0.06466810
   8.42110227  4.40546937  6.19973296
   6.95429301  9.02875541  5.81374601
   5.50353788  0.15715045  4.92034922
   6.92252936  4.36680259  3.84059348
   5.51248186  9.05001722  3.35112511
   4.16350174  0.22278509  2.42415495
   5.59474297  4.51011506  1.40613470
   4.18246870  8.94923246  0.93502634
   9.67900392  0.24942222  7.23140148
  11.17605583  4.49118201  6.25944562
   9.78097217  8.98292344  5.73512300
   8.25616971  0.19226473  4.81700979
   9.70945877  4.56881225  3.77438229
   8.34969908  9.00922520  3.35727861
   6.93028695  0.25837877  2.43939051
   8.41558017  4.50743998  1.30978369
   6.99697935  8.98105289  0.96493359
   8.40140261  9.90942632  0.19570872
   4.22213656  3.54488153  6.98093230
   5.60838700  1.07136147  6.53828922
   5.64084597  8.05765977  6.68290801
   4.23404882  5.41449731  5.51939399
   4.02654572 12.99366105  5.82990423
   2.88502677  9.95456866  4.88641727
   2.72981875  3.65851140  4.63885214
   4.16365715  1.08408512  4.05956927
   4.16991425  8.07551255  4.19689721
   2.75930276  5.38815315  2.90760430
   2.82386391 12.86973955  3.27788376
   9.68453600  9.95902019  2.46839297
   1.46340384  3.67048264  2.11541031
   2.74392753  1.22140322  1.72982722
   2.84280138  8.04546448  1.83020603
   1.48787669  5.44775867  0.46874113
   1.38250752 12.94163392  0.90703928
   2.78312392  9.91753157  0.22023713
   6.96907502  3.41726227  7.05707234
   8.22348847  1.11081540  6.42733980
   8.33399947  8.11365931  6.58322674
   7.03163422  5.40881423  5.44898124
   6.90279132 12.86859596  5.65042578
   5.56223268  9.83274121  5.05799464
   5.55864429  3.58287769  4.68441993
   6.88294064  1.13801127  4.08696925
   6.87249814  8.12030515  4.21967369
   5.57981157  5.42360158  2.96850531
   5.58076028 12.97770727  3.18920496
   4.16110588  9.92832558  2.48449961
   4.22209075  3.54835224  2.24709733
   5.52830270  1.14328797  1.61652075
   5.63717790  8.00327584  1.70743991
   4.28317477  5.46250416  0.51760554
   4.17105381 12.94054558  0.92186577
   5.61551926  9.91758669  0.12970491
   9.80148510  3.53924523  7.09422277
  11.11938094  1.23542844  6.54216425
  11.17020947  8.09762018  6.60172926
   9.74376136  5.50265155  5.38983563
   9.67671864 13.02407212  5.63908181
   8.37413538  9.98395035  4.93742163
   8.37175672  3.54228181  4.55995780
   9.71964204  1.16063099  4.07282663
   9.71740082  8.06356852  4.18512414
   8.27618389  5.29924431  2.99072023
   8.34575795 13.03093955  3.28030727
   7.00589822  9.88875019  2.56228156
   6.92715542  3.50945403  2.18984818
   8.35205619  1.11384801  1.71534165
   8.38669761  7.94550121  1.82245822
   7.01948349  5.36984531  0.57631654
   6.81725008 12.93440636  0.84675162
 


--------------------------------------------------------------------------------------------------------


 k-point  1 :   0.0000 0.0000 0.0000  plane waves:   21013
 k-point  2 :   0.2000 0.0000-0.0000  plane waves:   20954
 k-point  3 :   0.4000 0.0000-0.0000  plane waves:   20966
 k-point  4 :   0.0000 0.3333 0.0000  plane waves:   20972
 k-point  5 :   0.2000 0.3333-0.0000  plane waves:   21000
 k-point  6 :   0.4000 0.3333-0.0000  plane waves:   21003
 k-point  7 :  -0.4000 0.3333 0.0000  plane waves:   21003
 k-point  8 :  -0.2000 0.3333 0.0000  plane waves:   21000
 k-point  9 :   0.0000 0.0000 0.2000  plane waves:   20954
 k-point 10 :   0.2000 0.0000 0.2000  plane waves:   20954
 k-point 11 :   0.4000 0.0000 0.2000  plane waves:   20965
 k-point 12 :  -0.4000 0.0000 0.2000  plane waves:   20974
 k-point 13 :  -0.2000 0.0000 0.2000  plane waves:   20965
 k-point 14 :   0.0000 0.3333 0.2000  plane waves:   21000
 k-point 15 :   0.2000 0.3333 0.2000  plane waves:   21000
 k-point 16 :   0.4000 0.3333 0.2000  plane waves:   20977
 k-point 17 :  -0.4000 0.3333 0.2000  plane waves:   20975
 k-point 18 :  -0.2000 0.3333 0.2000  plane waves:   20977
 k-point 19 :   0.0000-0.3333 0.2000  plane waves:   21000
 k-point 20 :   0.2000-0.3333 0.2000  plane waves:   21000
 k-point 21 :   0.4000-0.3333 0.2000  plane waves:   20977
 k-point 22 :  -0.4000-0.3333 0.2000  plane waves:   20975
 k-point 23 :  -0.2000-0.3333 0.2000  plane waves:   20977
 k-point 24 :   0.0000 0.0000 0.4000  plane waves:   20966
 k-point 25 :   0.2000 0.0000 0.4000  plane waves:   20965
 k-point 26 :   0.4000 0.0000 0.4000  plane waves:   20966
 k-point 27 :  -0.4000 0.0000 0.4000  plane waves:   20974
 k-point 28 :  -0.2000 0.0000 0.4000  plane waves:   20974
 k-point 29 :   0.0000 0.3333 0.4000  plane waves:   21003
 k-point 30 :   0.2000 0.3333 0.4000  plane waves:   20977
 k-point 31 :   0.4000 0.3333 0.4000  plane waves:   21003
 k-point 32 :  -0.4000 0.3333 0.4000  plane waves:   20975
 k-point 33 :  -0.2000 0.3333 0.4000  plane waves:   20975
 k-point 34 :   0.0000-0.3333 0.4000  plane waves:   21003
 k-point 35 :   0.2000-0.3333 0.4000  plane waves:   20977
 k-point 36 :   0.4000-0.3333 0.4000  plane waves:   21003
 k-point 37 :  -0.4000-0.3333 0.4000  plane waves:   20975
 k-point 38 :  -0.2000-0.3333 0.4000  plane waves:   20975

 maximum and minimum number of plane-waves per node :     21013    20954

 maximum number of plane-waves:     21013
 maximum index in each direction: 
   IXMAX=   15   IYMAX=   25   IZMAX=   15
   IXMIN=  -15   IYMIN=  -25   IZMIN=  -15

 The following grids will avoid any aliasing or wrap around errors in the Hartre
 e energy
  - symmetry arguments have not been applied
  - exchange correlation energies might require even more grid points
  - we recommend to set PREC=Normal or Accurate and rely on VASP defaults
 NGX is ok and might be reduce to    64
 WARNING: aliasing errors must be expected set NGY to   108 to avoid them
 NGZ is ok and might be reduce to    64

 serial   3D FFT for wavefunctions
 parallel 3D FFT for charge:
    minimum data exchange during FFTs selected (reduces bandwidth)


 total amount of memory used by VASP MPI-rank0  1015429. kBytes
=======================================================================

   base      :      30000. kBytes
   nonl-proj :     257333. kBytes
   fftplans  :       8668. kBytes
   grid      :      49569. kBytes
   one-center:       2519. kBytes
   wavefun   :     667340. kBytes
 
     INWAV:  cpu time    0.0000: real time    0.0000
 Broyden mixing: mesh for mixing (old mesh)
   NGX = 31   NGY = 49   NGZ = 31
  (NGX  =128   NGY  =200   NGZ  =128)
  gives a total of  47089 points

 initial charge density was supplied:
 charge density of overlapping atoms calculated
 number of electron     594.0000000 magnetization      67.5000000
 keeping initial charge density in first step


--------------------------------------------------------------------------------------------------------


 Maximum index for augmentation-charges         1067 (set IRDMAX)


--------------------------------------------------------------------------------------------------------


 First call to EWALD:  gamma=   0.189
 Maximum number of real-space cells 3x 2x 3
 Maximum number of reciprocal cells 2x 4x 2

    FEWALD:  cpu time    0.0028: real time    0.0029


--------------------------------------- Iteration      1(   1)  ---------------------------------------


    POTLOK:  cpu time    0.2412: real time    0.2958
    SETDIJ:  cpu time    0.0265: real time    0.0266
     EDDAV:  cpu time  360.0397: real time  361.0076
    --------------------------------------------
      LOOP:  cpu time  360.3127: real time  361.3351

 eigenvalue-minimisations  : 60800
 total energy-change (2. order) : 0.7841388E+04  (-0.2540395E+05)
 number of electron     594.0000000 magnetization      67.5000000
 augmentation part      594.0000000 magnetization      67.5000000

 Free energy of the ion-electron system (eV)
  ---------------------------------------------------
  alpha Z        PSCENC =      1888.59163116
  Ewald energy   TEWEN  =    -33534.94413370
  -Hartree energ DENC   =    -20441.96456543
  -exchange      EXHF   =         0.00000000
  -V(xc)+E(xc)   XCENC  =      2403.17599602
  PAW double counting   =     44657.83451498   -46540.50596551
  entropy T*S    EENTRO =        -0.00438226
  eigenvalues    EBANDS =      7073.63309691
  atomic energy  EATOM  =     52335.57209710
  Solvation  Ediel_sol  =         0.00000000
  ---------------------------------------------------
  free energy    TOTEN  =      7841.38828928 eV

  energy without entropy =     7841.39267154  energy(sigma->0) =     7841.38975003


--------------------------------------------------------------------------------------------------------




--------------------------------------- Iteration      1(   2)  ---------------------------------------


     EDDAV:  cpu time  362.7201: real time  363.5812
    --------------------------------------------
      LOOP:  cpu time  362.7201: real time  363.5812

 eigenvalue-minimisations  : 61520
 total energy-change (2. order) :-0.6758607E+04  (-0.6109759E+04)
 number of electron     594.0000000 magnetization      67.5000000
 augmentation part      594.0000000 magnetization      67.5000000

 Free energy of the ion-electron system (eV)
  ---------------------------------------------------
  alpha Z        PSCENC =      1888.59163116
  Ewald energy   TEWEN  =    -33534.94413370
  -Hartree energ DENC   =    -20441.96456543
  -exchange      EXHF   =         0.00000000
  -V(xc)+E(xc)   XCENC  =      2403.17599602
  PAW double counting   =     44657.83451498   -46540.50596551
  entropy T*S    EENTRO =         0.00042261
  eigenvalues    EBANDS =       315.02103999
  atomic energy  EATOM  =     52335.57209710
  Solvation  Ediel_sol  =         0.00000000
  ---------------------------------------------------
  free energy    TOTEN  =      1082.78103722 eV

  energy without entropy =     1082.78061461  energy(sigma->0) =     1082.78089635


--------------------------------------------------------------------------------------------------------




--------------------------------------- Iteration      1(   3)  ---------------------------------------


     EDDAV:  cpu time  368.9884: real time  369.8640
    --------------------------------------------
      LOOP:  cpu time  368.9893: real time  369.8649

 eigenvalue-minimisations  : 62976
 total energy-change (2. order) :-0.1607444E+04  (-0.1406149E+04)
 number of electron     594.0000000 magnetization      67.5000000
 augmentation part      594.0000000 magnetization      67.5000000

 Free energy of the ion-electron system (eV)
  ---------------------------------------------------
  alpha Z        PSCENC =      1888.59163116
  Ewald energy   TEWEN  =    -33534.94413370
  -Hartree energ DENC   =    -20441.96456543
  -exchange      EXHF   =         0.00000000
  -V(xc)+E(xc)   XCENC  =      2403.17599602
  PAW double counting   =     44657.83451498   -46540.50596551
  entropy T*S    EENTRO =        -0.01911065
  eigenvalues    EBANDS =     -1292.40298161
  atomic energy  EATOM  =     52335.57209710
  Solvation  Ediel_sol  =         0.00000000
  ---------------------------------------------------
  free energy    TOTEN  =      -524.66251763 eV

  energy without entropy =     -524.64340698  energy(sigma->0) =     -524.65614741


--------------------------------------------------------------------------------------------------------




--------------------------------------- Iteration      1(   4)  ---------------------------------------


     EDDAV:  cpu time  396.3235: real time  397.2637
    --------------------------------------------
      LOOP:  cpu time  396.3233: real time  397.2636

 eigenvalue-minimisations  : 69184
 total energy-change (2. order) :-0.1649380E+03  (-0.1597411E+03)
 number of electron     594.0000000 magnetization      67.5000000
 augmentation part      594.0000000 magnetization      67.5000000

 Free energy of the ion-electron system (eV)
  ---------------------------------------------------
  alpha Z        PSCENC =      1888.59163116
  Ewald energy   TEWEN  =    -33534.94413370
  -Hartree energ DENC   =    -20441.96456543
  -exchange      EXHF   =         0.00000000
  -V(xc)+E(xc)   XCENC  =      2403.17599602
  PAW double counting   =     44657.83451498   -46540.50596551
  entropy T*S    EENTRO =        -0.05761504
  eigenvalues    EBANDS =     -1457.30248550
  atomic energy  EATOM  =     52335.57209710
  Solvation  Ediel_sol  =         0.00000000
  ---------------------------------------------------
  free energy    TOTEN  =      -689.60052591 eV

  energy without entropy =     -689.54291087  energy(sigma->0) =     -689.58132090


--------------------------------------------------------------------------------------------------------




--------------------------------------- Iteration      1(   5)  ---------------------------------------


     EDDAV:  cpu time  388.4495: real time  389.3712
    CHARGE:  cpu time   11.0858: real time   11.1122
    MIXING:  cpu time    0.0047: real time    0.0047
    --------------------------------------------
      LOOP:  cpu time  399.5340: real time  400.4821

 eigenvalue-minimisations  : 67424
 total energy-change (2. order) :-0.4233359E+01  (-0.4211325E+01)
 number of electron     594.0000047 magnetization      64.5363873
 augmentation part      168.9805747 magnetization      51.2841283

 Broyden mixing:
  rms(total) = 0.16044E+02    rms(broyden)= 0.16043E+02
  rms(prec ) = 0.17754E+02
  weight for this iteration     100.00

 Free energy of the ion-electron system (eV)
  ---------------------------------------------------
  alpha Z        PSCENC =      1888.59163116
  Ewald energy   TEWEN  =    -33534.94413370
  -Hartree energ DENC   =    -20441.96456543
  -exchange      EXHF   =         0.00000000
  -V(xc)+E(xc)   XCENC  =      2403.17599602
  PAW double counting   =     44657.83451498   -46540.50596551
  entropy T*S    EENTRO =        -0.05678816
  eigenvalues    EBANDS =     -1461.53667125
  atomic energy  EATOM  =     52335.57209710
  Solvation  Ediel_sol  =         0.00000000
  ---------------------------------------------------
  free energy    TOTEN  =      -693.83388478 eV

  energy without entropy =     -693.77709662  energy(sigma->0) =     -693.81495540


--------------------------------------------------------------------------------------------------------




--------------------------------------- Iteration      1(   6)  ---------------------------------------


    POTLOK:  cpu time    0.2041: real time    0.2046
    SETDIJ:  cpu time    0.0273: real time    0.0273
     EDDAV:  cpu time  510.7929: real time  512.0049
    CHARGE:  cpu time   11.0843: real time   11.1107
    MIXING:  cpu time    0.0051: real time    0.0051
    --------------------------------------------
      LOOP:  cpu time  522.1137: real time  523.3526

 eigenvalue-minimisations  : 94432
 total energy-change (2. order) :-0.1651442E+03  (-0.1648407E+03)
 number of electron     594.0000087 magnetization      60.1559251
 augmentation part      232.4848897 magnetization      56.5175391

 Broyden mixing:
  rms(total) = 0.27153E+02    rms(broyden)= 0.27151E+02
  rms(prec ) = 0.28518E+02
  weight for this iteration     100.00

 eigenvalues of (default mixing * dielectric matrix)
  average eigenvalue GAMMA=   0.1888
  0.1888

 Free energy of the ion-electron system (eV)
  ---------------------------------------------------
  alpha Z        PSCENC =      1888.59163116
  Ewald energy   TEWEN  =    -33534.94413370
  -Hartree energ DENC   =    -19380.90243269
  -exchange      EXHF   =         0.00000000
  -V(xc)+E(xc)   XCENC  =      2400.97741582
  PAW double counting   =     49633.90736547   -51192.24892410
  entropy T*S    EENTRO =         0.00590679
  eigenvalues    EBANDS =     -3009.93703385
  atomic energy  EATOM  =     52335.57209710
  Solvation  Ediel_sol  =         0.00000000
  ---------------------------------------------------
  free energy    TOTEN  =      -858.97810799 eV

  energy without entropy =     -858.98401478  energy(sigma->0) =     -858.98007692


--------------------------------------------------------------------------------------------------------




--------------------------------------- Iteration      1(   7)  ---------------------------------------


    POTLOK:  cpu time    0.2042: real time    0.2047
    SETDIJ:  cpu time    0.0272: real time    0.0273
     EDDAV:  cpu time  456.5409: real time  457.6242
    CHARGE:  cpu time   11.0806: real time   11.1069
    MIXING:  cpu time    0.0049: real time    0.0049
    --------------------------------------------
      LOOP:  cpu time  467.8579: real time  468.9680

 eigenvalue-minimisations  : 82352
 total energy-change (2. order) : 0.2941680E+03  (-0.3916297E+02)
 number of electron     594.0000076 magnetization      49.3952390
 augmentation part      213.9228337 magnetization      47.2609025

 Broyden mixing:
  rms(total) = 0.11467E+02    rms(broyden)= 0.11466E+02
  rms(prec ) = 0.12523E+02
  weight for this iteration     100.00

 eigenvalues of (default mixing * dielectric matrix)
  average eigenvalue GAMMA=   0.5600
  0.5600  0.5600

 Free energy of the ion-electron system (eV)
  ---------------------------------------------------
  alpha Z        PSCENC =      1888.59163116
  Ewald energy   TEWEN  =    -33534.94413370
  -Hartree energ DENC   =    -19744.58653586
  -exchange      EXHF   =         0.00000000
  -V(xc)+E(xc)   XCENC  =      2395.73877815
  PAW double counting   =     51624.66561644   -53391.36414879
  entropy T*S    EENTRO =         0.00003051
  eigenvalues    EBANDS =     -2138.48341270
  atomic energy  EATOM  =     52335.57209710
  Solvation  Ediel_sol  =         0.00000000
  ---------------------------------------------------
  free energy    TOTEN  =      -564.81007770 eV

  energy without entropy =     -564.81010821  energy(sigma->0) =     -564.81008787


--------------------------------------------------------------------------------------------------------




--------------------------------------- Iteration      1(   8)  ---------------------------------------


    POTLOK:  cpu time    0.2039: real time    0.2044
    SETDIJ:  cpu time    0.0275: real time    0.0276
     EDDAV:  cpu time  459.5572: real time  460.6477
    CHARGE:  cpu time   11.0138: real time   11.0399
    MIXING:  cpu time    0.0051: real time    0.0051
    --------------------------------------------
      LOOP:  cpu time  470.8076: real time  471.9248

 eigenvalue-minimisations  : 83056
 total energy-change (2. order) : 0.7112580E+02  (-0.2597708E+02)
 number of electron     594.0000061 magnetization      44.5336429
 augmentation part      190.1764598 magnetization      40.7806240

 Broyden mixing:
  rms(total) = 0.69845E+01    rms(broyden)= 0.69818E+01
  rms(prec ) = 0.84967E+01
  weight for this iteration     100.00

 eigenvalues of (default mixing * dielectric matrix)
  average eigenvalue GAMMA=   0.5184
  0.6199  0.6199  0.3154

 Free energy of the ion-electron system (eV)
  ---------------------------------------------------
  alpha Z        PSCENC =      1888.59163116
  Ewald energy   TEWEN  =    -33534.94413370
  -Hartree energ DENC   =    -19919.96846396
  -exchange      EXHF   =         0.00000000
  -V(xc)+E(xc)   XCENC  =      2389.07437319
  PAW double counting   =     53848.78706139   -55771.64499731
  entropy T*S    EENTRO =        -0.00268257
  eigenvalues    EBANDS =     -1729.14916367
  atomic energy  EATOM  =     52335.57209710
  Solvation  Ediel_sol  =         0.00000000
  ---------------------------------------------------
  free energy    TOTEN  =      -493.68427837 eV

  energy without entropy =     -493.68159580  energy(sigma->0) =     -493.68338418


--------------------------------------------------------------------------------------------------------




--------------------------------------- Iteration      1(   9)  ---------------------------------------


    POTLOK:  cpu time    0.2037: real time    0.2042
    SETDIJ:  cpu time    0.0274: real time    0.0274
     EDDAV:  cpu time  476.0153: real time  477.1448
    CHARGE:  cpu time   11.0230: real time   11.0492
    MIXING:  cpu time    0.0058: real time    0.0058
    --------------------------------------------
      LOOP:  cpu time  487.2752: real time  488.4314

 eigenvalue-minimisations  : 85984
 total energy-change (2. order) :-0.6076355E+01  (-0.1934309E+02)
 number of electron     594.0000069 magnetization      41.1008879
 augmentation part      189.3805050 magnetization      37.9577283

 Broyden mixing:
  rms(total) = 0.93954E+01    rms(broyden)= 0.93948E+01
  rms(prec ) = 0.11421E+02
  weight for this iteration     100.00

 eigenvalues of (default mixing * dielectric matrix)
  average eigenvalue GAMMA=   0.4422
  0.6303  0.6303  0.3912  0.1170

 Free energy of the ion-electron system (eV)
  ---------------------------------------------------
  alpha Z        PSCENC =      1888.59163116
  Ewald energy   TEWEN  =    -33534.94413370
  -Hartree energ DENC   =    -19862.09433128
  -exchange      EXHF   =         0.00000000
  -V(xc)+E(xc)   XCENC  =      2388.53579099
  PAW double counting   =     54916.21151127   -56851.41658607
  entropy T*S    EENTRO =         0.00469290
  eigenvalues    EBANDS =     -1780.22130622
  atomic energy  EATOM  =     52335.57209710
  Solvation  Ediel_sol  =         0.00000000
  ---------------------------------------------------
  free energy    TOTEN  =      -499.76063384 eV

  energy without entropy =     -499.76532674  energy(sigma->0) =     -499.76219814


--------------------------------------------------------------------------------------------------------




--------------------------------------- Iteration      1(  10)  ---------------------------------------


    POTLOK:  cpu time    0.2037: real time    0.2042
    SETDIJ:  cpu time    0.0273: real time    0.0274
     EDDAV:  cpu time  473.1879: real time  474.3106
    CHARGE:  cpu time   11.0578: real time   11.0840
    MIXING:  cpu time    0.0054: real time    0.0054
    --------------------------------------------
      LOOP:  cpu time  484.4821: real time  485.6316

 eigenvalue-minimisations  : 86112
 total energy-change (2. order) : 0.2733029E+02  (-0.8870286E+01)
 number of electron     594.0000066 magnetization      35.1452401
 augmentation part      192.0424428 magnetization      34.0991980

 Broyden mixing:
  rms(total) = 0.36403E+01    rms(broyden)= 0.36395E+01
  rms(prec ) = 0.40104E+01
  weight for this iteration     100.00

 eigenvalues of (default mixing * dielectric matrix)
  average eigenvalue GAMMA=   0.4733
  1.0135  0.4263  0.4059  0.4059  0.1147

 Free energy of the ion-electron system (eV)
  ---------------------------------------------------
  alpha Z        PSCENC =      1888.59163116
  Ewald energy   TEWEN  =    -33534.94413370
  -Hartree energ DENC   =    -19845.20757492
  -exchange      EXHF   =         0.00000000
  -V(xc)+E(xc)   XCENC  =      2390.09212265
  PAW double counting   =     55652.94258067   -57594.37070062
  entropy T*S    EENTRO =        -0.00465483
  eigenvalues    EBANDS =     -1765.10170958
  atomic energy  EATOM  =     52335.57209710
  Solvation  Ediel_sol  =         0.00000000
  ---------------------------------------------------
  free energy    TOTEN  =      -472.43034206 eV

  energy without entropy =     -472.42568723  energy(sigma->0) =     -472.42879045


--------------------------------------------------------------------------------------------------------




--------------------------------------- Iteration      1(  11)  ---------------------------------------


    POTLOK:  cpu time    0.2038: real time    0.2043
    SETDIJ:  cpu time    0.0275: real time    0.0275
     EDDAV:  cpu time  469.3207: real time  470.4341
    CHARGE:  cpu time   11.1422: real time   11.1688
    MIXING:  cpu time    0.0058: real time    0.0058
    --------------------------------------------
      LOOP:  cpu time  480.7000: real time  481.8405

 eigenvalue-minimisations  : 85376
 total energy-change (2. order) : 0.1216232E+02  (-0.1600640E+01)
 number of electron     594.0000066 magnetization      26.7749505
 augmentation part      194.1059555 magnetization      25.0117315

 Broyden mixing:
  rms(total) = 0.23924E+01    rms(broyden)= 0.23920E+01
  rms(prec ) = 0.25712E+01
  weight for this iteration     100.00

 eigenvalues of (default mixing * dielectric matrix)
  average eigenvalue GAMMA=   0.5610
  1.4298  0.4396  0.4396  0.4720  0.4720  0.1129

 Free energy of the ion-electron system (eV)
  ---------------------------------------------------
  alpha Z        PSCENC =      1888.59163116
  Ewald energy   TEWEN  =    -33534.94413370
  -Hartree energ DENC   =    -19851.40766485
  -exchange      EXHF   =         0.00000000
  -V(xc)+E(xc)   XCENC  =      2394.54561559
  PAW double counting   =     56635.67903524   -58583.14726454
  entropy T*S    EENTRO =         0.00732626
  eigenvalues    EBANDS =     -1745.16466052
  atomic energy  EATOM  =     52335.57209710
  Solvation  Ediel_sol  =         0.00000000
  ---------------------------------------------------
  free energy    TOTEN  =      -460.26801825 eV

  energy without entropy =     -460.27534451  energy(sigma->0) =     -460.27046034


--------------------------------------------------------------------------------------------------------




--------------------------------------- Iteration      1(  12)  ---------------------------------------


    POTLOK:  cpu time    0.2038: real time    0.2043
    SETDIJ:  cpu time    0.0273: real time    0.0273
     EDDAV:  cpu time  474.1076: real time  475.2323
    CHARGE:  cpu time   11.1429: real time   11.1693
    MIXING:  cpu time    0.0063: real time    0.0063
    --------------------------------------------
      LOOP:  cpu time  485.4879: real time  486.6396

 eigenvalue-minimisations  : 86496
 total energy-change (2. order) :-0.1992108E+00  (-0.1409531E+01)
 number of electron     594.0000067 magnetization      19.5974177
 augmentation part      194.8622163 magnetization      17.1852164

 Broyden mixing:
  rms(total) = 0.19259E+01    rms(broyden)= 0.19256E+01
  rms(prec ) = 0.21368E+01
  weight for this iteration     100.00

 eigenvalues of (default mixing * dielectric matrix)
  average eigenvalue GAMMA=   0.5789
  1.5944  0.5769  0.5769  0.4602  0.4602  0.2707  0.1130

 Free energy of the ion-electron system (eV)
  ---------------------------------------------------
  alpha Z        PSCENC =      1888.59163116
  Ewald energy   TEWEN  =    -33534.94413370
  -Hartree energ DENC   =    -19896.35383835
  -exchange      EXHF   =         0.00000000
  -V(xc)+E(xc)   XCENC  =      2397.57106620
  PAW double counting   =     57918.36588472   -59880.38734181
  entropy T*S    EENTRO =         0.01184076
  eigenvalues    EBANDS =     -1688.89443516
  atomic energy  EATOM  =     52335.57209710
  Solvation  Ediel_sol  =         0.00000000
  ---------------------------------------------------
  free energy    TOTEN  =      -460.46722908 eV

  energy without entropy =     -460.47906984  energy(sigma->0) =     -460.47117600


--------------------------------------------------------------------------------------------------------




--------------------------------------- Iteration      1(  13)  ---------------------------------------


    POTLOK:  cpu time    0.2038: real time    0.2043
    SETDIJ:  cpu time    0.0274: real time    0.0274
     EDDAV:  cpu time  431.7908: real time  432.8152
    CHARGE:  cpu time   11.1394: real time   11.1658
    MIXING:  cpu time    0.0065: real time    0.0065
    --------------------------------------------
      LOOP:  cpu time  443.1679: real time  444.2193

 eigenvalue-minimisations  : 76944
 total energy-change (2. order) :-0.1170059E+02  (-0.1010807E+01)
 number of electron     594.0000066 magnetization      14.0385052
 augmentation part      194.2546876 magnetization      11.9702747

 Broyden mixing:
  rms(total) = 0.12937E+01    rms(broyden)= 0.12935E+01
  rms(prec ) = 0.14221E+01
  weight for this iteration     100.00

 eigenvalues of (default mixing * dielectric matrix)
  average eigenvalue GAMMA=   0.6207
  1.7898  0.7492  0.7492  0.4545  0.4545  0.4008  0.2545  0.1130

 Free energy of the ion-electron system (eV)
  ---------------------------------------------------
  alpha Z        PSCENC =      1888.59163116
  Ewald energy   TEWEN  =    -33534.94413370
  -Hartree energ DENC   =    -19938.10585436
  -exchange      EXHF   =         0.00000000
  -V(xc)+E(xc)   XCENC  =      2393.34782127
  PAW double counting   =     58937.13082107   -60914.97858351
  entropy T*S    EENTRO =         0.01721968
  eigenvalues    EBANDS =     -1638.79884128
  atomic energy  EATOM  =     52335.57209710
  Solvation  Ediel_sol  =         0.00000000
  ---------------------------------------------------
  free energy    TOTEN  =      -472.16782256 eV

  energy without entropy =     -472.18504224  energy(sigma->0) =     -472.17356245


--------------------------------------------------------------------------------------------------------




--------------------------------------- Iteration      1(  14)  ---------------------------------------


    POTLOK:  cpu time    0.2043: real time    0.2047
    SETDIJ:  cpu time    0.0274: real time    0.0275
     EDDAV:  cpu time  443.0428: real time  444.0938
    CHARGE:  cpu time   11.1651: real time   11.1916
    MIXING:  cpu time    0.0067: real time    0.0067
    --------------------------------------------
      LOOP:  cpu time  454.4462: real time  455.5244

 eigenvalue-minimisations  : 79456
 total energy-change (2. order) :-0.1196552E+02  (-0.9536395E+00)
 number of electron     594.0000068 magnetization       7.5602138
 augmentation part      194.1798150 magnetization       5.9727765

 Broyden mixing:
  rms(total) = 0.11006E+01    rms(broyden)= 0.11005E+01
  rms(prec ) = 0.12281E+01
  weight for this iteration     100.00

 eigenvalues of (default mixing * dielectric matrix)
  average eigenvalue GAMMA=   0.6734
  2.1632  0.9259  0.9259  0.4748  0.4748  0.4254  0.1130  0.3095  0.2480

 Free energy of the ion-electron system (eV)
  ---------------------------------------------------
  alpha Z        PSCENC =      1888.59163116
  Ewald energy   TEWEN  =    -33534.94413370
  -Hartree energ DENC   =    -19948.37268827
  -exchange      EXHF   =         0.00000000
  -V(xc)+E(xc)   XCENC  =      2388.10742143
  PAW double counting   =     59626.02135090   -61610.94690636
  entropy T*S    EENTRO =         0.00722212
  eigenvalues    EBANDS =     -1628.16933477
  atomic energy  EATOM  =     52335.57209710
  Solvation  Ediel_sol  =         0.00000000
  ---------------------------------------------------
  free energy    TOTEN  =      -484.13334038 eV

  energy without entropy =     -484.14056250  energy(sigma->0) =     -484.13574776


--------------------------------------------------------------------------------------------------------




--------------------------------------- Iteration      1(  15)  ---------------------------------------


    POTLOK:  cpu time    0.2041: real time    0.2046
    SETDIJ:  cpu time    0.0273: real time    0.0274
     EDDAV:  cpu time  442.5699: real time  443.6198
    CHARGE:  cpu time   11.1560: real time   11.1825
    MIXING:  cpu time    0.0071: real time    0.0071
    --------------------------------------------
      LOOP:  cpu time  453.9644: real time  455.0413

 eigenvalue-minimisations  : 79344
 total energy-change (2. order) :-0.1153976E+02  (-0.1324724E+01)
 number of electron     594.0000067 magnetization       5.0228055
 augmentation part      194.5693852 magnetization       4.0893072

 Broyden mixing:
  rms(total) = 0.54123E+00    rms(broyden)= 0.54105E+00
  rms(prec ) = 0.61171E+00
  weight for this iteration     100.00

 eigenvalues of (default mixing * dielectric matrix)
  average eigenvalue GAMMA=   0.7164
  2.4124  1.0388  1.0388  0.6178  0.4767  0.4767  0.4685  0.1130  0.2780  0.2437

 Free energy of the ion-electron system (eV)
  ---------------------------------------------------
  alpha Z        PSCENC =      1888.59163116
  Ewald energy   TEWEN  =    -33534.94413370
  -Hartree energ DENC   =    -19936.43306419
  -exchange      EXHF   =         0.00000000
  -V(xc)+E(xc)   XCENC  =      2382.57973974
  PAW double counting   =     60299.59116670   -62287.29312562
  entropy T*S    EENTRO =         0.01023855
  eigenvalues    EBANDS =     -1643.34764661
  atomic energy  EATOM  =     52335.57209710
  Solvation  Ediel_sol  =         0.00000000
  ---------------------------------------------------
  free energy    TOTEN  =      -495.67309685 eV

  energy without entropy =     -495.68333540  energy(sigma->0) =     -495.67650970


--------------------------------------------------------------------------------------------------------




--------------------------------------- Iteration      1(  16)  ---------------------------------------


    POTLOK:  cpu time    0.2039: real time    0.2044
    SETDIJ:  cpu time    0.0272: real time    0.0273
     EDDAV:  cpu time  428.5223: real time  429.5389
    CHARGE:  cpu time   11.1391: real time   11.1655
    MIXING:  cpu time    0.0074: real time    0.0237
    --------------------------------------------
      LOOP:  cpu time  439.8999: real time  440.9598

 eigenvalue-minimisations  : 76112
 total energy-change (2. order) :-0.4602992E+01  (-0.6801088E+00)
 number of electron     594.0000067 magnetization       3.5449361
 augmentation part      194.6345377 magnetization       3.0712083

 Broyden mixing:
  rms(total) = 0.44701E+00    rms(broyden)= 0.44691E+00
  rms(prec ) = 0.50652E+00
  weight for this iteration     100.00

 eigenvalues of (default mixing * dielectric matrix)
  average eigenvalue GAMMA=   0.7386
  2.5755  1.4868  0.8221  0.8221  0.4775  0.4775  0.4763  0.1130  0.3641  0.2688
  0.2406

 Free energy of the ion-electron system (eV)
  ---------------------------------------------------
  alpha Z        PSCENC =      1888.59163116
  Ewald energy   TEWEN  =    -33534.94413370
  -Hartree energ DENC   =    -19910.48896861
  -exchange      EXHF   =         0.00000000
  -V(xc)+E(xc)   XCENC  =      2379.85190997
  PAW double counting   =     60357.18775312   -62342.49500574
  entropy T*S    EENTRO =         0.01206719
  eigenvalues    EBANDS =     -1673.56343924
  atomic energy  EATOM  =     52335.57209710
  Solvation  Ediel_sol  =         0.00000000
  ---------------------------------------------------
  free energy    TOTEN  =      -500.27608875 eV

  energy without entropy =     -500.28815594  energy(sigma->0) =     -500.28011115


--------------------------------------------------------------------------------------------------------




--------------------------------------- Iteration      1(  17)  ---------------------------------------


    POTLOK:  cpu time    0.2048: real time    0.2052
    SETDIJ:  cpu time    0.0273: real time    0.0273
     EDDAV:  cpu time  434.5139: real time  435.5447
    CHARGE:  cpu time   11.1543: real time   11.1808
    MIXING:  cpu time    0.0074: real time    0.0074
    --------------------------------------------
      LOOP:  cpu time  445.9076: real time  446.9654

 eigenvalue-minimisations  : 77440
 total energy-change (2. order) :-0.1126365E+01  (-0.2004465E+00)
 number of electron     594.0000067 magnetization       2.3522316
 augmentation part      194.7945637 magnetization       2.1236947

 Broyden mixing:
  rms(total) = 0.31233E+00    rms(broyden)= 0.31228E+00
  rms(prec ) = 0.35720E+00
  weight for this iteration     100.00

 eigenvalues of (default mixing * dielectric matrix)
  average eigenvalue GAMMA=   0.7594
  2.8472  1.6320  0.8672  0.8672  0.4818  0.4818  0.5031  0.5031  0.1130  0.3081
  0.2691  0.2396

 Free energy of the ion-electron system (eV)
  ---------------------------------------------------
  alpha Z        PSCENC =      1888.59163116
  Ewald energy   TEWEN  =    -33534.94413370
  -Hartree energ DENC   =    -19878.62807321
  -exchange      EXHF   =         0.00000000
  -V(xc)+E(xc)   XCENC  =      2377.83393302
  PAW double counting   =     60238.41229361   -62220.36452351
  entropy T*S    EENTRO =         0.00935435
  eigenvalues    EBANDS =     -1707.88503305
  atomic energy  EATOM  =     52335.57209710
  Solvation  Ediel_sol  =         0.00000000
  ---------------------------------------------------
  free energy    TOTEN  =      -501.40245424 eV

  energy without entropy =     -501.41180858  energy(sigma->0) =     -501.40557235


--------------------------------------------------------------------------------------------------------




--------------------------------------- Iteration      1(  18)  ---------------------------------------


    POTLOK:  cpu time    0.2040: real time    0.2046
    SETDIJ:  cpu time    0.0273: real time    0.0274
     EDDAV:  cpu time  439.8536: real time  440.8970
    CHARGE:  cpu time   11.1568: real time   11.1833
    MIXING:  cpu time    0.0077: real time    0.0077
    --------------------------------------------
      LOOP:  cpu time  451.2495: real time  452.3200

 eigenvalue-minimisations  : 78640
 total energy-change (2. order) :-0.1710124E+00  (-0.6328505E-01)
 number of electron     594.0000067 magnetization       1.4418122
 augmentation part      194.7703968 magnetization       1.3448042

 Broyden mixing:
  rms(total) = 0.21805E+00    rms(broyden)= 0.21800E+00
  rms(prec ) = 0.25630E+00
  weight for this iteration     100.00

 eigenvalues of (default mixing * dielectric matrix)
  average eigenvalue GAMMA=   0.7698
  3.0488  1.6610  0.9480  0.9480  0.5768  0.5768  0.4771  0.4771  0.3965  0.1130
  0.2891  0.2575  0.2381

 Free energy of the ion-electron system (eV)
  ---------------------------------------------------
  alpha Z        PSCENC =      1888.59163116
  Ewald energy   TEWEN  =    -33534.94413370
  -Hartree energ DENC   =    -19860.16505119
  -exchange      EXHF   =         0.00000000
  -V(xc)+E(xc)   XCENC  =      2376.90599517
  PAW double counting   =     60163.25412834   -62144.25119992
  entropy T*S    EENTRO =         0.01001569
  eigenvalues    EBANDS =     -1726.54694932
  atomic energy  EATOM  =     52335.57209710
  Solvation  Ediel_sol  =         0.00000000
  ---------------------------------------------------
  free energy    TOTEN  =      -501.57346666 eV

  energy without entropy =     -501.58348235  energy(sigma->0) =     -501.57680522


--------------------------------------------------------------------------------------------------------




--------------------------------------- Iteration      1(  19)  ---------------------------------------


    POTLOK:  cpu time    0.2037: real time    0.2042
    SETDIJ:  cpu time    0.0275: real time    0.0276
     EDDAV:  cpu time  436.8681: real time  437.9047
    CHARGE:  cpu time   11.1570: real time   11.1835
    MIXING:  cpu time    0.0076: real time    0.0077
    --------------------------------------------
      LOOP:  cpu time  448.2640: real time  449.3276

 eigenvalue-minimisations  : 77952
 total energy-change (2. order) : 0.8814308E-02  (-0.1608762E-01)
 number of electron     594.0000067 magnetization       0.8659150
 augmentation part      194.7162070 magnetization       0.8157179

 Broyden mixing:
  rms(total) = 0.16079E+00    rms(broyden)= 0.16077E+00
  rms(prec ) = 0.18598E+00
  weight for this iteration     100.00

 eigenvalues of (default mixing * dielectric matrix)
  average eigenvalue GAMMA=   0.7761
  3.1952  1.6572  1.0495  1.0495  0.6469  0.6469  0.4761  0.4761  0.4479  0.1130
  0.3394  0.2760  0.2542  0.2376

 Free energy of the ion-electron system (eV)
  ---------------------------------------------------
  alpha Z        PSCENC =      1888.59163116
  Ewald energy   TEWEN  =    -33534.94413370
  -Hartree energ DENC   =    -19854.99491463
  -exchange      EXHF   =         0.00000000
  -V(xc)+E(xc)   XCENC  =      2376.79440162
  PAW double counting   =     60135.10140725   -62116.75214867
  entropy T*S    EENTRO =         0.01056633
  eigenvalues    EBANDS =     -1730.94355881
  atomic energy  EATOM  =     52335.57209710
  Solvation  Ediel_sol  =         0.00000000
  ---------------------------------------------------
  free energy    TOTEN  =      -501.56465235 eV

  energy without entropy =     -501.57521868  energy(sigma->0) =     -501.56817446


--------------------------------------------------------------------------------------------------------




--------------------------------------- Iteration      1(  20)  ---------------------------------------


    POTLOK:  cpu time    0.2035: real time    0.2040
    SETDIJ:  cpu time    0.0272: real time    0.0272
     EDDAV:  cpu time  415.1765: real time  416.1614
    CHARGE:  cpu time   11.2033: real time   11.2299
    MIXING:  cpu time    0.0080: real time    0.0080
    --------------------------------------------
      LOOP:  cpu time  426.6185: real time  427.6306

 eigenvalue-minimisations  : 73088
 total energy-change (2. order) :-0.3836843E-03  (-0.5708705E-02)
 number of electron     594.0000067 magnetization       0.4269458
 augmentation part      194.6563109 magnetization       0.3982082

 Broyden mixing:
  rms(total) = 0.10562E+00    rms(broyden)= 0.10559E+00
  rms(prec ) = 0.12639E+00
  weight for this iteration     100.00

 eigenvalues of (default mixing * dielectric matrix)
  average eigenvalue GAMMA=   0.7941
  3.3437  1.6792  1.2083  1.2083  0.7293  0.6717  0.4785  0.4785  0.5325  0.1130
  0.3999  0.3096  0.2723  0.2375  0.2494

 Free energy of the ion-electron system (eV)
  ---------------------------------------------------
  alpha Z        PSCENC =      1888.59163116
  Ewald energy   TEWEN  =    -33534.94413370
  -Hartree energ DENC   =    -19854.03417473
  -exchange      EXHF   =         0.00000000
  -V(xc)+E(xc)   XCENC  =      2376.87053497
  PAW double counting   =     60113.31781925   -62095.67498303
  entropy T*S    EENTRO =         0.01001048
  eigenvalues    EBANDS =     -1731.27383754
  atomic energy  EATOM  =     52335.57209710
  Solvation  Ediel_sol  =         0.00000000
  ---------------------------------------------------
  free energy    TOTEN  =      -501.56503604 eV

  energy without entropy =     -501.57504651  energy(sigma->0) =     -501.56837286


--------------------------------------------------------------------------------------------------------




--------------------------------------- Iteration      1(  21)  ---------------------------------------


    POTLOK:  cpu time    0.2038: real time    0.2044
    SETDIJ:  cpu time    0.0273: real time    0.0274
     EDDAV:  cpu time  396.4694: real time  397.4102
    CHARGE:  cpu time   11.2518: real time   11.2785
    MIXING:  cpu time    0.0087: real time    0.0087
    --------------------------------------------
      LOOP:  cpu time  407.9610: real time  408.9291

 eigenvalue-minimisations  : 68512
 total energy-change (2. order) : 0.8304042E-03  (-0.2336553E-02)
 number of electron     594.0000067 magnetization       0.1967222
 augmentation part      194.6292141 magnetization       0.1782183

 Broyden mixing:
  rms(total) = 0.66999E-01    rms(broyden)= 0.66988E-01
  rms(prec ) = 0.84932E-01
  weight for this iteration     100.00

 eigenvalues of (default mixing * dielectric matrix)
  average eigenvalue GAMMA=   0.8134
  3.5046  1.8902  1.2587  1.2587  0.7444  0.7444  0.6348  0.4777  0.4777  0.4848
  0.1130  0.3714  0.3044  0.2650  0.2492  0.2359

 Free energy of the ion-electron system (eV)
  ---------------------------------------------------
  alpha Z        PSCENC =      1888.59163116
  Ewald energy   TEWEN  =    -33534.94413370
  -Hartree energ DENC   =    -19853.33927613
  -exchange      EXHF   =         0.00000000
  -V(xc)+E(xc)   XCENC  =      2376.97937165
  PAW double counting   =     60080.61823888   -62063.39302823
  entropy T*S    EENTRO =         0.01057429
  eigenvalues    EBANDS =     -1731.65968066
  atomic energy  EATOM  =     52335.57209710
  Solvation  Ediel_sol  =         0.00000000
  ---------------------------------------------------
  free energy    TOTEN  =      -501.56420563 eV

  energy without entropy =     -501.57477993  energy(sigma->0) =     -501.56773040


--------------------------------------------------------------------------------------------------------




--------------------------------------- Iteration      1(  22)  ---------------------------------------


    POTLOK:  cpu time    0.2121: real time    0.2126
    SETDIJ:  cpu time    0.0278: real time    0.0278
     EDDAV:  cpu time  463.1398: real time  464.2387
[...]
   -.742E+01 -.431E+03 -.218E+02   0.967E+01 0.459E+03 0.234E+02   -.195E+01 -.278E+02 -.349E+00   -.110E-02 -.716E-02 0.532E-04
   0.876E+01 0.522E+03 -.324E+02   -.883E+01 -.550E+03 0.333E+02   -.509E+00 0.268E+02 -.732E-01   0.202E-02 0.211E-02 -.536E-03
   -.126E+02 -.463E+03 -.803E+01   0.112E+02 0.491E+03 0.691E+01   0.130E+01 -.281E+02 0.157E+01   0.145E-01 0.688E-02 -.271E-02
   0.155E+02 0.297E+03 -.302E+02   -.156E+02 -.323E+03 0.322E+02   0.277E-01 0.274E+02 -.200E+01   -.798E-02 0.107E-01 -.485E-02
   0.559E+01 -.207E+03 -.412E+01   -.531E+01 0.235E+03 0.380E+01   -.247E+00 -.273E+02 0.278E+00   -.330E-03 0.970E-02 -.302E-03
   0.378E+01 0.252E+03 -.232E+02   -.403E+01 -.278E+03 0.255E+02   -.553E+00 0.274E+02 -.173E+01   0.110E-02 -.139E-01 -.360E-03
   0.294E+01 -.426E+03 0.798E+01   -.285E+01 0.454E+03 -.105E+02   -.496E+00 -.289E+02 0.269E+01   -.639E-02 -.149E-01 -.287E-02
   -.420E+01 0.527E+03 0.185E+02   0.630E+01 -.556E+03 -.194E+02   -.220E+01 0.287E+02 -.717E+00   0.827E-03 0.408E-02 -.150E-02
   0.239E+01 -.457E+03 0.456E+01   -.345E+01 0.483E+03 -.437E+01   0.792E+00 -.269E+02 -.171E+00   0.281E-03 0.271E-03 -.577E-03
   0.380E+01 0.305E+03 0.165E+02   -.266E+01 -.333E+03 -.161E+02   -.120E+01 0.278E+02 -.129E+01   -.921E-02 0.906E-02 -.346E-02
   -.120E+02 -.203E+03 0.279E+02   0.127E+02 0.230E+03 -.290E+02   -.119E+01 -.277E+02 0.672E+00   0.211E-03 0.109E-01 0.188E-02
   0.152E+02 0.254E+03 0.150E+02   -.164E+02 -.282E+03 -.152E+02   0.102E+01 0.274E+02 -.214E+00   -.287E-02 -.140E-01 -.203E-03
   -.959E+01 -.417E+03 -.252E+01   0.991E+01 0.443E+03 0.457E+01   -.384E+00 -.273E+02 -.136E+01   -.663E-02 -.125E-01 -.134E-03
   0.365E+01 0.528E+03 -.422E+01   -.507E+01 -.557E+03 0.477E+01   0.103E+01 0.281E+02 -.113E+00   -.279E-02 0.239E-02 0.823E-03
   -.113E+01 -.451E+03 -.129E+02   0.124E+01 0.478E+03 0.142E+02   -.218E+00 -.271E+02 -.100E+01   -.296E-02 0.219E-02 0.313E-02
   -.305E+02 0.304E+03 0.553E+01   0.338E+02 -.331E+03 -.667E+01   -.293E+01 0.273E+02 0.178E+01   0.159E-02 0.128E-01 0.480E-02
   -.141E+02 -.217E+03 -.128E+01   0.134E+02 0.245E+03 0.135E+01   0.413E+00 -.278E+02 -.198E+00   -.316E-02 0.119E-01 -.178E-03
   0.434E+00 0.264E+03 -.830E+00   -.405E+00 -.292E+03 -.750E+00   0.367E+00 0.284E+02 0.852E+00   -.822E-02 -.220E-01 0.103E-01
   0.227E+02 -.409E+03 0.462E+01   -.274E+02 0.436E+03 -.546E+01   0.449E+01 -.256E+02 0.304E+00   0.416E-02 -.105E-01 0.261E-02
   0.101E+02 0.536E+03 0.169E+02   -.119E+02 -.566E+03 -.195E+02   0.968E+00 0.279E+02 0.158E+01   -.238E-02 0.419E-02 0.473E-03
   0.270E+02 -.457E+03 -.443E+01   -.284E+02 0.485E+03 0.398E+01   0.411E+00 -.274E+02 0.222E+00   -.551E-02 0.252E-02 0.188E-02
   -.304E+02 0.292E+03 0.539E+01   0.332E+02 -.317E+03 -.812E+01   -.225E+01 0.259E+02 0.253E+01   0.212E-02 0.690E-02 0.172E-02
   -.179E+02 -.220E+03 -.586E+01   0.198E+02 0.250E+03 0.760E+01   -.185E+01 -.286E+02 -.170E+01   0.130E-03 0.938E-02 -.177E-03
   0.205E+02 0.271E+03 -.620E+01   -.221E+02 -.298E+03 0.619E+01   0.128E+01 0.281E+02 -.378E+00   -.172E-01 -.259E-01 0.669E-02
   0.105E+02 -.433E+03 -.188E+02   -.119E+02 0.463E+03 0.203E+02   0.104E+01 -.282E+02 -.968E+00   -.922E-03 -.590E-02 0.105E-02
   -.663E+01 0.535E+03 0.440E+01   0.588E+01 -.563E+03 -.438E+01   0.177E+01 0.286E+02 0.115E+00   0.700E-03 0.326E-02 0.104E-02
 -----------------------------------------------------------------------------------------------
   -.231E+01 -.930E+00 -.288E+01   -.213E-12 -.114E-12 0.178E-13   0.230E+01 0.960E+00 0.289E+01   0.564E-03 -.272E-01 -.188E-02
 
 
 POSITION                                       TOTAL-FORCE (eV/Angst)
 -----------------------------------------------------------------------------------
      8.27622      0.24643      0.15562         0.956111     -0.832430     -1.611180
      5.68298      4.40745      6.19484        -1.552396      1.759530      2.074744
      4.21771      8.97118      5.83190        -0.755160     -0.137667     -0.508411
     11.05811      0.21031      4.91366         1.631832      0.779311     -0.980038
      4.21278      4.53490      3.88567        -1.427675     -0.226933     -1.745358
      2.74968      9.01569      3.32966         1.133373      0.163234      1.015704
      9.73035      0.18747      2.48279         1.132331      0.615776      0.410765
      2.90248      4.51279      1.34016        -1.427616     -0.417269      0.110180
      1.42709      8.92406      1.01898        -0.652437      0.573937     -0.862565
      2.76177      0.12834      0.06467        -0.058737      0.689044      0.501010
      8.42110      4.40547      6.19973        -0.325306      1.033557      0.453541
      6.95429      9.02876      5.81375         0.853924     -0.186651     -0.055597
      5.50354      0.15715      4.92035        -0.140122     -0.145483     -0.823180
      6.92253      4.36680      3.84059         1.168513      2.264217     -1.557414
      5.51248      9.05002      3.35113         1.424804     -1.399689      0.273211
      4.16350      0.22279      2.42415        -0.352645     -0.156247      1.790035
      5.59474      4.51012      1.40613         0.338429     -0.619532     -0.057568
      4.18247      8.94923      0.93503         1.026542      0.832659      0.494499
      9.67900      0.24942      7.23140        -0.338272     -0.195469      1.012693
     11.17606      4.49118      6.25945        -0.775844      0.255546     -1.246044
      9.78097      8.98292      5.73512        -0.298653      1.363297      0.936576
      8.25617      0.19226      4.81701         0.961002      1.082329      1.859240
      9.70946      4.56881      3.77438         1.216156     -1.301381      0.004449
      8.34970      9.00923      3.35728        -0.396948     -0.884775      0.749282
      6.93029      0.25838      2.43939        -0.647215     -0.795317      0.548966
      8.41558      4.50744      1.30978        -0.376953     -0.684333      1.492619
      6.99698      8.98105      0.96493         0.040069     -0.406746      0.041520
      8.40140      9.90943      0.19571         0.145413     -0.135531      0.121255
      4.22214      3.54488      6.98093         0.260829     -0.381266      0.235744
      5.60839      1.07136      6.53829        -1.153622      0.286747     -0.201267
      5.64085      8.05766      6.68291        -0.408770     -0.831314     -0.875537
      4.23405      5.41450      5.51939         0.154497      0.442628     -0.697723
      4.02655     12.99366      5.82990         0.862586     -0.450061     -0.948953
      2.88503      9.95457      4.88642        -0.920468     -0.323787      1.136799
      2.72982      3.65851      4.63885         0.682088     -0.315890     -0.407072
      4.16366      1.08409      4.05957        -0.364414      0.278149      0.683738
      4.16991      8.07551      4.19690        -0.244351      0.082442     -0.566330
      2.75930      5.38815      2.90760         1.060074      1.434571      1.200075
      2.82386     12.86974      3.27788        -0.630998      1.119116      0.148335
      9.68454      9.95902      2.46839         0.594092     -0.263698      1.417351
      1.46340      3.67048      2.11541        -0.216628     -0.968474      0.501624
      2.74393      1.22140      1.72983         0.170473     -1.533230     -0.937443
      2.84280      8.04546      1.83021        -0.544715     -0.772976     -0.833123
      1.48788      5.44776      0.46874         0.128459     -0.420449      0.804203
      1.38251     12.94163      0.90704        -0.619063     -0.432903     -0.093226
      2.78312      9.91753      0.22024         0.098144      0.181761     -0.148468
      6.96908      3.41726      7.05707         1.329846      1.023064     -0.521848
      8.22349      1.11082      6.42734         0.505684     -0.009153      0.263359
      8.33400      8.11366      6.58323         0.615635     -0.766215     -0.780375
      7.03163      5.40881      5.44898         0.125858     -0.928728     -0.552731
      6.90279     12.86860      5.65043         0.069443      0.122887      0.297691
      5.56223      9.83274      5.05799        -0.229080      2.117124     -0.969260
      5.55864      3.58288      4.68442        -0.392265     -1.897760     -1.355954
      6.88294      1.13801      4.08697        -0.263576     -0.062860     -0.187486
      6.87250      8.12031      4.21967         0.828737     -0.260410     -0.557536
      5.57981      5.42360      2.96851         0.298665     -0.091872      1.290319
      5.58076     12.97771      3.18920        -0.568945     -0.332219      0.846172
      4.16111      9.92833      2.48450        -0.093414      0.133168      0.451531
      4.22209      3.54835      2.24710        -0.080284      0.739035     -0.025113
      5.52830      1.14329      1.61652         0.030243      0.636732     -0.045174
      5.63718      8.00328      1.70744        -0.804396      0.867428      0.647742
      4.28317      5.46250      0.51761        -0.417814     -0.741097      0.156056
      4.17105     12.94055      0.92187        -0.109826     -0.154194     -1.582950
      5.61552      9.91759      0.12970        -0.263461     -0.125356      0.014889
      9.80149      3.53925      7.09422        -0.082055     -0.138917     -0.914556
     11.11938      1.23543      6.54216        -0.546970     -0.626000     -0.500527
     11.17021      8.09762      6.60173        -0.192647     -0.665236     -0.376016
      9.74376      5.50265      5.38984        -0.068681     -1.020293      0.688420
      9.67672     13.02407      5.63908        -0.400050     -1.032913      0.437718
      8.37414      9.98395      4.93742        -0.111693     -0.472796      0.354055
      8.37176      3.54228      4.55996         0.364750     -0.604715      0.642160
      9.71964      1.16063      4.07283        -0.297225     -0.292575     -0.124295
      9.71740      8.06357      4.18512         0.387938      0.096024     -0.718039
      8.27618      5.29924      2.99072        -0.230650      1.393784     -0.532731
      8.34576     13.03094      3.28031        -0.813644     -1.812285     -1.065206
      7.00590      9.88875      2.56228        -0.926537      0.773658     -0.233630
      6.92716      3.50945      2.18985         0.547944      0.058369     -0.197601
      8.35206      1.11385      1.71534         0.036511      1.233423      0.036334
      8.38670      7.94550      1.82246        -0.300297      0.938960     -0.381040
      7.01948      5.36985      0.57632        -0.378459      1.118647      0.495557
      6.81725     12.93441      0.84675         1.019981      0.764938      0.138402
 -----------------------------------------------------------------------------------
    total drift:                               -0.003298      0.002762      0.003497


--------------------------------------------------------------------------------------------------------



  FREE ENERGIE OF THE ION-ELECTRON SYSTEM (eV)
  ---------------------------------------------------
  free  energy   TOTEN  =      -501.5589857790 eV

  energy  without entropy=     -501.5763656983  energy(sigma->0) =     -501.56477909
 


--------------------------------------------------------------------------------------------------------


    POTLOK:  cpu time    0.2317: real time    0.2323


--------------------------------------------------------------------------------------------------------


     LOOP+:  cpu time17777.7124: real time17820.4252
    4ORBIT:  cpu time    0.0000: real time    0.0000

volume of typ            1:    20.8 %

volume of typ            2:    10.6 %
 
total charge     
 
# of ion       s       p       d       tot
------------------------------------------
    1        0.306   0.426   7.825   8.557
    2        0.326   0.475   7.841   8.643
    3        0.312   0.440   7.826   8.579
    4        0.304   0.419   7.819   8.542
    5        0.296   0.398   7.818   8.511
    6        0.306   0.426   7.825   8.556
    7        0.312   0.440   7.826   8.578
    8        0.307   0.431   7.822   8.560
    9        0.318   0.458   7.834   8.610
   10        0.305   0.424   7.821   8.550
   11        0.295   0.401   7.817   8.513
   12        0.315   0.447   7.829   8.591
   13        0.295   0.398   7.813   8.506
   14        0.310   0.433   7.828   8.571
   15        0.298   0.404   7.816   8.518
   16        0.315   0.448   7.822   8.585
   17        0.316   0.452   7.827   8.595
   18        0.311   0.439   7.825   8.575
   19        0.306   0.425   7.823   8.553
   20        0.313   0.444   7.829   8.586
   21        0.298   0.405   7.814   8.518
   22        0.319   0.455   7.832   8.605
   23        0.311   0.435   7.821   8.568
   24        0.308   0.431   7.821   8.561
   25        0.312   0.439   7.830   8.580
   26        0.305   0.421   7.824   8.550
   27        0.309   0.434   7.820   8.564
   28        1.286   2.725   0.008   4.019
   29        1.286   2.732   0.009   4.027
   30        1.287   2.725   0.009   4.020
   31        1.285   2.736   0.009   4.030
   32        1.286   2.726   0.008   4.020
   33        1.283   2.731   0.008   4.022
   34        1.287   2.711   0.007   4.005
   35        1.283   2.736   0.008   4.028
   36        1.282   2.733   0.008   4.023
   37        1.287   2.713   0.008   4.008
   38        1.283   2.733   0.008   4.024
   39        1.289   2.694   0.007   3.989
   40        1.287   2.728   0.009   4.024
   41        1.285   2.734   0.009   4.028
   42        1.291   2.696   0.007   3.995
   43        1.283   2.746   0.010   4.039
   44        1.289   2.712   0.008   4.009
   45        1.283   2.732   0.008   4.024
   46        1.286   2.727   0.008   4.021
   47        1.289   2.709   0.008   4.006
   48        1.284   2.735   0.008   4.028
   49        1.282   2.745   0.009   4.036
   50        1.290   2.713   0.008   4.010
   51        1.286   2.715   0.008   4.009
   52        1.280   2.764   0.010   4.054
   53        1.280   2.780   0.012   4.072
   54        1.286   2.727   0.008   4.022
   55        1.287   2.718   0.008   4.013
   56        1.285   2.726   0.008   4.019
   57        1.285   2.724   0.008   4.018
   58        1.284   2.735   0.009   4.027
   59        1.289   2.708   0.008   4.005
   60        1.285   2.735   0.009   4.029
   61        1.288   2.706   0.007   4.002
   62        1.286   2.723   0.008   4.017
   63        1.284   2.736   0.009   4.029
   64        1.286   2.713   0.007   4.007
   65        1.284   2.736   0.009   4.028
   66        1.290   2.705   0.008   4.003
   67        1.281   2.746   0.009   4.036
   68        1.290   2.695   0.007   3.993
   69        1.281   2.754   0.010   4.045
   70        1.286   2.710   0.007   4.003
   71        1.284   2.737   0.009   4.030
   72        1.288   2.719   0.008   4.015
   73        1.283   2.736   0.009   4.028
   74        1.282   2.748   0.009   4.039
   75        1.280   2.764   0.010   4.055
   76        1.281   2.745   0.009   4.035
   77        1.289   2.707   0.007   4.003
   78        1.281   2.763   0.010   4.054
   79        1.288   2.707   0.007   4.002
   80        1.282   2.759   0.010   4.051
   81        1.290   2.709   0.008   4.007
--------------------------------------------------
tot          77.73  158.97  211.71  448.41
 
magnetization (x)
 
# of ion       s       p       d       tot
------------------------------------------
    1        0.000   0.000   0.000   0.000
    2       -0.000  -0.000   0.000   0.000
    3        0.000   0.000   0.000   0.000
    4        0.000   0.000   0.000   0.000
    5       -0.000  -0.000   0.000   0.000
    6        0.000   0.000   0.000   0.000
    7        0.000   0.000   0.000   0.000
    8       -0.000  -0.000   0.000  -0.000
    9       -0.000  -0.000   0.000   0.000
   10        0.000   0.000   0.000   0.000
   11       -0.000  -0.000   0.000   0.000
   12       -0.000  -0.000   0.000   0.000
   13        0.000   0.000   0.000   0.000
   14       -0.000  -0.000   0.000   0.000
   15        0.000   0.000   0.000   0.000
   16        0.000   0.000   0.000   0.000
   17       -0.000  -0.000   0.000   0.000
   18       -0.000  -0.000   0.000   0.000
   19        0.000   0.000   0.000   0.000
   20       -0.000  -0.000   0.000   0.000
   21        0.000   0.000   0.000   0.000
   22        0.000   0.000   0.000   0.000
   23       -0.000  -0.000   0.000   0.000
   24        0.000   0.000   0.000   0.000
   25        0.000   0.000   0.000   0.000
   26       -0.000  -0.000   0.000   0.000
   27       -0.000  -0.000   0.000   0.000
   28        0.000   0.000  -0.000   0.000
   29        0.000  -0.000  -0.000  -0.000
   30       -0.000  -0.000   0.000  -0.000
   31        0.000  -0.000  -0.000  -0.000
   32        0.000  -0.000  -0.000  -0.000
   33       -0.000  -0.000   0.000  -0.000
   34        0.000  -0.000  -0.000  -0.000
   35        0.000   0.000  -0.000   0.000
   36       -0.000  -0.000   0.000  -0.000
   37        0.000  -0.000   0.000  -0.000
   38        0.000   0.000  -0.000   0.000
   39       -0.000  -0.000   0.000  -0.000
   40        0.000   0.000  -0.000   0.000
   41        0.000   0.000  -0.000   0.000
   42       -0.000  -0.000   0.000  -0.000
   43        0.000   0.000  -0.000   0.000
   44        0.000   0.000  -0.000   0.000
   45       -0.000  -0.000   0.000  -0.000
   46        0.000   0.000  -0.000   0.000
   47        0.000   0.000  -0.000   0.000
   48       -0.000  -0.000   0.000  -0.000
   49        0.000  -0.000  -0.000  -0.000
   50        0.000   0.000  -0.000   0.000
   51       -0.000  -0.000   0.000  -0.000
   52        0.000   0.000  -0.000   0.000
   53        0.000   0.000  -0.000   0.000
   54       -0.000  -0.000   0.000  -0.000
   55        0.000  -0.000   0.000  -0.000
   56        0.000  -0.000  -0.000  -0.000
   57       -0.000  -0.000   0.000  -0.000
   58        0.000  -0.000  -0.000  -0.000
   59        0.000   0.000  -0.000   0.000
   60       -0.000  -0.000   0.000  -0.000
   61        0.000  -0.000  -0.000  -0.000
   62        0.000   0.000  -0.000   0.000
   63       -0.000  -0.000   0.000  -0.000
   64        0.000  -0.000  -0.000  -0.000
   65        0.000   0.000  -0.000   0.000
   66       -0.000  -0.000   0.000  -0.000
   67        0.000  -0.000  -0.000  -0.000
   68        0.000   0.000  -0.000   0.000
   69       -0.000  -0.000   0.000  -0.000
   70        0.000  -0.000  -0.000  -0.000
   71        0.000   0.000  -0.000   0.000
   72       -0.000  -0.000   0.000  -0.000
   73        0.000  -0.000   0.000  -0.000
   74        0.000   0.000  -0.000   0.000
   75       -0.000   0.000   0.000   0.000
   76        0.000   0.000  -0.000   0.000
   77        0.000  -0.000  -0.000  -0.000
   78       -0.000   0.000   0.000   0.000
   79        0.000  -0.000  -0.000  -0.000
   80        0.000  -0.000  -0.000  -0.000
   81       -0.000  -0.000   0.000  -0.000
--------------------------------------------------
tot           0.00   -0.00    0.00    0.00
 

 total amount of memory used by VASP MPI-rank0  1015429. kBytes
=======================================================================

   base      :      30000. kBytes
   nonl-proj :     257333. kBytes
   fftplans  :       8668. kBytes
   grid      :      49569. kBytes
   one-center:       2519. kBytes
   wavefun   :     667340. kBytes
 
  
  
 General timing and accounting informations for this job:
 ========================================================
  
                  Total CPU time used (sec):    17970.141
                            User time (sec):    17956.985
                          System time (sec):       13.155
                         Elapsed time (sec):    18018.785
  
                   Maximum memory used (kb):     1148652.
                   Average memory used (kb):           0.
  
                          Minor page faults:        37559
                          Major page faults:           67
                 Voluntary context switches:          884
