 vasp.5.4.4.18Apr17-6-g9f103f2a35 (build May 12 2020 05:39:39) gamma-only       
  
 MD_VERSION_INFO: Compiled 2020-05-12T12:39:39-UTC in devlin.sd.materialsdesign.
 com:/home/medea2/data/build/wwolf/vasp-gpu5.4.4/13047/x86_64/src/src/build/gam 
 from svn 13047
 
 This VASP executable licensed from Materials Design, Inc.
 
 executed on                        Lin64 date 2023.02.09  12:32:04
 running on   16 total cores
 distrk:  each k-point on   16 cores,    1 groups
 distr:  one band on NCORES_PER_BAND=   1 cores,   16 groups


--------------------------------------------------------------------------------------------------------


 INCAR:
 POTCAR:    PAW_PBE Li_sv 10Sep2004               
 POTCAR:    PAW_PBE Ni 02Aug2007                  
 POTCAR:    PAW_PBE O 08Apr2002                   

 ----------------------------------------------------------------------------- 
|                                                                             |
|           W    W    AA    RRRRR   N    N  II  N    N   GGGG   !!!           |
|           W    W   A  A   R    R  NN   N  II  NN   N  G    G  !!!           |
|           W    W  A    A  R    R  N N  N  II  N N  N  G       !!!           |
|           W WW W  AAAAAA  RRRRR   N  N N  II  N  N N  G  GGG   !            |
|           WW  WW  A    A  R   R   N   NN  II  N   NN  G    G                |
|           W    W  A    A  R    R  N    N  II  N    N   GGGG   !!!           |
|                                                                             |
|      For optimal performance we recommend to set                            |
|        NCORE= 4 - approx SQRT( number of cores)                             |
|      NCORE specifies how many cores store one orbital (NPAR=cpu/NCORE).     |
|      This setting can  greatly improve the performance of VASP for DFT.     |
|      The default,   NCORE=1            might be grossly inefficient         |
|      on modern multi-core architectures or massively parallel machines.     |
|      Do your own testing !!!!                                               |
|      Unfortunately you need to use the default for GW and RPA calculations. |
|      (for HF NCORE is supported but not extensively tested yet)             |
|                                                                             |
 ----------------------------------------------------------------------------- 

 POTCAR:    PAW_PBE Li_sv 10Sep2004               
  local pseudopotential read in
  atomic valenz-charges read in
  non local Contribution for L=           0  read in
    real space projection operators read in
  non local Contribution for L=           0  read in
    real space projection operators read in
  non local Contribution for L=           1  read in
    real space projection operators read in
    PAW grid and wavefunctions read in
 
   number of l-projection  operators is LMAX  =           3
   number of lm-projection operators is LMMAX =           5
 
 POTCAR:    PAW_PBE Ni 02Aug2007                  
  local pseudopotential read in
  partial core-charges read in
  partial kinetic energy density read in
  atomic valenz-charges read in
  non local Contribution for L=           2  read in
    real space projection operators read in
  non local Contribution for L=           2  read in
    real space projection operators read in
  non local Contribution for L=           0  read in
    real space projection operators read in
  non local Contribution for L=           0  read in
    real space projection operators read in
  non local Contribution for L=           1  read in
    real space projection operators read in
  non local Contribution for L=           1  read in
    real space projection operators read in
    PAW grid and wavefunctions read in
 
   number of l-projection  operators is LMAX  =           6
   number of lm-projection operators is LMMAX =          18
 
 POTCAR:    PAW_PBE O 08Apr2002                   
  local pseudopotential read in
  partial core-charges read in
  partial kinetic energy density read in
  kinetic energy density of atom read in
  atomic valenz-charges read in
  non local Contribution for L=           0  read in
    real space projection operators read in
  non local Contribution for L=           0  read in
    real space projection operators read in
  non local Contribution for L=           1  read in
    real space projection operators read in
  non local Contribution for L=           1  read in
    real space projection operators read in
    PAW grid and wavefunctions read in
 
   number of l-projection  operators is LMAX  =           4
   number of lm-projection operators is LMMAX =           8
 
 Optimization of the real space projectors (new method)

 maximal supplied QI-value         = 22.11
 optimisation between [QCUT,QGAM] = [ 11.28, 22.77] = [ 35.61,145.23] Ry 
 Optimized for a Real-space Cutoff    1.10 Angstroem

   l    n(q)    QCUT    max X(q) W(low)/X(q) W(high)/X(q)  e(spline) 
   0      7    11.276    10.506    0.54E-04    0.58E-04    0.16E-07
   0      7    11.276     8.367    0.11E-03    0.14E-03    0.35E-07
   1      7    11.276     8.983    0.23E-03    0.43E-03    0.86E-07
 Optimization of the real space projectors (new method)

 maximal supplied QI-value         = 16.25
 optimisation between [QCUT,QGAM] = [ 11.38, 22.75] = [ 36.24,144.96] Ry 
 Optimized for a Real-space Cutoff    1.47 Angstroem

   l    n(q)    QCUT    max X(q) W(low)/X(q) W(high)/X(q)  e(spline) 
   2      9    11.376    60.317    0.17E-03    0.16E-04    0.16E-06
   2      9    11.376    55.921    0.17E-03    0.16E-04    0.17E-06
   0     10    11.376    51.690    0.45E-04    0.60E-04    0.21E-06
   0     10    11.376    30.015    0.37E-04    0.55E-04    0.19E-06
   1     10    11.376    18.849    0.83E-04    0.11E-03    0.92E-07
   1     10    11.376    14.624    0.69E-04    0.92E-04    0.82E-07
 Optimization of the real space projectors (new method)

 maximal supplied QI-value         = 24.76
 optimisation between [QCUT,QGAM] = [ 11.39, 22.77] = [ 36.31,145.25] Ry 
 Optimized for a Real-space Cutoff    1.10 Angstroem

   l    n(q)    QCUT    max X(q) W(low)/X(q) W(high)/X(q)  e(spline) 
   0      7    11.387    20.381    0.22E-03    0.48E-03    0.18E-06
   0      7    11.387    15.268    0.22E-03    0.52E-03    0.19E-06
   1      7    11.387     5.964    0.22E-03    0.73E-03    0.24E-06
   1      7    11.387     5.382    0.19E-03    0.60E-03    0.21E-06

 ----------------------------------------------------------------------------- 
|                                                                             |
|  ADVICE TO THIS USER RUNNING 'VASP/VAMP'   (HEAR YOUR MASTER'S VOICE ...):  |
|                                                                             |
|      You enforced a specific xc-type in the INCAR file,                     |
|      a different type was found on the POTCAR file                          |
|          I HOPE YOU KNOW, WHAT YOU ARE  DOING                               |
|                                                                             |
 ----------------------------------------------------------------------------- 

  PAW_PBE Li_sv 10Sep2004               :
 energy of atom  1       EATOM= -202.7858
 kinetic energy error for atom=    0.0143 (will be added to EATOM!!)
  PAW_PBE Ni 02Aug2007                  :
 energy of atom  2       EATOM=-1077.6739
 kinetic energy error for atom=    0.0030 (will be added to EATOM!!)
  PAW_PBE O 08Apr2002                   :
 energy of atom  3       EATOM= -432.3788
 kinetic energy error for atom=    0.0224 (will be added to EATOM!!)
 
 
 POSCAR: ce137_1                                 
  positions in direct lattice
  No initial velocities read in
 exchange correlation table for  LEXCH =       14
   RHO(1)=    0.500       N(1)  =     2000
   RHO(2)=  100.500       N(2)  =     4000
 


--------------------------------------------------------------------------------------------------------


 ion  position               nearest neighbor table
   1  0.844  0.277  0.187-  40 1.90  36 1.90  49 1.91  46 1.95
   2  0.345  0.779  0.189-  51 1.90  42 1.91  38 1.91  44 1.95
   3  0.156  0.722  0.811-  33 1.89  25 1.91  21 1.91  29 1.95
   4  0.999  0.001  0.999-  34 1.83  48 1.84  31 1.85  44 1.87  40 1.89  25 1.89   8 2.79   8 2.81
                            12 2.81  19 2.81  14 2.82  16 2.84
   5  0.750  0.250  0.501-  35 1.84  49 1.85  28 1.85  45 1.86  41 1.88  26 1.88   9 2.79  17 2.79
                            15 2.79  16 2.80   9 2.81  13 2.81
   6  0.499  0.498  0.998-  50 1.83  32 1.84  46 1.86  29 1.87  27 1.88  42 1.91  12 2.79  10 2.79
                            10 2.80  17 2.81  14 2.82  18 2.85
   7  0.250  0.751  0.501-  33 1.84  51 1.84  30 1.85  47 1.85  43 1.88  24 1.89  11 2.80  19 2.80
                            11 2.80  18 2.80  15 2.82  13 2.82
   8  0.500  0.001  0.999-  34 1.83  48 1.84  31 1.85  44 1.87  36 1.89  21 1.89   4 2.79   4 2.81
                            12 2.81  19 2.81  14 2.82  16 2.84
   9  0.251  0.250  0.501-  35 1.84  49 1.85  28 1.85  45 1.86  37 1.88  22 1.88   5 2.79  17 2.79
                            15 2.79  16 2.80   5 2.81  13 2.81
  10  0.999  0.498  0.998-  50 1.83  32 1.84  46 1.86  29 1.87  23 1.88  38 1.91  12 2.79   6 2.79
                             6 2.80  17 2.81  14 2.82  18 2.85
  11  0.750  0.751  0.501-  33 1.84  51 1.84  30 1.85  47 1.85  39 1.88  20 1.88   7 2.80  19 2.80
                             7 2.80  18 2.80  15 2.82  13 2.82
  12  0.249  0.250  0.998-  23 1.85  27 1.85  36 1.88  40 1.88  32 1.93  48 1.94  17 2.76  10 2.79
                             6 2.79  16 2.80   8 2.81   4 2.81
  13  0.000  0.500  0.500-  37 1.87  41 1.87  20 1.88  24 1.88  49 1.95  33 1.96  18 2.76  17 2.76
                             9 2.81   5 2.81   7 2.82  11 2.82
  14  0.750  0.750  1.000-  38 1.86  42 1.86  21 1.87  25 1.87  50 1.97  34 1.97  19 2.78  18 2.78
                             8 2.82   4 2.82   6 2.82  10 2.82
  15  0.501  0.002  0.502-  22 1.87  26 1.87  39 1.87  43 1.87  35 1.93  51 1.95  19 2.75  16 2.76
                             9 2.79   5 2.79  11 2.82   7 2.82
  16  0.376  0.126  0.252-  26 1.86  22 1.86  28 1.88  40 1.88  36 1.88  44 1.91  15 2.76   5 2.80
                             9 2.80  12 2.80   8 2.84   4 2.84
  17  0.124  0.373  0.748-  41 1.86  37 1.86  45 1.86  27 1.87  23 1.87  29 1.89  12 2.76  13 2.76
                             5 2.79   9 2.79  10 2.81   6 2.81
  18  0.876  0.626  0.252-  24 1.85  20 1.85  42 1.89  38 1.89  30 1.89  46 1.91  13 2.76  14 2.78
                             7 2.80  11 2.80   6 2.85  10 2.85
  19  0.624  0.875  0.749-  43 1.85  39 1.85  47 1.88  25 1.88  21 1.88  31 1.89  15 2.75  14 2.78
                            11 2.80   7 2.80   8 2.81   4 2.81
  20  0.718  0.576  0.383-  18 1.85  13 1.88  11 1.88
  21  0.468  0.824  0.883-  14 1.87  19 1.88   8 1.89   3 1.91
  22  0.220  0.075  0.384-  16 1.86  15 1.87   9 1.88
  23  0.968  0.323  0.882-  12 1.85  17 1.87  10 1.88
  24  0.165  0.576  0.383-  18 1.85  13 1.88   7 1.89
  25  0.915  0.824  0.883-  14 1.87  19 1.88   4 1.89   3 1.91
  26  0.664  0.075  0.384-  16 1.86  15 1.87   5 1.88
  27  0.414  0.323  0.882-  12 1.85  17 1.87   6 1.88
  28  0.442  0.293  0.384-   9 1.85   5 1.85  16 1.88
  29  0.190  0.542  0.880-   6 1.87  10 1.87  17 1.89   3 1.95
  30  0.942  0.794  0.384-   7 1.85  11 1.85  18 1.89
  31  0.691  0.043  0.881-   8 1.85   4 1.85  19 1.89
  32  0.301  0.438  0.101-   6 1.84  10 1.84  12 1.93
  33  0.052  0.691  0.604-   7 1.84  11 1.84   3 1.89  13 1.96
  34  0.802  0.942  0.103-   4 1.83   8 1.83  14 1.97
  35  0.552  0.190  0.605-   5 1.84   9 1.84  15 1.93
  36  0.531  0.176  0.117-  12 1.88  16 1.88   8 1.89   1 1.90
  37  0.281  0.425  0.617-  17 1.86  13 1.87   9 1.88
  38  0.031  0.676  0.116-  14 1.86  18 1.89  10 1.91   2 1.91
  39  0.783  0.926  0.619-  19 1.85  15 1.87  11 1.88
  40  0.086  0.176  0.117-  12 1.88  16 1.88   4 1.89   1 1.90
  41  0.836  0.425  0.617-  17 1.86  13 1.87   5 1.88
  42  0.585  0.676  0.116-  14 1.86  18 1.89   6 1.91   2 1.91
  43  0.336  0.926  0.619-  19 1.85  15 1.87   7 1.88
  44  0.309  0.957  0.117-   4 1.87   8 1.87  16 1.91   2 1.95
  45  0.059  0.207  0.619-   5 1.86   9 1.86  17 1.86
  46  0.809  0.456  0.117-   6 1.86  10 1.86  18 1.91   1 1.95
  47  0.559  0.708  0.618-   7 1.85  11 1.85  19 1.88
  48  0.198  0.061  0.896-   4 1.84   8 1.84  12 1.94
  49  0.948  0.309  0.397-   9 1.85   5 1.85   1 1.91  13 1.95
  50  0.698  0.558  0.895-   6 1.83  10 1.83  14 1.97
  51  0.449  0.812  0.397-  11 1.84   7 1.84   2 1.90  15 1.95
 
  LATTYP: Found a base centered monoclinic cell.
 ALAT       =    18.4649835529
 B/A-ratio  =     0.3029263888
 C/A-ratio  =     1.0572053654
 COS(beta)  =    -0.8322676881
  
  Lattice vectors:
  
 A1 = (   4.0194769329,   7.8548011370,  -3.8995775866)
 A2 = (   4.0194769329,   3.8995775866,  -7.8548011370)
 A3 = ( -16.0675714990,  -7.8394357786,   7.8394357786)


Analysis of symmetry for initial positions (statically):
=====================================================================
 Subroutine PRICEL returns:
 Original cell was already a primitive cell.
 

 Routine SETGRP: Setting up the symmetry group for a 
 base centered monoclinic supercell.


 Subroutine GETGRP returns: Found  2 space group operations
 (whereof  1 operations were pure point group operations)
 out of a pool of  4 trial point group operations.


The static configuration has the point symmetry C_1 .
 The point group associated with its full space group is C_1h.


Analysis of symmetry for dynamics (positions and initial velocities):
=====================================================================
 Subroutine PRICEL returns:
 Original cell was already a primitive cell.
 

 Routine SETGRP: Setting up the symmetry group for a 
 base centered monoclinic supercell.


 Subroutine GETGRP returns: Found  2 space group operations
 (whereof  1 operations were pure point group operations)
 out of a pool of  4 trial point group operations.


The dynamic configuration has the point symmetry C_1 .
 The point group associated with its full space group is C_1h.


Analysis of structural, dynamic, and magnetic symmetry:
=====================================================================
 Subroutine PRICEL returns:
 Original cell was already a primitive cell.
 

 Routine SETGRP: Setting up the symmetry group for a 
 base centered monoclinic supercell.


 Subroutine GETGRP returns: Found  2 space group operations
 (whereof  1 operations were pure point group operations)
 out of a pool of  4 trial point group operations.


The magnetic configuration has the point symmetry C_1 .
 The point group associated with its full space group is C_1h.


 Subroutine INISYM returns: Found  2 space group operations
 (whereof  1 operations are pure point group operations),
 and found     1 'primitive' translations

 
 
 KPOINTS: Automatic mesh                          

Automatic generation of k-mesh.
Space group operators:
 irot       det(A)        alpha          n_x          n_y          n_z        tau_x        tau_y        tau_z
    1     1.000000     0.000001     1.000000     0.000000     0.000000     0.000000     0.000000     0.000000
    2    -1.000000   180.000000     0.000000    -0.707107    -0.707107     0.500000    -0.000000     1.000000
 
 Subroutine IBZKPT returns following result:
 ===========================================
 
 Found      1 irreducible k-points:
 
 Following reciprocal coordinates:
            Coordinates               Weight
  0.000000  0.000000  0.000000      1.000000
 
 Following cartesian coordinates:
            Coordinates               Weight
  0.000000  0.000000  0.000000      1.000000
 


--------------------------------------------------------------------------------------------------------




 Dimension of arrays:
   k-points           NKPTS =      1   k-points in BZ     NKDIM =      1   number of bands    NBANDS=    240
   number of dos      NEDOS =    301   number of ions     NIONS =     51
   non local maximal  LDIM  =      6   non local SUM 2l+1 LMDIM =     18
   total plane-waves  NPLWV = 211680
   max r-space proj   IRMAX =   5759   max aug-charges    IRDMAX=  13983
   dimension x,y,z NGX =    42 NGY =   72 NGZ =   70
   dimension x,y,z NGXF=    84 NGYF=  144 NGZF=  140
   support grid    NGXF=    84 NGYF=  144 NGZF=  140
   ions per type =               3  16  32
   NGX,Y,Z   is equivalent  to a cutoff of  12.48, 12.27, 12.06 a.u.
   NGXF,Y,Z  is equivalent  to a cutoff of  24.97, 24.55, 24.13 a.u.

 SYSTEM =  unknown system                          
 POSCAR =  ce137_1                                 

 Startparameter for this run:
   NWRITE =      1    write-flag & timer
   PREC   = accura    normal or accurate (medium, high low for compatibility)
   ISTART =      0    job   : 0-new  1-cont  2-samecut
   ICHARG =      2    charge: 1-file 2-atom 10-const
   ISPIN  =      2    spin polarized calculation?
   LNONCOLLINEAR =      F non collinear calculations
   LSORBIT =      F    spin-orbit coupling
   INIWAV =      1    electr: 0-lowe 1-rand  2-diag
   LASPH  =      F    aspherical Exc in radial PAW
   METAGGA=      F    non-selfconsistent MetaGGA calc.

 Electronic Relaxation 1
   ENCUT  =  500.0 eV  36.75 Ry    6.06 a.u.  10.20 17.78 17.59*2*pi/ulx,y,z
   ENINI  =  500.0     initial cutoff
   ENAUG  =  628.9 eV  augmentation charge cutoff
   NELM   =     80;   NELMIN=  2; NELMDL= -5     # of ELM steps 
   EDIFF  = 0.1E-04   stopping-criterion for ELM
   LREAL  =      T    real-space projection
   NLSPLINE    = F    spline interpolate recip. space projectors
   LCOMPAT=      F    compatible to vasp.4.4
   GGA_COMPAT  = T    GGA compatible to vasp.4.4-vasp.4.6
   LMAXPAW     = -100 max onsite density
   LMAXMIX     =    2 max onsite mixed and CHGCAR
   VOSKOWN=      1    Vosko Wilk Nusair interpolation
   ROPT   =   -0.00025  -0.00025  -0.00025
 Ionic relaxation
   EDIFFG = -.2E-01   stopping-criterion for IOM
   NSW    =     20    number of steps for IOM
   NBLOCK =      1;   KBLOCK =     20    inner block; outer block 
   IBRION =      1    ionic relax: 0-MD 1-quasi-New 2-CG
   NFREE  =      0    steps in history (QN), initial steepest desc. (CG)
   ISIF   =      3    stress and relaxation
   IWAVPR =     11    prediction:  0-non 1-charg 2-wave 3-comb
   ISYM   =      2    0-nonsym 1-usesym 2-fastsym
   LCORR  =      T    Harris-Foulkes like correction to forces

   POTIM  = 0.5000    time-step for ionic-motion
   TEIN   =    0.0    initial temperature
   TEBEG  =    0.0;   TEEND  =   0.0 temperature during run
   SMASS  =  -3.00    Nose mass-parameter (am)
   estimated Nose-frequenzy (Omega)   =  0.10E-29 period in steps =****** mass=  -0.715E-27a.u.
   SCALEE = 1.0000    scale energy and forces
   NPACO  =    256;   APACO  = 16.0  distance and # of slots for P.C.
   PSTRESS=    0.0 pullay stress

  Mass of Ions in am
   POMASS =   7.01 58.69 16.00
  Ionic Valenz
   ZVAL   =   3.00 10.00  6.00
  Atomic Wigner-Seitz radii
   RWIGS  =   1.23  1.15  0.73
  virtual crystal weights 
   VCA    =   1.00  1.00  1.00
   NELECT =     361.0000    total number of electrons
   NUPDOWN=      -1.0000    fix difference up-down

 DOS related values:
   EMIN   =  10.00;   EMAX   =-10.00  energy-range for DOS
   EFERMI =   0.00
   ISMEAR =     0;   SIGMA  =   0.05  broadening in eV -4-tet -1-fermi 0-gaus

 Electronic relaxation 2 (details)
   IALGO  =     38    algorithm
   LDIAG  =      T    sub-space diagonalisation (order eigenvalues)
   LSUBROT=      F    optimize rotation matrix (better conditioning)
   TURBO    =      0    0=normal 1=particle mesh
   IRESTART =      0    0=no restart 2=restart with 2 vectors
   NREBOOT  =      0    no. of reboots
   NMIN     =      0    reboot dimension
   EREF     =   0.00    reference energy to select bands
   IMIX   =      4    mixing-type and parameters
     AMIX     =   0.40;   BMIX     =  1.00
     AMIX_MAG =   1.60;   BMIX_MAG =  1.00
     AMIN     =   0.10
     WC   =   100.;   INIMIX=   1;  MIXPRE=   1;  MAXMIX= -45

 Intra band minimization:
   WEIMIN = 0.0010     energy-eigenvalue tresh-hold
   EBREAK =  0.10E-07  absolut break condition
   DEPER  =   0.30     relativ break condition  

   TIME   =   0.40     timestep for ELM

  volume/ion in A,a.u.               =       9.76        65.86
  Fermi-wavevector in a.u.,A,eV,Ry     =   1.470878  2.779557 29.435964  2.163482
  Thomas-Fermi vector in A             =   2.586082
 
 Write flags
   LWAVE        =      F    write WAVECAR
   LDOWNSAMPLE  =      F    k-point downsampling of WAVECAR
   LCHARG       =      T    write CHGCAR
   LVTOT        =      F    write LOCPOT, total local potential
   LVHAR        =      F    write LOCPOT, Hartree potential only
   LELF         =      F    write electronic localiz. function (ELF)
   LORBIT       =      0    0 simple, 1 ext, 2 COOP (PROOUT), +10 PAW based schemes


 Dipole corrections
   LMONO  =      F    monopole corrections only (constant potential shift)
   LDIPOL =      F    correct potential (dipole corrections)
   IDIPOL =      0    1-x, 2-y, 3-z, 4-all directions 
   EPSILON=  1.0000000 bulk dielectric constant

 Exchange correlation treatment:
   GGA     =    PS    GGA type
   LEXCH   =    14    internal setting for exchange type
   VOSKOWN=      1    Vosko Wilk Nusair interpolation
   LHFCALC =     F    Hartree Fock is set to
   LHFONE  =     F    Hartree Fock one center treatment
   AEXX    =    0.0000 exact exchange contribution

 Linear response parameters
   LEPSILON=     F    determine dielectric tensor
   LRPA    =     F    only Hartree local field effects (RPA)
   LNABLA  =     F    use nabla operator in PAW spheres
   LVEL    =     F    velocity operator in full k-point grid
   LINTERFAST=   F  fast interpolation
   KINTER  =     0    interpolate to denser k-point grid
   CSHIFT  =0.1000    complex shift for real part using Kramers Kronig
   OMEGAMAX=  -1.0    maximum frequency
   DEG_THRESHOLD= 0.2000000E-02 threshold for treating states as degnerate
   RTIME   =   -0.100 relaxation time in fs
  (WPLASMAI=    0.000 imaginary part of plasma frequency in eV, 0.658/RTIME)
   DFIELD  = 0.0000000 0.0000000 0.0000000 field for delta impulse in time
 
 Orbital magnetization related:
   ORBITALMAG=     F  switch on orbital magnetization
   LCHIMAG   =     F  perturbation theory with respect to B field
   DQ        =  0.001000  dq finite difference perturbation B field
   LLRAUG    =     F  two centre corrections for induced B field



--------------------------------------------------------------------------------------------------------


 quasi-Newton-method for relaxation of ions
 charge density and potential will be updated during run
 spin polarized calculation
 Variant of blocked Davidson
 Davidson routine will perform the subspace rotation
 perform sub-space diagonalisation
    after iterative eigenvector-optimisation
 modified Broyden-mixing scheme, WC =      100.0
 initial mixing is a Kerker type mixing with AMIX =  0.4000 and BMIX =      1.0000
 Hartree-type preconditioning will be used
 using additional bands           59
 real space projection scheme for non local part
 use partial core corrections
 calculate Harris-corrections to forces 
   (improved forces if not selfconsistent)
 use gradient corrections 
 use of overlap-Matrix (Vanderbilt PP)
 Gauss-broadening in eV      SIGMA  =   0.05


--------------------------------------------------------------------------------------------------------


  energy-cutoff  :      500.00
  volume of cell :      497.74
      direct lattice vectors                 reciprocal lattice vectors
     0.000000000  3.955223550  3.955223550     0.031109626  0.158314330  0.094515880
     8.028617633 -3.914942945  3.914942945     0.093404766 -0.031940293  0.031940293
     4.019476933  3.899577587 -7.854801137     0.062219253  0.063798451 -0.063798451

  length of vectors
     5.593530787  9.752551339  9.646802635     0.186987934  0.103753626  0.109597993


 
 k-points in units of 2pi/SCALE and weight: Automatic mesh                          
   0.00000000  0.00000000  0.00000000       1.000
 
 k-points in reciprocal lattice and weights: Automatic mesh                          
   0.00000000  0.00000000  0.00000000       1.000
 
 position of ions in fractional coordinates (direct lattice) 
   0.84359989  0.27719611  0.18719979
   0.34467236  0.77876845  0.18934473
   0.15572882  0.72174764  0.81145764
   0.99869830  0.00063067  0.99908773
   0.74981856  0.24975462  0.50128045
   0.49927655  0.49805478  0.99821619
   0.25027348  0.75117563  0.50076461
   0.50038943  0.00063067  0.99908773
   0.25146189  0.24975462  0.50128045
   0.99893964  0.49805478  0.99821619
   0.75049112  0.75117563  0.50076461
   0.24887985  0.25012405  0.99775970
   0.00011631  0.49974145  0.50023262
   0.74986583  0.74960353  0.99973167
   0.50103552  0.00193538  0.50207105
   0.37610492  0.12577569  0.25220984
   0.12406623  0.37326807  0.74813246
   0.87609948  0.62574265  0.25219897
   0.62431508  0.87549394  0.74863017
   0.71823572  0.57618043  0.38282307
   0.46831267  0.82413441  0.88313082
   0.21959890  0.07520284  0.38363015
   0.96795056  0.32276276  0.88197209
   0.16458734  0.57618043  0.38282306
   0.91481815  0.82413441  0.88313081
   0.66403124  0.07520284  0.38363014
   0.41402152  0.32276276  0.88197208
   0.44191556  0.29289981  0.38383112
   0.18995916  0.54208364  0.87991831
   0.94185777  0.79423768  0.38371552
   0.69068737  0.04333127  0.88137474
   0.30071445  0.43811997  0.10142890
   0.05211368  0.69102248  0.60422736
   0.80167343  0.94187284  0.10334686
   0.55245178  0.18966461  0.60490355
   0.53111513  0.17595084  0.11678160
   0.28123041  0.42484914  0.61691174
   0.03140856  0.67577132  0.11609237
   0.78261700  0.92594663  0.61886268
   0.08566647  0.17595084  0.11678161
   0.83568133  0.42484914  0.61691175
   0.58468381  0.67577132  0.11609238
   0.33624568  0.92594663  0.61886269
   0.30870468  0.95654284  0.11740936
   0.05930228  0.20724259  0.61860458
   0.80874728  0.45573110  0.11749457
   0.55892794  0.70816319  0.61785589
   0.19794508  0.06068011  0.89589016
   0.94829481  0.30932914  0.39658961
   0.69770080  0.55810445  0.89540160
   0.44871613  0.81199918  0.39743226
 
 position of ions in cartesian coordinates  (Angst):
   2.97794681  2.98141930  2.95141598
   7.01350088 -0.94721335  2.92482508
   9.05627110  0.95468349 -2.93229527
   4.02087349  7.84362612 -3.89509136
   4.02006955  3.94270695  0.00601687
   8.01099834  3.91751580 -3.91618325
   8.04371371  0.00184828 -0.00270913
   4.02087349  5.87270314 -5.86601434
   4.02006955  1.97159491 -1.96509517
   8.01099834  5.89379502 -1.93990403
   8.04371371  1.98032087  1.97576346
   6.01862246  3.89599542 -5.87360720
   6.02290649 -0.00530332 -1.97230846
  10.03667851  3.92976315 -1.95215142
   2.03360143  3.93199560 -1.95438386
   2.02355656  1.97868623 -0.00107445
   6.00392777  1.94678705 -3.92439883
   6.03755642  1.99889197  3.93394331
  10.03810778  1.96113832  0.01647342
   6.16468086  2.07791759  2.08949726
  10.16638402  2.06967926 -1.85809647
   2.14576739  2.07014345 -1.85036097
   6.13640526  6.00418165 -1.83565673
   6.16468082 -0.11188556 -0.10030577
  10.16638398  3.83570821 -0.09206741
   2.14576735  3.82797267 -0.09253163
   6.13640522  3.81326843 -4.02656984
   3.89438091  2.09796802 -0.12035624
   7.88899362  2.06041414 -4.03802588
   7.91896632  2.11219127  3.82064413
   3.89055564  5.99917268 -4.02156091
   3.92518884 -0.13029195  2.10790372
   7.97663320 -0.14296086 -1.83465092
   7.97733721 -0.11357170  6.04640703
   3.95414050  3.80141249 -1.82380067
   1.88204296  1.86724048  1.87222033
   5.89061381  1.85476419 -2.07012975
   5.89214014 -2.06866708  1.85795156
   9.92157571  1.88370000  1.85941013
   1.88204300  0.10539149  0.11037122
   5.89061385  4.04774157  0.12284751
   5.89214018  0.11966026  4.04627878
   9.92157575  0.11820168  0.09391170
   8.15164093 -2.06596771  4.04357949
   4.15033835  1.83550741 -3.81311927
   4.13115746  1.87279423  4.06004106
   8.16902897  1.84764345  0.12996829
   4.08818723  4.03895106 -6.01656284
   4.07756818  4.08624399  1.84659138
   8.07985331  4.06630357 -2.08869179
   8.11670074  0.14566008  1.83195170
 


--------------------------------------------------------------------------------------------------------


 use serial FFT for orbitals x direction half grid
 k-point  1 :   0.0000 0.0000 0.0000  plane waves:    6322

 maximum and minimum number of plane-waves per node :      6322     6322

 maximum number of plane-waves:      6322
 maximum index in each direction: 
   IXMAX=   10   IYMAX=   17   IZMAX=   16
   IXMIN=    0   IYMIN=  -17   IZMIN=  -17

 The following grids will avoid any aliasing or wrap around errors in the Hartre
 e energy
  - symmetry arguments have not been applied
  - exchange correlation energies might require even more grid points
  - we recommend to set PREC=Normal or Accurate and rely on VASP defaults
 NGX is ok and might be reduce to    42
 NGY is ok and might be reduce to    70
 NGZ is ok and might be reduce to    70

 serial   3D FFT for wavefunctions
 parallel 3D FFT for charge:
    minimum data exchange during FFTs selected (reduces bandwidth)


 total amount of memory used by VASP MPI-rank0    86090. kBytes
=======================================================================

   base      :      30000. kBytes
   nonlr-proj:      19463. kBytes
   fftplans  :       4859. kBytes
   grid      :      27800. kBytes
   one-center:        793. kBytes
   wavefun   :       3175. kBytes
 
     INWAV:  cpu time    0.0000: real time    0.0000
 Broyden mixing: mesh for mixing (old mesh)
   NGX = 21   NGY = 35   NGZ = 35
  (NGX  = 84   NGY  =144   NGZ  =140)
  gives a total of  25725 points

 initial charge density was supplied:
 charge density of overlapping atoms calculated
 number of electron     361.0000000 magnetization      40.0000000
 keeping initial charge density in first step


--------------------------------------------------------------------------------------------------------


 Maximum index for non-local projection operator         5561
 Maximum index for augmentation-charges         1288 (set IRDMAX)


--------------------------------------------------------------------------------------------------------


 First call to EWALD:  gamma=   0.224
 Maximum number of real-space cells 4x 2x 2
 Maximum number of reciprocal cells 2x 3x 3

    FEWALD:  cpu time    0.0033: real time    0.0033


--------------------------------------- Iteration      1(   1)  ---------------------------------------


    POTLOK:  cpu time    0.1407: real time    0.1425
    SETDIJ:  cpu time    0.0168: real time    0.0169
     EDDAV:  cpu time    1.3042: real time    1.3382
    --------------------------------------------
      LOOP:  cpu time    1.4621: real time    1.4981

 eigenvalue-minimisations  :   960
 total energy-change (2. order) : 0.6384954E+04  (-0.1639161E+05)
 number of electron     361.0000000 magnetization      40.0000000
 augmentation part      361.0000000 magnetization      40.0000000

 Free energy of the ion-electron system (eV)
  ---------------------------------------------------
  alpha Z        PSCENC =      1146.01498061
  Ewald energy   TEWEN  =    -21365.87936764
  -Hartree energ DENC   =    -11189.04794266
  -exchange      EXHF   =         0.00000000
  -V(xc)+E(xc)   XCENC  =      1463.20302064
  PAW double counting   =     26703.13321861   -27864.47628080
  entropy T*S    EENTRO =        -0.00000043
  eigenvalues    EBANDS =      5875.28244884
  atomic energy  EATOM  =     31616.72437543
  Solvation  Ediel_sol  =         0.00000000
  ---------------------------------------------------
  free energy    TOTEN  =      6384.95445261 eV

  energy without entropy =     6384.95445303  energy(sigma->0) =     6384.95445282


--------------------------------------------------------------------------------------------------------




--------------------------------------- Iteration      1(   2)  ---------------------------------------


     EDDAV:  cpu time    1.3514: real time    1.3547
    --------------------------------------------
      LOOP:  cpu time    1.3513: real time    1.3546

 eigenvalue-minimisations  :  1024
 total energy-change (2. order) :-0.5167614E+04  (-0.4627503E+04)
 number of electron     361.0000000 magnetization      40.0000000
 augmentation part      361.0000000 magnetization      40.0000000

 Free energy of the ion-electron system (eV)
  ---------------------------------------------------
  alpha Z        PSCENC =      1146.01498061
  Ewald energy   TEWEN  =    -21365.87936764
  -Hartree energ DENC   =    -11189.04794266
  -exchange      EXHF   =         0.00000000
  -V(xc)+E(xc)   XCENC  =      1463.20302064
  PAW double counting   =     26703.13321861   -27864.47628080
  entropy T*S    EENTRO =        -0.02086733
  eigenvalues    EBANDS =       707.68964125
  atomic energy  EATOM  =     31616.72437543
  Solvation  Ediel_sol  =         0.00000000
  ---------------------------------------------------
  free energy    TOTEN  =      1217.34077812 eV

  energy without entropy =     1217.36164545  energy(sigma->0) =     1217.35121178


--------------------------------------------------------------------------------------------------------




--------------------------------------- Iteration      1(   3)  ---------------------------------------


     EDDAV:  cpu time    1.3738: real time    1.3770
    --------------------------------------------
      LOOP:  cpu time    1.3738: real time    1.3770

 eigenvalue-minimisations  :  1104
 total energy-change (2. order) :-0.1430418E+04  (-0.1179187E+04)
 number of electron     361.0000000 magnetization      40.0000000
 augmentation part      361.0000000 magnetization      40.0000000

 Free energy of the ion-electron system (eV)
  ---------------------------------------------------
  alpha Z        PSCENC =      1146.01498061
  Ewald energy   TEWEN  =    -21365.87936764
  -Hartree energ DENC   =    -11189.04794266
  -exchange      EXHF   =         0.00000000
  -V(xc)+E(xc)   XCENC  =      1463.20302064
  PAW double counting   =     26703.13321861   -27864.47628080
  entropy T*S    EENTRO =        -0.11072154
  eigenvalues    EBANDS =      -722.63829259
  atomic energy  EATOM  =     31616.72437543
  Solvation  Ediel_sol  =         0.00000000
  ---------------------------------------------------
  free energy    TOTEN  =      -213.07700993 eV

  energy without entropy =     -212.96628839  energy(sigma->0) =     -213.02164916


--------------------------------------------------------------------------------------------------------




--------------------------------------- Iteration      1(   4)  ---------------------------------------


     EDDAV:  cpu time    1.4585: real time    1.4620
    --------------------------------------------
      LOOP:  cpu time    1.4585: real time    1.4620

 eigenvalue-minimisations  :  1168
 total energy-change (2. order) :-0.2103732E+03  (-0.2033435E+03)
 number of electron     361.0000000 magnetization      40.0000000
 augmentation part      361.0000000 magnetization      40.0000000

 Free energy of the ion-electron system (eV)
  ---------------------------------------------------
  alpha Z        PSCENC =      1146.01498061
  Ewald energy   TEWEN  =    -21365.87936764
  -Hartree energ DENC   =    -11189.04794266
  -exchange      EXHF   =         0.00000000
  -V(xc)+E(xc)   XCENC  =      1463.20302064
  PAW double counting   =     26703.13321861   -27864.47628080
  entropy T*S    EENTRO =        -0.12573357
  eigenvalues    EBANDS =      -932.99644050
  atomic energy  EATOM  =     31616.72437543
  Solvation  Ediel_sol  =         0.00000000
  ---------------------------------------------------
  free energy    TOTEN  =      -423.45016987 eV

  energy without entropy =     -423.32443630  energy(sigma->0) =     -423.38730309


--------------------------------------------------------------------------------------------------------




--------------------------------------- Iteration      1(   5)  ---------------------------------------


     EDDAV:  cpu time    1.6584: real time    1.6623
    CHARGE:  cpu time    0.1115: real time    0.1118
    MIXING:  cpu time    0.0028: real time    0.0028
    --------------------------------------------
      LOOP:  cpu time    1.7724: real time    1.7766

 eigenvalue-minimisations  :  1312
 total energy-change (2. order) :-0.7679341E+01  (-0.7629688E+01)
 number of electron     361.0000016 magnetization      36.9975677
 augmentation part      104.5696889 magnetization      29.2722145

 Broyden mixing:
  rms(total) = 0.11957E+02    rms(broyden)= 0.11955E+02
  rms(prec ) = 0.14604E+02
  weight for this iteration     100.00

 Free energy of the ion-electron system (eV)
  ---------------------------------------------------
  alpha Z        PSCENC =      1146.01498061
  Ewald energy   TEWEN  =    -21365.87936764
  -Hartree energ DENC   =    -11189.04794266
  -exchange      EXHF   =         0.00000000
  -V(xc)+E(xc)   XCENC  =      1463.20302064
  PAW double counting   =     26703.13321861   -27864.47628080
  entropy T*S    EENTRO =        -0.12654308
  eigenvalues    EBANDS =      -940.67497230
  atomic energy  EATOM  =     31616.72437543
  Solvation  Ediel_sol  =         0.00000000
  ---------------------------------------------------
  free energy    TOTEN  =      -431.12951119 eV

  energy without entropy =     -431.00296811  energy(sigma->0) =     -431.06623965


--------------------------------------------------------------------------------------------------------




--------------------------------------- Iteration      1(   6)  ---------------------------------------


    POTLOK:  cpu time    0.1131: real time    0.1133
    SETDIJ:  cpu time    0.0170: real time    0.0170
     EDDAV:  cpu time    1.7056: real time    1.7096
    CHARGE:  cpu time    0.1061: real time    0.1064
    MIXING:  cpu time    0.0029: real time    0.0029
    --------------------------------------------
      LOOP:  cpu time    1.9447: real time    1.9493

 eigenvalue-minimisations  :  1424
 total energy-change (2. order) :-0.8713631E+02  (-0.1259947E+03)
 number of electron     361.0000013 magnetization      32.4794255
 augmentation part      138.0325101 magnetization      30.9938790

 Broyden mixing:
  rms(total) = 0.21869E+02    rms(broyden)= 0.21867E+02
  rms(prec ) = 0.24131E+02
  weight for this iteration     100.00

 eigenvalues of (default mixing * dielectric matrix)
  average eigenvalue GAMMA=   0.1823
  0.1823

 Free energy of the ion-electron system (eV)
  ---------------------------------------------------
  alpha Z        PSCENC =      1146.01498061
  Ewald energy   TEWEN  =    -21365.87936764
  -Hartree energ DENC   =    -10612.17530341
  -exchange      EXHF   =         0.00000000
  -V(xc)+E(xc)   XCENC  =      1463.40772872
  PAW double counting   =     29551.62826318   -30527.61005617
  entropy T*S    EENTRO =        -0.03097535
  eigenvalues    EBANDS =     -1790.34546711
  atomic energy  EATOM  =     31616.72437543
  Solvation  Ediel_sol  =         0.00000000
  ---------------------------------------------------
  free energy    TOTEN  =      -518.26582175 eV

  energy without entropy =     -518.23484640  energy(sigma->0) =     -518.25033407


--------------------------------------------------------------------------------------------------------




--------------------------------------- Iteration      1(   7)  ---------------------------------------


    POTLOK:  cpu time    0.1071: real time    0.1074
    SETDIJ:  cpu time    0.0170: real time    0.0170
     EDDAV:  cpu time    1.6455: real time    1.6494
    CHARGE:  cpu time    0.1078: real time    0.1081
    MIXING:  cpu time    0.0029: real time    0.0029
    --------------------------------------------
      LOOP:  cpu time    1.8803: real time    1.8847

 eigenvalue-minimisations  :  1328
 total energy-change (2. order) : 0.1564270E+03  (-0.3333744E+02)
 number of electron     361.0000020 magnetization      25.4616231
 augmentation part      129.0220116 magnetization      23.8724890

 Broyden mixing:
  rms(total) = 0.85199E+01    rms(broyden)= 0.85190E+01
  rms(prec ) = 0.10300E+02
  weight for this iteration     100.00

 eigenvalues of (default mixing * dielectric matrix)
  average eigenvalue GAMMA=   0.5209
  0.5209  0.5209

 Free energy of the ion-electron system (eV)
  ---------------------------------------------------
  alpha Z        PSCENC =      1146.01498061
  Ewald energy   TEWEN  =    -21365.87936764
  -Hartree energ DENC   =    -10804.02955285
  -exchange      EXHF   =         0.00000000
  -V(xc)+E(xc)   XCENC  =      1458.93921018
  PAW double counting   =     30743.88882277   -31834.82805282
  entropy T*S    EENTRO =        -0.03900181
  eigenvalues    EBANDS =     -1322.63023460
  atomic energy  EATOM  =     31616.72437543
  Solvation  Ediel_sol  =         0.00000000
  ---------------------------------------------------
  free energy    TOTEN  =      -361.83882072 eV

  energy without entropy =     -361.79981891  energy(sigma->0) =     -361.81931982


--------------------------------------------------------------------------------------------------------




--------------------------------------- Iteration      1(   8)  ---------------------------------------


    POTLOK:  cpu time    0.1074: real time    0.1077
    SETDIJ:  cpu time    0.0170: real time    0.0170
     EDDAV:  cpu time    1.9080: real time    1.9126
    CHARGE:  cpu time    0.1058: real time    0.1060
    MIXING:  cpu time    0.0031: real time    0.0031
    --------------------------------------------
      LOOP:  cpu time    2.1413: real time    2.1464

 eigenvalue-minimisations  :  1632
 total energy-change (2. order) : 0.1655046E+02  (-0.2406707E+02)
 number of electron     361.0000010 magnetization      21.1487984
 augmentation part      116.9437462 magnetization      20.5675303

 Broyden mixing:
  rms(total) = 0.79247E+01    rms(broyden)= 0.79232E+01
  rms(prec ) = 0.12055E+02
  weight for this iteration     100.00

 eigenvalues of (default mixing * dielectric matrix)
  average eigenvalue GAMMA=   0.4916
  0.6103  0.6103  0.2541

 Free energy of the ion-electron system (eV)
  ---------------------------------------------------
  alpha Z        PSCENC =      1146.01498061
  Ewald energy   TEWEN  =    -21365.87936764
  -Hartree energ DENC   =    -10921.76568005
  -exchange      EXHF   =         0.00000000
  -V(xc)+E(xc)   XCENC  =      1453.55498932
  PAW double counting   =     31950.55601528   -33132.91465278
  entropy T*S    EENTRO =        -0.02776044
  eigenvalues    EBANDS =     -1091.55125794
  atomic energy  EATOM  =     31616.72437543
  Solvation  Ediel_sol  =         0.00000000
  ---------------------------------------------------
  free energy    TOTEN  =      -345.28835821 eV

  energy without entropy =     -345.26059777  energy(sigma->0) =     -345.27447799


--------------------------------------------------------------------------------------------------------




--------------------------------------- Iteration      1(   9)  ---------------------------------------


    POTLOK:  cpu time    0.1075: real time    0.1077
    SETDIJ:  cpu time    0.0170: real time    0.0170
     EDDAV:  cpu time    1.5548: real time    1.5585
    CHARGE:  cpu time    0.1182: real time    0.1185
    MIXING:  cpu time    0.0038: real time    0.0038
    --------------------------------------------
      LOOP:  cpu time    1.8013: real time    1.8056

 eigenvalue-minimisations  :  1248
 total energy-change (2. order) :-0.2430208E+02  (-0.5168361E+02)
 number of electron     361.0000019 magnetization      17.5547335
 augmentation part      115.3240153 magnetization      13.9969834

 Broyden mixing:
  rms(total) = 0.11007E+02    rms(broyden)= 0.11007E+02
  rms(prec ) = 0.15166E+02
  weight for this iteration     100.00

 eigenvalues of (default mixing * dielectric matrix)
  average eigenvalue GAMMA=   0.4261
  0.6325  0.6325  0.3249  0.1144

 Free energy of the ion-electron system (eV)
  ---------------------------------------------------
  alpha Z        PSCENC =      1146.01498061
  Ewald energy   TEWEN  =    -21365.87936764
  -Hartree energ DENC   =    -10881.39119061
  -exchange      EXHF   =         0.00000000
  -V(xc)+E(xc)   XCENC  =      1450.94323717
  PAW double counting   =     32542.17273796   -33726.34345753
  entropy T*S    EENTRO =        -0.07563956
  eigenvalues    EBANDS =     -1151.75611103
  atomic energy  EATOM  =     31616.72437543
  Solvation  Ediel_sol  =         0.00000000
  ---------------------------------------------------
  free energy    TOTEN  =      -369.59043520 eV

  energy without entropy =     -369.51479565  energy(sigma->0) =     -369.55261543


--------------------------------------------------------------------------------------------------------




--------------------------------------- Iteration      1(  10)  ---------------------------------------


    POTLOK:  cpu time    0.1215: real time    0.1218
    SETDIJ:  cpu time    0.0170: real time    0.0170
     EDDAV:  cpu time    1.7496: real time    1.7538
    CHARGE:  cpu time    0.1121: real time    0.1124
    MIXING:  cpu time    0.0033: real time    0.0033
    --------------------------------------------
      LOOP:  cpu time    2.0035: real time    2.0082

 eigenvalue-minimisations  :  1376
 total energy-change (2. order) : 0.1887696E+02  (-0.1136337E+02)
 number of electron     361.0000015 magnetization      16.2600918
 augmentation part      115.4823085 magnetization      14.4546298

 Broyden mixing:
  rms(total) = 0.79141E+01    rms(broyden)= 0.79136E+01
  rms(prec ) = 0.98657E+01
  weight for this iteration     100.00

 eigenvalues of (default mixing * dielectric matrix)
  average eigenvalue GAMMA=   0.3605
  0.6414  0.6414  0.3044  0.1076  0.1076

 Free energy of the ion-electron system (eV)
  ---------------------------------------------------
  alpha Z        PSCENC =      1146.01498061
  Ewald energy   TEWEN  =    -21365.87936764
  -Hartree energ DENC   =    -10866.38697467
  -exchange      EXHF   =         0.00000000
  -V(xc)+E(xc)   XCENC  =      1449.72395921
  PAW double counting   =     33224.59088704   -34421.21628829
  entropy T*S    EENTRO =        -0.04140548
  eigenvalues    EBANDS =     -1134.24364415
  atomic energy  EATOM  =     31616.72437543
  Solvation  Ediel_sol  =         0.00000000
  ---------------------------------------------------
  free energy    TOTEN  =      -350.71347795 eV

  energy without entropy =     -350.67207247  energy(sigma->0) =     -350.69277521


--------------------------------------------------------------------------------------------------------




--------------------------------------- Iteration      1(  11)  ---------------------------------------


    POTLOK:  cpu time    0.1071: real time    0.1073
    SETDIJ:  cpu time    0.0170: real time    0.0170
     EDDAV:  cpu time    1.7881: real time    1.7924
    CHARGE:  cpu time    0.1216: real time    0.1219
    MIXING:  cpu time    0.0034: real time    0.0034
    --------------------------------------------
      LOOP:  cpu time    2.0372: real time    2.0421

 eigenvalue-minimisations  :  1408
 total energy-change (2. order) : 0.1584781E+02  (-0.2301479E+01)
 number of electron     361.0000020 magnetization      14.7794043
 augmentation part      116.9370546 magnetization      14.3050674

 Broyden mixing:
  rms(total) = 0.52106E+01    rms(broyden)= 0.52102E+01
  rms(prec ) = 0.62276E+01
  weight for this iteration     100.00

 eigenvalues of (default mixing * dielectric matrix)
  average eigenvalue GAMMA=   0.3608
  0.6767  0.6767  0.2799  0.2166  0.2166  0.0982

 Free energy of the ion-electron system (eV)
  ---------------------------------------------------
  alpha Z        PSCENC =      1146.01498061
  Ewald energy   TEWEN  =    -21365.87936764
  -Hartree energ DENC   =    -10857.74653857
  -exchange      EXHF   =         0.00000000
  -V(xc)+E(xc)   XCENC  =      1449.39644023
  PAW double counting   =     33454.26316191   -34654.15604297
  entropy T*S    EENTRO =        -0.02143801
  eigenvalues    EBANDS =     -1123.46124278
  atomic energy  EATOM  =     31616.72437543
  Solvation  Ediel_sol  =         0.00000000
  ---------------------------------------------------
  free energy    TOTEN  =      -334.86567180 eV

  energy without entropy =     -334.84423379  energy(sigma->0) =     -334.85495279


--------------------------------------------------------------------------------------------------------




--------------------------------------- Iteration      1(  12)  ---------------------------------------


    POTLOK:  cpu time    0.1203: real time    0.1206
    SETDIJ:  cpu time    0.0226: real time    0.0227
     EDDAV:  cpu time    1.7906: real time    1.7948
    CHARGE:  cpu time    0.1217: real time    0.1220
    MIXING:  cpu time    0.0041: real time    0.0041
    --------------------------------------------
      LOOP:  cpu time    2.0593: real time    2.0642

 eigenvalue-minimisations  :  1344
 total energy-change (2. order) : 0.7136330E+01  (-0.1345954E+01)
 number of electron     361.0000018 magnetization      11.0809121
 augmentation part      117.3603969 magnetization      10.6212644

 Broyden mixing:
  rms(total) = 0.45880E+01    rms(broyden)= 0.45879E+01
  rms(prec ) = 0.59153E+01
  weight for this iteration     100.00

 eigenvalues of (default mixing * dielectric matrix)
  average eigenvalue GAMMA=   0.4231
  0.7497  0.7497  0.4135  0.4135  0.3583  0.1686  0.1080

 Free energy of the ion-electron system (eV)
  ---------------------------------------------------
  alpha Z        PSCENC =      1146.01498061
  Ewald energy   TEWEN  =    -21365.87936764
  -Hartree energ DENC   =    -10858.87329294
  -exchange      EXHF   =         0.00000000
  -V(xc)+E(xc)   XCENC  =      1449.50014446
  PAW double counting   =     33545.50311105   -34745.92918177
  entropy T*S    EENTRO =        -0.02410673
  eigenvalues    EBANDS =     -1114.76600473
  atomic energy  EATOM  =     31616.72437543
  Solvation  Ediel_sol  =         0.00000000
  ---------------------------------------------------
  free energy    TOTEN  =      -327.72934227 eV

  energy without entropy =     -327.70523554  energy(sigma->0) =     -327.71728890


--------------------------------------------------------------------------------------------------------




--------------------------------------- Iteration      1(  13)  ---------------------------------------


    POTLOK:  cpu time    0.1200: real time    0.1203
    SETDIJ:  cpu time    0.0197: real time    0.0198
     EDDAV:  cpu time    1.4819: real time    1.4854
    CHARGE:  cpu time    0.1057: real time    0.1059
    MIXING:  cpu time    0.0037: real time    0.0038
    --------------------------------------------
      LOOP:  cpu time    1.7310: real time    1.7351

 eigenvalue-minimisations  :  1216
 total energy-change (2. order) : 0.6600482E+01  (-0.5442846E+01)
 number of electron     361.0000018 magnetization       9.3225731
 augmentation part      117.4935420 magnetization       8.6002684

 Broyden mixing:
  rms(total) = 0.34058E+01    rms(broyden)= 0.34051E+01
  rms(prec ) = 0.42860E+01
  weight for this iteration     100.00

 eigenvalues of (default mixing * dielectric matrix)
  average eigenvalue GAMMA=   0.4195
  0.9193  0.4851  0.4851  0.4530  0.3771  0.3771  0.1534  0.1064

 Free energy of the ion-electron system (eV)
  ---------------------------------------------------
  alpha Z        PSCENC =      1146.01498061
  Ewald energy   TEWEN  =    -21365.87936764
  -Hartree energ DENC   =    -10872.18539767
  -exchange      EXHF   =         0.00000000
  -V(xc)+E(xc)   XCENC  =      1450.03243128
  PAW double counting   =     33804.52627192   -35007.75450678
  entropy T*S    EENTRO =        -0.01986918
  eigenvalues    EBANDS =     -1092.58777845
  atomic energy  EATOM  =     31616.72437543
  Solvation  Ediel_sol  =         0.00000000
  ---------------------------------------------------
  free energy    TOTEN  =      -321.12886047 eV

  energy without entropy =     -321.10899129  energy(sigma->0) =     -321.11892588


--------------------------------------------------------------------------------------------------------




--------------------------------------- Iteration      1(  14)  ---------------------------------------


    POTLOK:  cpu time    0.1068: real time    0.1071
    SETDIJ:  cpu time    0.0170: real time    0.0170
     EDDAV:  cpu time    1.5343: real time    1.5379
    CHARGE:  cpu time    0.1253: real time    0.1256
    MIXING:  cpu time    0.0039: real time    0.0039
    --------------------------------------------
      LOOP:  cpu time    1.7873: real time    1.7915

 eigenvalue-minimisations  :  1216
 total energy-change (2. order) : 0.2885387E+01  (-0.2020341E+01)
 number of electron     361.0000019 magnetization       7.1306769
 augmentation part      117.8599778 magnetization       6.3036936

 Broyden mixing:
  rms(total) = 0.23239E+01    rms(broyden)= 0.23232E+01
  rms(prec ) = 0.28917E+01
  weight for this iteration     100.00

 eigenvalues of (default mixing * dielectric matrix)
  average eigenvalue GAMMA=   0.4480
  1.2863  0.5390  0.5390  0.4032  0.4032  0.3849  0.2187  0.1503  0.1070

 Free energy of the ion-electron system (eV)
  ---------------------------------------------------
  alpha Z        PSCENC =      1146.01498061
  Ewald energy   TEWEN  =    -21365.87936764
  -Hartree energ DENC   =    -10868.65599418
  -exchange      EXHF   =         0.00000000
  -V(xc)+E(xc)   XCENC  =      1449.68907532
  PAW double counting   =     34075.97182435   -35282.65330393
  entropy T*S    EENTRO =        -0.02710995
  eigenvalues    EBANDS =     -1089.42795312
  atomic energy  EATOM  =     31616.72437543
  Solvation  Ediel_sol  =         0.00000000
  ---------------------------------------------------
  free energy    TOTEN  =      -318.24347311 eV

  energy without entropy =     -318.21636316  energy(sigma->0) =     -318.22991813


--------------------------------------------------------------------------------------------------------




--------------------------------------- Iteration      1(  15)  ---------------------------------------


    POTLOK:  cpu time    0.1202: real time    0.1204
    SETDIJ:  cpu time    0.0232: real time    0.0233
     EDDAV:  cpu time    1.6529: real time    1.6568
    CHARGE:  cpu time    0.1200: real time    0.1202
    MIXING:  cpu time    0.0051: real time    0.0051
    --------------------------------------------
      LOOP:  cpu time    1.9213: real time    1.9258

 eigenvalue-minimisations  :  1216
 total energy-change (2. order) :-0.3138725E+00  (-0.2433952E+01)
 number of electron     361.0000017 magnetization       6.2586495
 augmentation part      118.4290092 magnetization       4.7269382

 Broyden mixing:
  rms(total) = 0.17000E+01    rms(broyden)= 0.16995E+01
  rms(prec ) = 0.22037E+01
  weight for this iteration     100.00

 eigenvalues of (default mixing * dielectric matrix)
  average eigenvalue GAMMA=   0.4540
  1.4085  0.5988  0.5988  0.4025  0.4025  0.3468  0.3468  0.1069  0.1532  0.1753

 Free energy of the ion-electron system (eV)
  ---------------------------------------------------
  alpha Z        PSCENC =      1146.01498061
  Ewald energy   TEWEN  =    -21365.87936764
  -Hartree energ DENC   =    -10858.98271705
  -exchange      EXHF   =         0.00000000
  -V(xc)+E(xc)   XCENC  =      1449.17876075
  PAW double counting   =     34482.85892498   -35692.51572273
  entropy T*S    EENTRO =        -0.01653806
  eigenvalues    EBANDS =     -1095.94004192
  atomic energy  EATOM  =     31616.72437543
  Solvation  Ediel_sol  =         0.00000000
  ---------------------------------------------------
  free energy    TOTEN  =      -318.55734563 eV

  energy without entropy =     -318.54080757  energy(sigma->0) =     -318.54907660


--------------------------------------------------------------------------------------------------------




--------------------------------------- Iteration      1(  16)  ---------------------------------------


    POTLOK:  cpu time    0.1216: real time    0.1219
    SETDIJ:  cpu time    0.0197: real time    0.0197
     EDDAV:  cpu time    1.6731: real time    1.6770
    CHARGE:  cpu time    0.1220: real time    0.1223
    MIXING:  cpu time    0.0051: real time    0.0051
    --------------------------------------------
      LOOP:  cpu time    1.9416: real time    1.9462

 eigenvalue-minimisations  :  1248
 total energy-change (2. order) : 0.5951076E+00  (-0.6483193E+00)
 number of electron     361.0000019 magnetization       5.2677340
 augmentation part      118.3477088 magnetization       4.0486753

 Broyden mixing:
  rms(total) = 0.11709E+01    rms(broyden)= 0.11705E+01
  rms(prec ) = 0.13869E+01
  weight for this iteration     100.00

 eigenvalues of (default mixing * dielectric matrix)
  average eigenvalue GAMMA=   0.4692
  1.5315  0.6833  0.6833  0.3960  0.3960  0.3948  0.3948  0.2425  0.1070  0.1832
  0.1491

 Free energy of the ion-electron system (eV)
  ---------------------------------------------------
  alpha Z        PSCENC =      1146.01498061
  Ewald energy   TEWEN  =    -21365.87936764
  -Hartree energ DENC   =    -10860.29883571
  -exchange      EXHF   =         0.00000000
  -V(xc)+E(xc)   XCENC  =      1449.13028927
  PAW double counting   =     34706.75332355   -35919.41355873
  entropy T*S    EENTRO =        -0.02413738
  eigenvalues    EBANDS =     -1090.96930742
  atomic energy  EATOM  =     31616.72437543
  Solvation  Ediel_sol  =         0.00000000
  ---------------------------------------------------
  free energy    TOTEN  =      -317.96223802 eV

  energy without entropy =     -317.93810064  energy(sigma->0) =     -317.95016933


--------------------------------------------------------------------------------------------------------




--------------------------------------- Iteration      1(  17)  ---------------------------------------


    POTLOK:  cpu time    0.1190: real time    0.1193
    SETDIJ:  cpu time    0.0224: real time    0.0224
     EDDAV:  cpu time    1.6806: real time    1.6846
    CHARGE:  cpu time    0.1065: real time    0.1068
    MIXING:  cpu time    0.0042: real time    0.0042
    --------------------------------------------
      LOOP:  cpu time    1.9327: real time    1.9373

 eigenvalue-minimisations  :  1280
 total energy-change (2. order) : 0.5698971E-01  (-0.2327820E+00)
 number of electron     361.0000019 magnetization       4.3681842
 augmentation part      118.4313326 magnetization       3.1243092

 Broyden mixing:
  rms(total) = 0.75734E+00    rms(broyden)= 0.75716E+00
  rms(prec ) = 0.92308E+00
  weight for this iteration     100.00

 eigenvalues of (default mixing * dielectric matrix)
  average eigenvalue GAMMA=   0.5097
  1.7177  0.7749  0.7749  0.5336  0.5336  0.3931  0.3931  0.3252  0.2376  0.1069
  0.1506  0.1751

 Free energy of the ion-electron system (eV)
  ---------------------------------------------------
  alpha Z        PSCENC =      1146.01498061
  Ewald energy   TEWEN  =    -21365.87936764
  -Hartree energ DENC   =    -10859.87498231
  -exchange      EXHF   =         0.00000000
  -V(xc)+E(xc)   XCENC  =      1449.13158247
  PAW double counting   =     34953.83364138   -36169.21586584
  entropy T*S    EENTRO =        -0.03034311
  eigenvalues    EBANDS =     -1088.60926928
  atomic energy  EATOM  =     31616.72437543
  Solvation  Ediel_sol  =         0.00000000
  ---------------------------------------------------
  free energy    TOTEN  =      -317.90524830 eV

  energy without entropy =     -317.87490519  energy(sigma->0) =     -317.89007675


--------------------------------------------------------------------------------------------------------




--------------------------------------- Iteration      1(  18)  ---------------------------------------


    POTLOK:  cpu time    0.1068: real time    0.1071
    SETDIJ:  cpu time    0.0170: real time    0.0171
     EDDAV:  cpu time    1.5231: real time    1.5268
    CHARGE:  cpu time    0.1062: real time    0.1065
    MIXING:  cpu time    0.0046: real time    0.0046
    --------------------------------------------
      LOOP:  cpu time    1.7577: real time    1.7619

 eigenvalue-minimisations  :  1264
 total energy-change (2. order) :-0.2172711E+00  (-0.2089912E+00)
 number of electron     361.0000019 magnetization       3.7560457
 augmentation part      118.7371933 magnetization       2.7938778

 Broyden mixing:
  rms(total) = 0.95680E+00    rms(broyden)= 0.95659E+00
  rms(prec ) = 0.11744E+01
  weight for this iteration     100.00

 eigenvalues of (default mixing * dielectric matrix)
  average eigenvalue GAMMA=   0.5126
  1.8589  0.7713  0.7713  0.6068  0.6068  0.3989  0.3989  0.3142  0.3142  0.1069
  0.1496  0.1828  0.1828

 Free energy of the ion-electron system (eV)
  ---------------------------------------------------
  alpha Z        PSCENC =      1146.01498061
  Ewald energy   TEWEN  =    -21365.87936764
  -Hartree energ DENC   =    -10856.80066821
  -exchange      EXHF   =         0.00000000
  -V(xc)+E(xc)   XCENC  =      1449.16051534
  PAW double counting   =     35206.35002309   -36423.06167946
  entropy T*S    EENTRO =        -0.02104412
  eigenvalues    EBANDS =     -1090.60965448
  atomic energy  EATOM  =     31616.72437543
  Solvation  Ediel_sol  =         0.00000000
  ---------------------------------------------------
  free energy    TOTEN  =      -318.12251943 eV

  energy without entropy =     -318.10147532  energy(sigma->0) =     -318.11199737


--------------------------------------------------------------------------------------------------------




--------------------------------------- Iteration      1(  19)  ---------------------------------------


    POTLOK:  cpu time    0.1067: real time    0.1070
    SETDIJ:  cpu time    0.0170: real time    0.0171
     EDDAV:  cpu time    1.4458: real time    1.4493
    CHARGE:  cpu time    0.1064: real time    0.1067
    MIXING:  cpu time    0.0045: real time    0.0046
    --------------------------------------------
      LOOP:  cpu time    1.6805: real time    1.6845

 eigenvalue-minimisations  :  1184
 total energy-change (2. order) : 0.1850392E+00  (-0.2020241E+00)
 number of electron     361.0000020 magnetization       3.4130239
 augmentation part      118.8255235 magnetization       2.3922623

 Broyden mixing:
  rms(total) = 0.58511E+00    rms(broyden)= 0.58491E+00
  rms(prec ) = 0.69322E+00
  weight for this iteration     100.00

 eigenvalues of (default mixing * dielectric matrix)
  average eigenvalue GAMMA=   0.5200
  1.9529  0.7773  0.7773  0.6847  0.6847  0.4063  0.4063  0.3782  0.3782  0.1069
  0.2146  0.1502  0.1812  0.1812

 Free energy of the ion-electron system (eV)
  ---------------------------------------------------
  alpha Z        PSCENC =      1146.01498061
  Ewald energy   TEWEN  =    -21365.87936764
  -Hartree energ DENC   =    -10857.52813008
  -exchange      EXHF   =         0.00000000
  -V(xc)+E(xc)   XCENC  =      1449.27350830
  PAW double counting   =     35359.41672176   -36577.29981157
  entropy T*S    EENTRO =        -0.00960828
  eigenvalues    EBANDS =     -1088.65014877
  atomic energy  EATOM  =     31616.72437543
  Solvation  Ediel_sol  =         0.00000000
  ---------------------------------------------------
  free energy    TOTEN  =      -317.93748024 eV

  energy without entropy =     -317.92787196  energy(sigma->0) =     -317.93267610


--------------------------------------------------------------------------------------------------------




--------------------------------------- Iteration      1(  20)  ---------------------------------------


    POTLOK:  cpu time    0.1067: real time    0.1070
    SETDIJ:  cpu time    0.0172: real time    0.0172
     EDDAV:  cpu time    1.5559: real time    1.5596
    CHARGE:  cpu time    0.1065: real time    0.1067
    MIXING:  cpu time    0.0051: real time    0.0051
    --------------------------------------------
      LOOP:  cpu time    1.7914: real time    1.7956

 eigenvalue-minimisations  :  1264
 total energy-change (2. order) : 0.1880028E-01  (-0.7172366E-01)
 number of electron     361.0000019 magnetization       3.2259035
 augmentation part      118.8220027 magnetization       2.2979051

 Broyden mixing:
  rms(total) = 0.48831E+00    rms(broyden)= 0.48820E+00
  rms(prec ) = 0.59454E+00
  weight for this iteration     100.00

 eigenvalues of (default mixing * dielectric matrix)
  average eigenvalue GAMMA=   0.5366
  2.0438  0.9156  0.9156  0.6703  0.6703  0.4646  0.4646  0.3944  0.3944  0.2701
  0.1069  0.2378  0.1499  0.1756  0.1756

 Free energy of the ion-electron system (eV)
  ---------------------------------------------------
  alpha Z        PSCENC =      1146.01498061
  Ewald energy   TEWEN  =    -21365.87936764
  -Hartree energ DENC   =    -10859.53780537
  -exchange      EXHF   =         0.00000000
  -V(xc)+E(xc)   XCENC  =      1449.40299994
  PAW double counting   =     35462.34959241   -36681.02585812
  entropy T*S    EENTRO =        -0.02356613
  eigenvalues    EBANDS =     -1085.94403109
  atomic energy  EATOM  =     31616.72437543
  Solvation  Ediel_sol  =         0.00000000
  ---------------------------------------------------
  free energy    TOTEN  =      -317.91867996 eV

  energy without entropy =     -317.89511383  energy(sigma->0) =     -317.90689690


--------------------------------------------------------------------------------------------------------




--------------------------------------- Iteration      1(  21)  ---------------------------------------


    POTLOK:  cpu time    0.1194: real time    0.1197
    SETDIJ:  cpu time    0.0252: real time    0.0252
     EDDAV:  cpu time    1.5768: real time    1.5806
    CHARGE:  cpu time    0.1064: real time    0.1066
    MIXING:  cpu time    0.0051: real time    0.0051
    --------------------------------------------
      LOOP:  cpu time    1.8330: real time    1.8373

 eigenvalue-minimisations  :  1216
 total energy-change (2. order) : 0.2108783E-01  (-0.5474703E-01)
 number of electron     361.0000019 magnetization       3.1535078
 augmentation part      118.8034482 magnetization       2.2174178

 Broyden mixing:
  rms(total) = 0.37745E+00    rms(broyden)= 0.37736E+00
  rms(prec ) = 0.45049E+00
  weight for this iteration     100.00

 eigenvalues of (default mixing * dielectric matrix)
  average eigenvalue GAMMA=   0.5564
  2.1422  1.0180  1.0180  0.6875  0.6875  0.5813  0.5813  0.3924  0.3924  0.3490
  0.1069  0.2416  0.1501  0.1965  0.1784  0.1784

 Free energy of the ion-electron system (eV)
  ---------------------------------------------------
  alpha Z        PSCENC =      1146.01498061
  Ewald energy   TEWEN  =    -21365.87936764
  -Hartree energ DENC   =    -10861.50256353
  -exchange      EXHF   =         0.00000000
  -V(xc)+E(xc)   XCENC  =      1449.49507839
  PAW double counting   =     35518.57617140   -36737.43010587
  entropy T*S    EENTRO =        -0.00742137
  eigenvalues    EBANDS =     -1083.88873955
  atomic energy  EATOM  =     31616.72437543
  Solvation  Ediel_sol  =         0.00000000
  ---------------------------------------------------
  free energy    TOTEN  =      -317.89759213 eV

  energy without entropy =     -317.89017076  energy(sigma->0) =     -317.89388145


--------------------------------------------------------------------------------------------------------




--------------------------------------- Iteration      1(  22)  ---------------------------------------


    POTLOK:  cpu time    0.1072: real time    0.1075
    SETDIJ:  cpu time    0.0171: real time    0.0171
     EDDAV:  cpu time    1.5779: real time    1.5817
    CHARGE:  cpu time    0.1068: real time    0.1070
    MIXING:  cpu time    0.0053: real time    0.0053
    --------------------------------------------
      LOOP:  cpu time    1.8143: real time    1.8186

 eigenvalue-minimisations  :  1232
 total energy-change (2. order) : 0.2407919E-01  (-0.1347235E-01)
 number of electron     361.0000019 magnetization       3.1072531
 augmentation part      118.8256303 magnetization       2.1823511

 Broyden mixing:
  rms(total) = 0.30566E+00    rms(broyden)= 0.30562E+00
  rms(prec ) = 0.35001E+00
  weight for this iteration     100.00

 eigenvalues of (default mixing * dielectric matrix)
  average eigenvalue GAMMA=   0.5483
  2.2130  1.0539  1.0539  0.6964  0.6964  0.6079  0.6079  0.3924  0.3924  0.3436
  0.1069  0.2455  0.2056  0.2056  0.1500  0.1749  0.1749

 Free energy of the ion-electron system (eV)
  ---------------------------------------------------
  alpha Z        PSCENC =      1146.01498061
  Ewald energy   TEWEN  =    -21365.87936764
  -Hartree energ DENC   =    -10861.78240564
  -exchange      EXHF   =         0.00000000
  -V(xc)+E(xc)   XCENC  =      1449.50566879
  PAW double counting   =     35541.27695732   -36759.82429953
  entropy T*S    EENTRO =        -0.00972607
  eigenvalues    EBANDS =     -1083.89969620
  atomic energy  EATOM  =     31616.72437543
  Solvation  Ediel_sol  =         0.00000000
  ---------------------------------------------------
  free energy    TOTEN  =      -317.87351293 eV

  energy without entropy =     -317.86378687  energy(sigma->0) =     -317.86864990


--------------------------------------------------------------------------------------------------------




--------------------------------------- Iteration      1(  23)  ---------------------------------------


    POTLOK:  cpu time    0.1074: real time    0.1077
    SETDIJ:  cpu time    0.0177: real time    0.0177
     EDDAV:  cpu time    1.4828: real time    1.4863
    CHARGE:  cpu time    0.1120: real time    0.1123
    MIXING:  cpu time    0.0057: real time    0.0057
    --------------------------------------------
      LOOP:  cpu time    1.7256: real time    1.7297

 eigenvalue-minimisations  :  1216
 total energy-change (2. order) : 0.1113873E-01  (-0.5632931E-02)
 number of electron     361.0000019 magnetization       3.0696208
 augmentation part      118.8081410 magnetization       2.1501841

 Broyden mixing:
  rms(total) = 0.24011E+00    rms(broyden)= 0.24010E+00
  rms(prec ) = 0.27147E+00
  weight for this iteration     100.00

 eigenvalues of (default mixing * dielectric matrix)
  average eigenvalue GAMMA=   0.5617
  2.2217  1.1290  1.1290  0.6984  0.6984  0.6724  0.6724  0.3979  0.3979  0.3991
  0.3991  0.1069  0.2662  0.2302  0.1500  0.1841  0.1841  0.1743

 Free energy of the ion-electron system (eV)
  ---------------------------------------------------
  alpha Z        PSCENC =      1146.01498061
  Ewald energy   TEWEN  =    -21365.87936764
  -Hartree energ DENC   =    -10862.30828306
  -exchange      EXHF   =         0.00000000
  -V(xc)+E(xc)   XCENC  =      1449.51583862
  PAW double counting   =     35552.88073749   -36771.38364110
  entropy T*S    EENTRO =        -0.01195447
  eigenvalues    EBANDS =     -1083.41506007
  atomic energy  EATOM  =     31616.72437543
  Solvation  Ediel_sol  =         0.00000000
  ---------------------------------------------------
  free energy    TOTEN  =      -317.86237420 eV

  energy without entropy =     -317.85041973  energy(sigma->0) =     -317.85639697


--------------------------------------------------------------------------------------------------------




--------------------------------------- Iteration      1(  24)  ---------------------------------------


    POTLOK:  cpu time    0.1120: real time    0.1123
    SETDIJ:  cpu time    0.0215: real time    0.0216
     EDDAV:  cpu time    1.6751: real time    1.6791
    CHARGE:  cpu time    0.1063: real time    0.1066
    MIXING:  cpu time    0.0057: real time    0.0057
    --------------------------------------------
      LOOP:  cpu time    1.9207: real time    1.9252

 eigenvalue-minimisations  :  1312
 total energy-change (2. order) : 0.3956882E-02  (-0.1862572E-02)
 number of electron     361.0000019 magnetization       3.0035386
 augmentation part      118.8096496 magnetization       2.0873012

 Broyden mixing:
  rms(total) = 0.20201E+00    rms(broyden)= 0.20200E+00
  rms(prec ) = 0.22460E+00
  weight for this iteration     100.00

 eigenvalues of (default mixing * dielectric matrix)
  average eigenvalue GAMMA=   0.5996
  2.2916  1.3367  1.3367  0.6861  0.6861  0.7784  0.7784  0.5474  0.5474  0.3945
  0.3945  0.3569  0.1069  0.2479  0.2156  0.1500  0.1773  0.1800  0.1800

 Free energy of the ion-electron system (eV)
  ---------------------------------------------------
  alpha Z        PSCENC =      1146.01498061
  Ewald energy   TEWEN  =    -21365.87936764
  -Hartree energ DENC   =    -10862.60519173
  -exchange      EXHF   =         0.00000000
  -V(xc)+E(xc)   XCENC  =      1449.50755753
  PAW double counting   =     35553.87908000   -36772.00431870
  entropy T*S    EENTRO =        -0.01095078
  eigenvalues    EBANDS =     -1083.48458205
  atomic energy  EATOM  =     31616.72437543
  Solvation  Ediel_sol  =         0.00000000
  ---------------------------------------------------
  free energy    TOTEN  =      -317.85841732 eV

  energy without entropy =     -317.84746654  energy(sigma->0) =     -317.85294193


--------------------------------------------------------------------------------------------------------




--------------------------------------- Iteration      1(  25)  ---------------------------------------


    POTLOK:  cpu time    0.1068: real time    0.1071
    SETDIJ:  cpu time    0.0170: real time    0.0171
     EDDAV:  cpu time    1.7368: real time    1.7409
    CHARGE:  cpu time    0.1062: real time    0.1065
    MIXING:  cpu time    0.0058: real time    0.0058
    --------------------------------------------
      LOOP:  cpu time    1.9727: real time    1.9773

 eigenvalue-minimisations  :  1440
 total energy-change (2. order) : 0.2312937E-02  (-0.9760503E-03)
 number of electron     361.0000019 magnetization       2.9756734
 augmentation part      118.8030327 magnetization       2.0515280

 Broyden mixing:
  rms(total) = 0.16176E+00    rms(broyden)= 0.16175E+00
  rms(prec ) = 0.18058E+00
  weight for this iteration     100.00

 eigenvalues of (default mixing * dielectric matrix)
  average eigenvalue GAMMA=   0.5969
  2.2717  1.5202  1.5202  0.6876  0.6876  0.7685  0.7685  0.5535  0.5535  0.3940
  0.3940  0.3540  0.1069  0.2490  0.1500  0.2101  0.2101  0.1735  0.1823  0.1823

 Free energy of the ion-electron system (eV)
  ---------------------------------------------------
  alpha Z        PSCENC =      1146.01498061
  Ewald energy   TEWEN  =    -21365.87936764
  -Hartree energ DENC   =    -10863.04729216
  -exchange      EXHF   =         0.00000000
  -V(xc)+E(xc)   XCENC  =      1449.50212479
  PAW double counting   =     35551.78677760   -36769.57197351
  entropy T*S    EENTRO =        -0.01218404
  eigenvalues    EBANDS =     -1083.37354546
  atomic energy  EATOM  =     31616.72437543
  Solvation  Ediel_sol  =         0.00000000
  ---------------------------------------------------
  free energy    TOTEN  =      -317.85610438 eV

  energy without entropy =     -317.84392034  energy(sigma->0) =     -317.85001236


--------------------------------------------------------------------------------------------------------




--------------------------------------- Iteration      1(  26)  ---------------------------------------


    POTLOK:  cpu time    0.1082: real time    0.1085
    SETDIJ:  cpu time    0.0171: real time    0.0171
     EDDAV:  cpu time    1.6620: real time    1.6660
    CHARGE:  cpu time    0.1085: real time    0.1087
    MIXING:  cpu time    0.0062: real time    0.0062
    --------------------------------------------
      LOOP:  cpu time    1.9020: real time    1.9066

 eigenvalue-minimisations  :  1376
 total energy-change (2. order) : 0.2280155E-02  (-0.7356245E-03)
 number of electron     361.0000019 magnetization       2.9392645
 augmentation part      118.7997125 magnetization       2.0106392

 Broyden mixing:
  rms(total) = 0.13207E+00    rms(broyden)= 0.13207E+00
  rms(prec ) = 0.14771E+00
  weight for this iteration     100.00

 eigenvalues of (default mixing * dielectric matrix)
  average eigenvalue GAMMA=   0.6237
  2.2764  1.6992  1.6992  0.8562  0.8562  0.6936  0.6936  0.6298  0.6298  0.3945
  0.3945  0.3914  0.3914  0.1069  0.2412  0.2412  0.1500  0.2128  0.1775  0.1808
  0.1808

 Free energy of the ion-electron system (eV)
  ---------------------------------------------------
  alpha Z        PSCENC =      1146.01498061
  Ewald energy   TEWEN  =    -21365.87936764
  -Hartree energ DENC   =    -10863.30521896
  -exchange      EXHF   =         0.00000000
  -V(xc)+E(xc)   XCENC  =      1449.49954419
  PAW double counting   =     35548.05228801   -36765.64589300
  entropy T*S    EENTRO =        -0.01207597
  eigenvalues    EBANDS =     -1083.30245691
  atomic energy  EATOM  =     31616.72437543
  Solvation  Ediel_sol  =         0.00000000
  ---------------------------------------------------
  free energy    TOTEN  =      -317.85382423 eV

  energy without entropy =     -317.84174826  energy(sigma->0) =     -317.84778624


--------------------------------------------------------------------------------------------------------




--------------------------------------- Iteration      1(  27)  ---------------------------------------


    POTLOK:  cpu time    0.1082: real time    0.1085
    SETDIJ:  cpu time    0.0170: real time    0.0171
     EDDAV:  cpu time    1.8087: real time    1.8130
    CHARGE:  cpu time    0.1064: real time    0.1066
    MIXING:  cpu time    0.0065: real time    0.0065
    --------------------------------------------
      LOOP:  cpu time    2.0469: real time    2.0517

 eigenvalue-minimisations  :  1520
 total energy-change (2. order) : 0.2359498E-02  (-0.5938329E-03)
 number of electron     361.0000019 magnetization       2.9208830
 augmentation part      118.7780396 magnetization       1.9877089

 Broyden mixing:
  rms(total) = 0.95236E-01    rms(broyden)= 0.95230E-01
  rms(prec ) = 0.10912E+00
  weight for this iteration     100.00

 eigenvalues of (default mixing * dielectric matrix)
  average eigenvalue GAMMA=   0.6365
  2.3031  1.5840  1.5840  1.3732  0.6934  0.6934  0.7964  0.7110  0.7110  0.3951
  0.3951  0.4745  0.4745  0.3536  0.1069  0.2473  0.1500  0.2172  0.1757  0.1811
  0.1811  0.2021

 Free energy of the ion-electron system (eV)
  ---------------------------------------------------
  alpha Z        PSCENC =      1146.01498061
  Ewald energy   TEWEN  =    -21365.87936764
  -Hartree energ DENC   =    -10864.04243605
  -exchange      EXHF   =         0.00000000
  -V(xc)+E(xc)   XCENC  =      1449.51173195
  PAW double counting   =     35541.08857550   -36758.48023161
  entropy T*S    EENTRO =        -0.01200683
  eigenvalues    EBANDS =     -1082.77708608
  atomic energy  EATOM  =     31616.72437543
  Solvation  Ediel_sol  =         0.00000000
  ---------------------------------------------------
  free energy    TOTEN  =      -317.85146473 eV

  energy without entropy =     -317.83945790  energy(sigma->0) =     -317.84546131


--------------------------------------------------------------------------------------------------------




--------------------------------------- Iteration      1(  28)  ---------------------------------------


    POTLOK:  cpu time    0.1069: real time    0.1071
    SETDIJ:  cpu time    0.0170: real time    0.0171
     EDDAV:  cpu time    1.6809: real time    1.6849
    CHARGE:  cpu time    0.1078: real time    0.1080
    MIXING:  cpu time    0.0069: real time    0.0069
    --------------------------------------------
[...]
  -------------------------------------------------------------------------------------
  Total        0.2568096      0.1220369      0.1220369      0.0708446     -0.0137120     -0.0708447
  in kB        0.8267600      0.3928795      0.3928795      0.2280737     -0.0441437     -0.2280738
  external PRESSURE =       0.5375063 kB  Pullay stress =       0.0000000 kB


 VOLUME and BASIS-vectors are now :
 -----------------------------------------------------------------------------
  energy-cutoff  :      500.00
  volume of cell :      497.67
      direct lattice vectors                 reciprocal lattice vectors
     0.000000000  3.954343426  3.954343426     0.031101211  0.158348924  0.094537559
     8.030931798 -3.914219762  3.914219762     0.093378012 -0.031946029  0.031946029
     4.020543713  3.898838333 -7.853181759     0.062202422  0.063811365 -0.063811365

  length of vectors
     5.592286103  9.753876062  9.645629883     0.187026782  0.103733074  0.109603476


 FORCES acting on ions
    electron-ion (+dipol)            ewald-force                    non-local-force                 convergence-correction
 -----------------------------------------------------------------------------------------------
   -.813E+01 0.170E+01 -.170E+01   0.795E+01 -.162E+01 0.162E+01   0.175E+00 -.833E-01 0.833E-01   0.989E-02 0.329E-02 -.329E-02
   -.684E+01 -.123E+01 0.124E+01   0.671E+01 0.131E+01 -.131E+01   0.136E+00 -.764E-01 0.764E-01   -.572E-02 0.296E-02 -.296E-02
   0.841E+01 -.938E+00 0.938E+00   -.832E+01 0.710E+00 -.710E+00   -.779E-01 0.232E+00 -.232E+00   -.111E-01 -.260E-02 0.260E-02
   -.115E+02 0.161E+02 -.136E+02   0.117E+02 -.162E+02 0.138E+02   -.263E+00 0.119E+00 -.163E+00   0.200E-01 0.275E-02 0.321E-02
   -.122E+02 -.108E+02 0.150E+02   0.125E+02 0.110E+02 -.151E+02   -.345E+00 -.217E+00 0.296E-01   0.410E-01 -.153E-01 0.525E-01
   0.151E+02 -.111E+02 -.652E+01   -.153E+02 0.114E+02 0.680E+01   0.196E+00 -.343E+00 -.275E+00   -.996E-02 -.559E-03 -.943E-02
   0.312E+01 0.379E+00 -.114E+01   -.316E+01 -.435E+00 0.117E+01   0.945E-01 0.537E-01 0.174E-01   -.487E-01 0.319E-02 -.456E-01
   -.115E+02 0.136E+02 -.161E+02   0.117E+02 -.138E+02 0.162E+02   -.263E+00 0.163E+00 -.119E+00   0.200E-01 -.321E-02 -.275E-02
   -.122E+02 -.150E+02 0.108E+02   0.125E+02 0.151E+02 -.110E+02   -.345E+00 -.296E-01 0.217E+00   0.410E-01 -.525E-01 0.153E-01
   0.151E+02 0.652E+01 0.111E+02   -.153E+02 -.680E+01 -.114E+02   0.196E+00 0.275E+00 0.343E+00   -.996E-02 0.943E-02 0.562E-03
   0.312E+01 0.114E+01 -.379E+00   -.316E+01 -.117E+01 0.435E+00   0.945E-01 -.174E-01 -.537E-01   -.487E-01 0.456E-01 -.319E-02
   0.167E+02 0.547E+01 -.547E+01   -.171E+02 -.550E+01 0.550E+01   0.433E+00 0.260E-01 -.260E-01   0.133E-01 0.174E-02 -.174E-02
   0.554E+01 0.603E+00 -.603E+00   -.580E+01 -.526E+00 0.526E+00   0.259E+00 -.713E-01 0.713E-01   -.228E-02 -.521E-02 0.522E-02
   0.105E+01 -.428E+00 0.428E+00   -.996E+00 0.492E+00 -.492E+00   -.368E-01 -.796E-01 0.796E-01   -.177E-01 0.122E-01 -.122E-01
   -.185E+02 -.102E+02 0.102E+02   0.189E+02 0.104E+02 -.104E+02   -.384E+00 -.198E+00 0.198E+00   0.785E-02 -.103E-01 0.103E-01
   -.243E+01 0.197E+01 -.197E+01   0.205E+01 -.225E+01 0.225E+01   0.350E+00 0.292E+00 -.292E+00   0.270E-01 -.156E-01 0.156E-01
   0.163E+02 -.575E+01 0.575E+01   -.165E+02 0.598E+01 -.598E+01   0.120E+00 -.199E+00 0.199E+00   0.172E-02 -.254E-01 0.254E-01
   0.953E+01 -.379E+00 0.379E+00   -.995E+01 0.130E+00 -.130E+00   0.426E+00 0.214E+00 -.214E+00   -.532E-02 0.334E-01 -.334E-01
   -.166E+02 0.822E+01 -.822E+01   0.173E+02 -.820E+01 0.820E+01   -.626E+00 -.266E-01 0.266E-01   -.166E-01 0.872E-02 -.872E-02
   0.205E+03 0.195E+03 0.225E+03   -.219E+03 -.210E+03 -.241E+03   0.145E+02 0.154E+02 0.166E+02   -.133E-01 0.349E-01 0.580E-02
   0.177E+03 0.182E+03 0.170E+03   -.186E+03 -.193E+03 -.181E+03   0.975E+01 0.111E+02 0.105E+02   -.135E-01 -.145E-01 0.553E-02
   0.198E+03 0.197E+03 0.223E+03   -.213E+03 -.213E+03 -.239E+03   0.149E+02 0.158E+02 0.164E+02   0.126E-01 -.464E-01 0.245E-01
   0.213E+03 0.216E+03 0.202E+03   -.228E+03 -.232E+03 -.218E+03   0.150E+02 0.165E+02 0.154E+02   0.880E-02 -.625E-02 0.175E-01
   0.205E+03 -.225E+03 -.195E+03   -.219E+03 0.241E+03 0.210E+03   0.145E+02 -.166E+02 -.154E+02   -.133E-01 -.580E-02 -.349E-01
   0.177E+03 -.170E+03 -.182E+03   -.186E+03 0.181E+03 0.193E+03   0.975E+01 -.105E+02 -.111E+02   -.135E-01 -.553E-02 0.145E-01
   0.198E+03 -.223E+03 -.197E+03   -.213E+03 0.239E+03 0.213E+03   0.149E+02 -.164E+02 -.158E+02   0.126E-01 -.245E-01 0.464E-01
   0.213E+03 -.202E+03 -.216E+03   -.228E+03 0.218E+03 0.232E+03   0.150E+02 -.154E+02 -.165E+02   0.880E-02 -.175E-01 0.625E-02
   -.217E+03 0.210E+03 -.210E+03   0.232E+03 -.225E+03 0.225E+03   -.151E+02 0.150E+02 -.150E+02   0.277E-02 -.969E-02 0.969E-02
   -.159E+03 0.191E+03 -.191E+03   0.168E+03 -.202E+03 0.202E+03   -.932E+01 0.106E+02 -.106E+02   -.224E-01 -.543E-02 0.543E-02
   -.210E+03 0.212E+03 -.212E+03   0.225E+03 -.227E+03 0.227E+03   -.146E+02 0.151E+02 -.151E+02   -.339E-01 0.987E-02 -.987E-02
   -.198E+03 0.226E+03 -.226E+03   0.212E+03 -.241E+03 0.241E+03   -.140E+02 0.153E+02 -.153E+02   -.390E-04 -.459E-02 0.459E-02
   -.192E+03 -.220E+03 0.220E+03   0.205E+03 0.236E+03 -.236E+03   -.133E+02 -.154E+02 0.154E+02   0.109E-01 0.581E-02 -.581E-02
   -.151E+03 -.188E+03 0.188E+03   0.159E+03 0.199E+03 -.199E+03   -.806E+01 -.117E+02 0.117E+02   -.467E-01 0.576E-02 -.576E-02
   -.191E+03 -.220E+03 0.220E+03   0.203E+03 0.235E+03 -.235E+03   -.122E+02 -.155E+02 0.155E+02   0.208E-01 0.411E-02 -.411E-02
   -.197E+03 -.219E+03 0.219E+03   0.212E+03 0.235E+03 -.235E+03   -.146E+02 -.164E+02 0.164E+02   0.478E-01 -.119E-01 0.119E-01
   -.181E+03 -.174E+03 -.180E+03   0.191E+03 0.185E+03 0.190E+03   -.103E+02 -.108E+02 -.106E+02   0.204E-01 0.306E-02 -.145E-01
   -.197E+03 -.207E+03 -.219E+03   0.212E+03 0.223E+03 0.235E+03   -.148E+02 -.159E+02 -.163E+02   0.245E-02 -.340E-01 -.622E-02
   -.173E+03 -.185E+03 -.168E+03   0.182E+03 0.196E+03 0.179E+03   -.903E+01 -.115E+02 -.102E+02   -.542E-02 0.205E-01 -.201E-01
   -.212E+03 -.193E+03 -.224E+03   0.227E+03 0.209E+03 0.240E+03   -.149E+02 -.156E+02 -.167E+02   -.972E-02 0.434E-01 -.977E-02
   -.181E+03 0.180E+03 0.174E+03   0.191E+03 -.190E+03 -.185E+03   -.103E+02 0.106E+02 0.108E+02   0.204E-01 0.145E-01 -.306E-02
   -.197E+03 0.219E+03 0.207E+03   0.212E+03 -.235E+03 -.223E+03   -.148E+02 0.163E+02 0.159E+02   0.245E-02 0.622E-02 0.340E-01
   -.173E+03 0.168E+03 0.185E+03   0.182E+03 -.179E+03 -.196E+03   -.903E+01 0.102E+02 0.115E+02   -.542E-02 0.201E-01 -.205E-01
   -.212E+03 0.224E+03 0.193E+03   0.227E+03 -.240E+03 -.209E+03   -.149E+02 0.167E+02 0.156E+02   -.972E-02 0.977E-02 -.434E-01
   0.160E+03 -.191E+03 0.191E+03   -.169E+03 0.201E+03 -.201E+03   0.876E+01 -.100E+02 0.100E+02   0.206E-01 0.328E-02 -.328E-02
   0.209E+03 -.215E+03 0.215E+03   -.225E+03 0.231E+03 -.231E+03   0.159E+02 -.154E+02 0.154E+02   0.335E-01 -.132E-01 0.132E-01
   0.168E+03 -.193E+03 0.193E+03   -.177E+03 0.203E+03 -.203E+03   0.824E+01 -.103E+02 0.103E+02   0.184E-01 0.120E-01 -.120E-01
   0.217E+03 -.211E+03 0.211E+03   -.232E+03 0.226E+03 -.226E+03   0.152E+02 -.151E+02 0.151E+02   -.164E-01 0.829E-02 -.829E-02
   0.186E+03 0.226E+03 -.226E+03   -.200E+03 -.242E+03 0.242E+03   0.136E+02 0.157E+02 -.157E+02   0.156E-02 -.444E-02 0.444E-02
   0.157E+03 0.187E+03 -.187E+03   -.165E+03 -.198E+03 0.198E+03   0.821E+01 0.110E+02 -.110E+02   0.374E-01 -.583E-02 0.583E-02
   0.203E+03 0.217E+03 -.217E+03   -.216E+03 -.232E+03 0.232E+03   0.131E+02 0.156E+02 -.156E+02   -.249E-01 -.299E-03 0.299E-03
   0.157E+03 0.188E+03 -.188E+03   -.165E+03 -.199E+03 0.199E+03   0.808E+01 0.117E+02 -.117E+02   -.518E-01 0.551E-02 -.551E-02
 -----------------------------------------------------------------------------------------------
   -.376E+00 0.828E-02 -.789E-02   0.256E-12 -.284E-13 0.256E-12   0.371E+00 0.545E-02 -.545E-02   0.812E-02 -.102E-01 0.102E-01
 
 
 POSITION                                       TOTAL-FORCE (eV/Angst)
 -----------------------------------------------------------------------------------
      2.97901      2.98126      2.95026         0.003686      0.001745     -0.001745
      7.01443     -0.94611      2.92328        -0.001452      0.006154     -0.006154
      9.05842      0.95405     -2.93122         0.000807      0.000281     -0.000281
      4.02397      7.84207     -3.89442        -0.005645      0.000929     -0.005821
      4.02009      3.94176      0.00602         0.002717      0.001962      0.003502
      8.01381      3.91638     -3.91481        -0.007935     -0.001756     -0.005543
      8.04573      0.00188     -0.00264         0.007590      0.001020      0.001550
      4.02397      5.87159     -5.86490        -0.005645      0.005821     -0.000929
      4.02009      1.97116     -1.96459         0.002717     -0.003502     -0.001962
      8.01381      5.89198     -1.93921        -0.007935      0.005543      0.001756
      8.04573      1.97981      1.97529         0.007590     -0.001550     -0.001020
      6.01548      3.89614     -5.87331        -0.002566     -0.000726      0.000726
      6.02823     -0.00637     -1.97080         0.003924      0.000676     -0.000676
     10.03456      3.92983     -1.95266        -0.001294     -0.003302      0.003302
      2.03747      3.93037     -1.95319         0.004222      0.000150     -0.000150
      2.02387      1.97842     -0.00125        -0.003294     -0.000036      0.000036
      6.00468      1.94621     -3.92338        -0.003268     -0.000248      0.000248
      6.04015      1.99837      3.93315        -0.001839     -0.002081      0.002081
     10.04134      1.96038      0.01679         0.001607      0.003617     -0.003617
      6.16699      2.07638      2.08875         0.004892     -0.003857     -0.001281
     10.16896      2.07119     -1.85859        -0.000367      0.000472     -0.000525
      2.14570      2.06895     -1.85034        -0.001265     -0.004255     -0.001097
      6.13626      6.00525     -1.83562        -0.008164     -0.000971     -0.000460
      6.16699     -0.11158     -0.09920         0.004892      0.001281      0.003857
     10.16896      3.83576     -0.09402        -0.000367      0.000525     -0.000472
      2.14570      3.82752     -0.09178        -0.001265      0.001097      0.004255
      6.13626      3.81279     -4.02808        -0.008164      0.000460      0.000971
      3.89440      2.09665     -0.11948        -0.002886     -0.003299      0.003299
      7.89164      2.05948     -4.03665        -0.004650     -0.003392      0.003392
      7.92178      2.11100      3.82052         0.006128     -0.003111      0.003111
      3.89296      5.99798     -4.02081         0.005085     -0.000062      0.000062
      3.92038     -0.13060      2.10778        -0.019461      0.000159     -0.000159
      7.98136     -0.14223     -1.83494         0.004161     -0.000243      0.000243
      7.97501     -0.11343      6.04495        -0.016033      0.004407     -0.004407
      3.95628      3.80109     -1.82392         0.003593     -0.000870      0.000870
      1.88393      1.86804      1.87170         0.003591      0.006308     -0.003054
      5.89223      1.85273     -2.06879        -0.001123     -0.003379      0.003102
      5.89460     -2.06738      1.85767        -0.000620      0.006334     -0.001386
      9.92502      1.88168      1.86002         0.004723      0.000509      0.003432
      1.88393      0.10548      0.10913         0.003591      0.003054     -0.006308
      5.89223      4.04596      0.12444        -0.001123     -0.003102      0.003379
      5.89460      0.11950      4.04455        -0.000620      0.001386     -0.006334
      9.92502      0.11715      0.09549         0.004723     -0.003432     -0.000509
      8.15358     -2.06505      4.04223         0.000656      0.001809     -0.001809
      4.15019      1.83576     -3.81293        -0.002475      0.000062     -0.000062
      4.13160      1.87243      4.05908        -0.002142     -0.000999      0.000999
      8.17013      1.84786      0.12931         0.000801      0.001213     -0.001213
      4.09311      4.03664     -6.01381         0.009940     -0.002021      0.002021
      4.07821      4.08595      1.84556         0.003430     -0.001762      0.001762
      8.08622      4.06359     -2.08642         0.011896     -0.007081      0.007081
      8.12103      0.14573      1.83145         0.004638     -0.001935      0.001935
 -----------------------------------------------------------------------------------
    total drift:                                0.002517      0.003503     -0.003103


--------------------------------------------------------------------------------------------------------



  FREE ENERGIE OF THE ION-ELECTRON SYSTEM (eV)
  ---------------------------------------------------
  free  energy   TOTEN  =      -317.8507438598 eV

  energy  without entropy=     -317.8401745284  energy(sigma->0) =     -317.84545919
 
 d Force = 0.1077656E-03[ 0.838E-04, 0.132E-03]  d Energy = 0.1068747E-03 0.891E-06
 d Force =-0.2049494E+00[-0.205E+00,-0.204E+00]  d Ewald  = 0.1394473E+01-0.160E+01


--------------------------------------------------------------------------------------------------------


    POTLOK:  cpu time    0.1244: real time    0.1247


--------------------------------------------------------------------------------------------------------


 Quasi-Newton relaxation of ions (Broydens 2nd method)
  g(Force)  = 0.125E-03   g(Stress)= 0.110E-03

 retain information from N=  1 steps
 eigenvalues of (default step * inverse Hessian matrix)
  average eigenvalue of G=   0.2391
 eigenvalue spectrum of G is  0.2391


--------------------------------------------------------------------------------------------------------


  
 reached required accuracy - stopping structural energy minimisation
     LOOP+:  cpu time   11.8531: real time   11.9353
    4ORBIT:  cpu time    0.0000: real time    0.0000

volume of typ            1:     4.7 %

volume of typ            2:    20.5 %

volume of typ            3:    10.5 %
 
total charge     
 
# of ion       s       p       d       tot
------------------------------------------
    1        2.112   0.336   0.129   2.577
    2        2.111   0.333   0.127   2.571
    3        2.113   0.337   0.130   2.580
    4        0.299   0.422   7.826   8.548
    5        0.303   0.427   7.823   8.553
    6        0.297   0.418   7.828   8.544
    7        0.302   0.426   7.823   8.551
    8        0.299   0.422   7.826   8.548
    9        0.303   0.427   7.823   8.553
   10        0.297   0.418   7.828   8.544
   11        0.302   0.426   7.823   8.551
   12        0.289   0.394   7.834   8.518
   13        0.281   0.376   7.840   8.497
   14        0.284   0.383   7.841   8.508
   15        0.285   0.385   7.840   8.510
   16        0.294   0.403   7.827   8.524
   17        0.298   0.412   7.824   8.534
   18        0.292   0.399   7.829   8.520
   19        0.297   0.410   7.827   8.534
   20        1.282   2.728   0.008   4.018
   21        1.263   2.785   0.007   4.055
   22        1.282   2.729   0.008   4.019
   23        1.284   2.724   0.008   4.016
   24        1.282   2.728   0.008   4.018
   25        1.263   2.785   0.007   4.055
   26        1.282   2.729   0.008   4.019
   27        1.284   2.724   0.008   4.016
   28        1.284   2.726   0.008   4.018
   29        1.267   2.775   0.007   4.050
   30        1.284   2.725   0.008   4.017
   31        1.285   2.721   0.008   4.015
   32        1.283   2.732   0.008   4.022
   33        1.265   2.782   0.007   4.055
   34        1.283   2.730   0.008   4.021
   35        1.285   2.720   0.008   4.014
   36        1.264   2.783   0.007   4.054
   37        1.283   2.727   0.008   4.018
   38        1.263   2.784   0.007   4.054
   39        1.283   2.725   0.008   4.017
   40        1.264   2.783   0.007   4.054
   41        1.283   2.727   0.008   4.018
   42        1.263   2.784   0.007   4.054
   43        1.283   2.725   0.008   4.017
   44        1.268   2.774   0.007   4.049
   45        1.285   2.722   0.008   4.015
   46        1.269   2.770   0.007   4.046
   47        1.283   2.727   0.008   4.019
   48        1.284   2.725   0.008   4.018
   49        1.267   2.779   0.007   4.053
   50        1.283   2.728   0.008   4.019
   51        1.266   2.781   0.007   4.054
--------------------------------------------------
tot          51.91   95.45  125.89  273.25
 
magnetization (x)
 
# of ion       s       p       d       tot
------------------------------------------
    1        0.002   0.003   0.001   0.006
    2        0.003   0.003   0.000   0.006
    3        0.003   0.002   0.001   0.005
    4       -0.000   0.000   0.075   0.075
    5       -0.000   0.000   0.006   0.006
    6       -0.000   0.000   0.093   0.093
    7       -0.000   0.000   0.011   0.010
    8       -0.000   0.000   0.075   0.075
    9       -0.000   0.000   0.006   0.006
   10       -0.000   0.000   0.093   0.093
   11       -0.000   0.000   0.011   0.010
   12        0.000   0.000   0.253   0.253
   13        0.001  -0.000   0.432   0.432
   14        0.000  -0.000   0.357   0.357
   15        0.000   0.000   0.313   0.314
   16       -0.000  -0.000   0.108   0.107
   17       -0.000  -0.000   0.038   0.037
   18       -0.000  -0.000   0.139   0.138
   19       -0.000  -0.000   0.056   0.056
   20        0.002   0.011   0.000   0.013
   21        0.003   0.013   0.000   0.016
   22        0.002   0.007   0.000   0.009
   23        0.002   0.011   0.000   0.013
   24        0.002   0.011   0.000   0.013
   25        0.003   0.013   0.000   0.016
   26        0.002   0.007   0.000   0.009
   27        0.002   0.011   0.000   0.013
   28        0.001   0.019   0.000   0.021
   29        0.003   0.017   0.000   0.021
   30        0.002   0.025   0.000   0.026
   31        0.002   0.026   0.000   0.028
   32        0.003   0.024   0.000   0.027
   33        0.004   0.041   0.000   0.046
   34        0.004   0.044   0.000   0.048
   35        0.003   0.032   0.000   0.035
   36        0.002   0.009   0.000   0.012
   37        0.002   0.006   0.000   0.008
   38        0.003   0.014   0.000   0.017
   39        0.002   0.004   0.000   0.005
   40        0.002   0.009   0.000   0.012
   41        0.002   0.006   0.000   0.008
   42        0.003   0.014   0.000   0.017
   43        0.002   0.004   0.000   0.005
   44        0.004   0.020   0.000   0.023
   45        0.000   0.003   0.000   0.003
   46        0.005   0.029   0.000   0.035
   47        0.000   0.004   0.000   0.004
   48        0.003   0.017   0.000   0.020
   49        0.005   0.044   0.000   0.049
   50        0.003   0.040   0.000   0.043
   51        0.003   0.026   0.000   0.030
--------------------------------------------------
tot           0.08    0.57    2.07    2.73
 

 total amount of memory used by VASP MPI-rank0    86090. kBytes
=======================================================================

   base      :      30000. kBytes
   nonlr-proj:      19463. kBytes
   fftplans  :       4859. kBytes
   grid      :      27800. kBytes
   one-center:        793. kBytes
   wavefun   :       3175. kBytes
 
  
  
 General timing and accounting informations for this job:
 ========================================================
  
                  Total CPU time used (sec):      136.327
                            User time (sec):      134.581
                          System time (sec):        1.746
                         Elapsed time (sec):      148.378
  
                   Maximum memory used (kb):      129676.
                   Average memory used (kb):           0.
  
                          Minor page faults:        32387
                          Major page faults:           65
                 Voluntary context switches:         1399
