 vasp.5.4.4.18Apr17-6-g9f103f2a35 (build May 12 2020 05:39:39) gamma-only       
  
 MD_VERSION_INFO: Compiled 2020-05-12T12:39:39-UTC in devlin.sd.materialsdesign.
 com:/home/medea2/data/build/wwolf/vasp-gpu5.4.4/13047/x86_64/src/src/build/gam 
 from svn 13047
 
 This VASP executable licensed from Materials Design, Inc.
 
 executed on                        Lin64 date 2023.02.09  12:50:07
 running on   16 total cores
 distrk:  each k-point on   16 cores,    1 groups
 distr:  one band on NCORES_PER_BAND=   1 cores,   16 groups


--------------------------------------------------------------------------------------------------------


 INCAR:
 POTCAR:    PAW_PBE Li_sv 10Sep2004               
 POTCAR:    PAW_PBE Ni 02Aug2007                  
 POTCAR:    PAW_PBE O 08Apr2002                   

 ----------------------------------------------------------------------------- 
|                                                                             |
|           W    W    AA    RRRRR   N    N  II  N    N   GGGG   !!!           |
|           W    W   A  A   R    R  NN   N  II  NN   N  G    G  !!!           |
|           W    W  A    A  R    R  N N  N  II  N N  N  G       !!!           |
|           W WW W  AAAAAA  RRRRR   N  N N  II  N  N N  G  GGG   !            |
|           WW  WW  A    A  R   R   N   NN  II  N   NN  G    G                |
|           W    W  A    A  R    R  N    N  II  N    N   GGGG   !!!           |
|                                                                             |
|      For optimal performance we recommend to set                            |
|        NCORE= 4 - approx SQRT( number of cores)                             |
|      NCORE specifies how many cores store one orbital (NPAR=cpu/NCORE).     |
|      This setting can  greatly improve the performance of VASP for DFT.     |
|      The default,   NCORE=1            might be grossly inefficient         |
|      on modern multi-core architectures or massively parallel machines.     |
|      Do your own testing !!!!                                               |
|      Unfortunately you need to use the default for GW and RPA calculations. |
|      (for HF NCORE is supported but not extensively tested yet)             |
|                                                                             |
 ----------------------------------------------------------------------------- 

 POTCAR:    PAW_PBE Li_sv 10Sep2004               
  local pseudopotential read in
  atomic valenz-charges read in
  non local Contribution for L=           0  read in
    real space projection operators read in
  non local Contribution for L=           0  read in
    real space projection operators read in
  non local Contribution for L=           1  read in
    real space projection operators read in
    PAW grid and wavefunctions read in
 
   number of l-projection  operators is LMAX  =           3
   number of lm-projection operators is LMMAX =           5
 
 POTCAR:    PAW_PBE Ni 02Aug2007                  
  local pseudopotential read in
  partial core-charges read in
  partial kinetic energy density read in
  atomic valenz-charges read in
  non local Contribution for L=           2  read in
    real space projection operators read in
  non local Contribution for L=           2  read in
    real space projection operators read in
  non local Contribution for L=           0  read in
    real space projection operators read in
  non local Contribution for L=           0  read in
    real space projection operators read in
  non local Contribution for L=           1  read in
    real space projection operators read in
  non local Contribution for L=           1  read in
    real space projection operators read in
    PAW grid and wavefunctions read in
 
   number of l-projection  operators is LMAX  =           6
   number of lm-projection operators is LMMAX =          18
 
 POTCAR:    PAW_PBE O 08Apr2002                   
  local pseudopotential read in
  partial core-charges read in
  partial kinetic energy density read in
  kinetic energy density of atom read in
  atomic valenz-charges read in
  non local Contribution for L=           0  read in
    real space projection operators read in
  non local Contribution for L=           0  read in
    real space projection operators read in
  non local Contribution for L=           1  read in
    real space projection operators read in
  non local Contribution for L=           1  read in
    real space projection operators read in
    PAW grid and wavefunctions read in
 
   number of l-projection  operators is LMAX  =           4
   number of lm-projection operators is LMMAX =           8
 
 Optimization of the real space projectors (new method)

 maximal supplied QI-value         = 22.11
 optimisation between [QCUT,QGAM] = [ 11.28, 22.77] = [ 35.61,145.23] Ry 
 Optimized for a Real-space Cutoff    1.10 Angstroem

   l    n(q)    QCUT    max X(q) W(low)/X(q) W(high)/X(q)  e(spline) 
   0      7    11.276    10.506    0.54E-04    0.58E-04    0.16E-07
   0      7    11.276     8.367    0.11E-03    0.14E-03    0.35E-07
   1      7    11.276     8.983    0.23E-03    0.43E-03    0.86E-07
 Optimization of the real space projectors (new method)

 maximal supplied QI-value         = 16.25
 optimisation between [QCUT,QGAM] = [ 11.38, 22.75] = [ 36.24,144.96] Ry 
 Optimized for a Real-space Cutoff    1.47 Angstroem

   l    n(q)    QCUT    max X(q) W(low)/X(q) W(high)/X(q)  e(spline) 
   2      9    11.376    60.317    0.17E-03    0.16E-04    0.16E-06
   2      9    11.376    55.921    0.17E-03    0.16E-04    0.17E-06
   0     10    11.376    51.690    0.45E-04    0.60E-04    0.21E-06
   0     10    11.376    30.015    0.37E-04    0.55E-04    0.19E-06
   1     10    11.376    18.849    0.83E-04    0.11E-03    0.92E-07
   1     10    11.376    14.624    0.69E-04    0.92E-04    0.82E-07
 Optimization of the real space projectors (new method)

 maximal supplied QI-value         = 24.76
 optimisation between [QCUT,QGAM] = [ 11.39, 22.77] = [ 36.31,145.25] Ry 
 Optimized for a Real-space Cutoff    1.10 Angstroem

   l    n(q)    QCUT    max X(q) W(low)/X(q) W(high)/X(q)  e(spline) 
   0      7    11.387    20.381    0.22E-03    0.48E-03    0.18E-06
   0      7    11.387    15.268    0.22E-03    0.52E-03    0.19E-06
   1      7    11.387     5.964    0.22E-03    0.73E-03    0.24E-06
   1      7    11.387     5.382    0.19E-03    0.60E-03    0.21E-06

 ----------------------------------------------------------------------------- 
|                                                                             |
|  ADVICE TO THIS USER RUNNING 'VASP/VAMP'   (HEAR YOUR MASTER'S VOICE ...):  |
|                                                                             |
|      You enforced a specific xc-type in the INCAR file,                     |
|      a different type was found on the POTCAR file                          |
|          I HOPE YOU KNOW, WHAT YOU ARE  DOING                               |
|                                                                             |
 ----------------------------------------------------------------------------- 

  PAW_PBE Li_sv 10Sep2004               :
 energy of atom  1       EATOM= -202.7858
 kinetic energy error for atom=    0.0143 (will be added to EATOM!!)
  PAW_PBE Ni 02Aug2007                  :
 energy of atom  2       EATOM=-1077.6739
 kinetic energy error for atom=    0.0030 (will be added to EATOM!!)
  PAW_PBE O 08Apr2002                   :
 energy of atom  3       EATOM= -432.3788
 kinetic energy error for atom=    0.0224 (will be added to EATOM!!)
 
 
 POSCAR: ce155_1                                 
  positions in direct lattice
  No initial velocities read in
 exchange correlation table for  LEXCH =       14
   RHO(1)=    0.500       N(1)  =     2000
   RHO(2)=  100.500       N(2)  =     4000
 


--------------------------------------------------------------------------------------------------------


 ion  position               nearest neighbor table
   1  0.750  0.181  0.000-  37 1.90  41 1.90  46 1.95  50 1.95
   2  0.250  0.439  0.500-  47 1.93  51 1.93  38 1.93  42 1.93
   3  0.250  0.311  0.000-  29 1.93  33 1.93  21 1.93  25 1.93
   4  0.750  0.569  0.500-  22 1.90  26 1.90  30 1.95  34 1.95
   5  0.000  0.997  0.000-  32 1.85  36 1.85  49 1.85  45 1.85  27 1.88  41 1.91  16 2.78  20 2.78
                            17 2.80  13 2.80   9 2.81   9 2.81
   6  0.500  0.247  0.500-  46 1.85  50 1.85  29 1.86  33 1.86  28 1.93  42 1.96  10 2.81  13 2.81
                            17 2.81  10 2.81  18 2.84  14 2.84
   7  1.000  0.503  0.000-  30 1.85  34 1.85  47 1.86  51 1.86  43 1.93  25 1.96  11 2.81  15 2.81
                            19 2.81  11 2.81  18 2.84  14 2.84
   8  0.500  0.753  0.500-  52 1.85  48 1.85  35 1.85  31 1.85  44 1.88  26 1.91  16 2.78  20 2.78
                            19 2.80  15 2.80  12 2.81  12 2.81
   9  0.500  0.997  0.000-  32 1.85  36 1.85  45 1.85  49 1.85  23 1.88  37 1.91  16 2.78  20 2.78
                            17 2.80  13 2.80   5 2.81   5 2.81
  10  1.000  0.247  0.500-  46 1.85  50 1.85  29 1.86  33 1.86  24 1.93  38 1.96   6 2.81  13 2.81
                            17 2.81   6 2.81  14 2.84  18 2.84
  11  0.500  0.503  0.000-  30 1.85  34 1.85  47 1.86  51 1.86  39 1.93  21 1.96   7 2.81  15 2.81
                            19 2.81   7 2.81  14 2.84  18 2.84
  12  0.000  0.753  0.500-  52 1.85  48 1.85  31 1.85  35 1.85  40 1.88  22 1.91  16 2.78  20 2.78
                            19 2.80  15 2.80   8 2.81   8 2.81
  13  0.250  0.121  0.748-  24 1.84  28 1.84  41 1.86  37 1.86  49 1.90  33 1.94  17 2.78   9 2.80
                             5 2.80  10 2.81   6 2.81  17 2.83
  14  0.750  0.375  0.250-  21 1.85  25 1.85  38 1.85  42 1.85  34 1.96  50 1.96  18 2.80  18 2.80
                             6 2.84   7 2.84  10 2.84  11 2.84
  15  0.250  0.629  0.752-  39 1.84  43 1.84  26 1.86  22 1.86  35 1.90  51 1.94  19 2.78  12 2.80
                             8 2.80   7 2.81  11 2.81  19 2.83
  16  0.750  0.875  0.250-  27 1.85  44 1.85  40 1.85  23 1.85  36 1.89  52 1.89   9 2.78  12 2.78
                             5 2.78   8 2.78  20 2.80  20 2.80
  17  0.250  0.121  0.252-  28 1.84  24 1.84  37 1.86  41 1.86  45 1.90  29 1.94  13 2.78   9 2.80
                             5 2.80  10 2.81   6 2.81  13 2.83
  18  0.750  0.375  0.750-  21 1.85  25 1.85  38 1.85  42 1.85  30 1.96  46 1.96  14 2.80  14 2.80
                             6 2.84   7 2.84  10 2.84  11 2.84
  19  0.250  0.629  0.248-  43 1.84  39 1.84  22 1.86  26 1.86  31 1.90  47 1.94  15 2.78  12 2.80
                             8 2.80   7 2.81  11 2.81  15 2.83
  20  0.750  0.875  0.750-  23 1.85  40 1.85  27 1.85  44 1.85  32 1.89  48 1.89   9 2.78  12 2.78
                             5 2.78   8 2.78  16 2.80  16 2.80
  21  0.535  0.380  0.000-  14 1.85  18 1.85   3 1.93  11 1.96
  22  0.036  0.633  0.500-  19 1.86  15 1.86   4 1.90  12 1.91
  23  0.536  0.880  0.000-  20 1.85  16 1.85   9 1.88
  24  0.036  0.126  0.500-  13 1.84  17 1.84  10 1.93
  25  0.965  0.380  0.000-  14 1.85  18 1.85   3 1.93   7 1.96
  26  0.464  0.633  0.500-  15 1.86  19 1.86   4 1.90   8 1.91
  27  0.964  0.880  0.000-  16 1.85  20 1.85   5 1.88
  28  0.464  0.126  0.500-  17 1.84  13 1.84   6 1.93
  29  0.250  0.243  0.285-   6 1.86  10 1.86   3 1.93  17 1.94
  30  0.750  0.498  0.785-   7 1.85  11 1.85   4 1.95  18 1.96
  31  0.250  0.748  0.286-  12 1.85   8 1.85  19 1.90
  32  0.750  0.994  0.787-   5 1.85   9 1.85  20 1.89
  33  0.250  0.243  0.715-   6 1.86  10 1.86   3 1.93  13 1.94
  34  0.750  0.498  0.215-   7 1.85  11 1.85   4 1.95  14 1.96
  35  0.250  0.748  0.714-   8 1.85  12 1.85  15 1.90
  36  0.750  0.994  0.213-   5 1.85   9 1.85  16 1.89
  37  0.464  0.117  0.000-  17 1.86  13 1.86   1 1.90   9 1.91
  38  0.965  0.370  0.500-  14 1.85  18 1.85   2 1.93  10 1.96
  39  0.464  0.624  0.000-  15 1.84  19 1.84  11 1.93
  40  0.964  0.870  0.500-  20 1.85  16 1.85  12 1.88
  41  0.036  0.117  0.000-  13 1.86  17 1.86   1 1.90   5 1.91
  42  0.535  0.370  0.500-  14 1.85  18 1.85   2 1.93   6 1.96
  43  0.036  0.624  0.000-  19 1.84  15 1.84   7 1.93
  44  0.536  0.870  0.500-  16 1.85  20 1.85   8 1.88
  45  0.250  0.002  0.214-   9 1.85   5 1.85  17 1.90
  46  0.750  0.252  0.715-   6 1.85  10 1.85   1 1.95  18 1.96
  47  0.250  0.507  0.215-   7 1.86  11 1.86   2 1.93  19 1.94
  48  0.750  0.756  0.713-   8 1.85  12 1.85  20 1.89
  49  0.250  0.002  0.786-   5 1.85   9 1.85  13 1.90
  50  0.750  0.252  0.285-   6 1.85  10 1.85   1 1.95  14 1.96
  51  0.250  0.507  0.785-   7 1.86  11 1.86   2 1.93  15 1.94
  52  0.750  0.756  0.287-   8 1.85  12 1.85  16 1.89
 
  LATTYP: Found a simple orthorhombic cell.
 ALAT       =     5.6093105462
 B/A-ratio  =     1.0019244171
 C/A-ratio  =     2.8298518824
  
  Lattice vectors:
  
 A1 = (   0.0000000000,   3.9663815250,  -3.9663815250)
 A2 = (   0.0000000000,  -3.9740144973,  -3.9740144973)
 A3 = ( -15.8735180080,   0.0000000000,   0.0000000000)


Analysis of symmetry for initial positions (statically):
=====================================================================
 Subroutine PRICEL returns:
 Original cell was already a primitive cell.
 

 Routine SETGRP: Setting up the symmetry group for a 
 simple orthorhombic supercell.


 Subroutine GETGRP returns: Found  8 space group operations
 (whereof  2 operations were pure point group operations)
 out of a pool of  8 trial point group operations.


The static configuration has the point symmetry C_1h.
 The point group associated with its full space group is D_2h.


Analysis of symmetry for dynamics (positions and initial velocities):
=====================================================================
 Subroutine PRICEL returns:
 Original cell was already a primitive cell.
 

 Routine SETGRP: Setting up the symmetry group for a 
 simple orthorhombic supercell.


 Subroutine GETGRP returns: Found  8 space group operations
 (whereof  2 operations were pure point group operations)
 out of a pool of  8 trial point group operations.


The dynamic configuration has the point symmetry C_1h.
 The point group associated with its full space group is D_2h.


Analysis of structural, dynamic, and magnetic symmetry:
=====================================================================
 Subroutine PRICEL returns:
 Original cell was already a primitive cell.
 

 Routine SETGRP: Setting up the symmetry group for a 
 simple orthorhombic supercell.


 Subroutine GETGRP returns: Found  8 space group operations
 (whereof  2 operations were pure point group operations)
 out of a pool of  8 trial point group operations.


The magnetic configuration has the point symmetry C_1h.
 The point group associated with its full space group is D_2h.


 Subroutine INISYM returns: Found  8 space group operations
 (whereof  2 operations are pure point group operations),
 and found     1 'primitive' translations

 
 
 KPOINTS: Automatic mesh                          

Automatic generation of k-mesh.
Space group operators:
 irot       det(A)        alpha          n_x          n_y          n_z        tau_x        tau_y        tau_z
    1     1.000000     0.000000     1.000000     0.000000     0.000000     0.000000     0.000000     0.000000
    2    -1.000000   180.000000     0.000000    -0.707107     0.707107     0.000000     0.000000     0.000000
    3    -1.000000     0.000000     1.000000     0.000000     0.000000    -0.500000    -0.250000     0.500000
    4     1.000000   179.999999     1.000000     0.000000     0.000000    -0.500000     0.000000     0.000000
    5    -1.000000   179.999999     1.000000     0.000000     0.000000     0.000000    -0.250000     0.500000
    6     1.000000   180.000000     0.000000     0.707107     0.707107     0.000000    -0.250000     0.500000
    7    -1.000000   180.000000     0.000000     0.707107     0.707107    -0.500000     0.000000     0.000000
    8     1.000000   180.000000     0.000000    -0.707107     0.707107    -0.500000    -0.250000     0.500000
 
 Subroutine IBZKPT returns following result:
 ===========================================
 
 Found      1 irreducible k-points:
 
 Following reciprocal coordinates:
            Coordinates               Weight
  0.000000  0.000000  0.000000      1.000000
 
 Following cartesian coordinates:
            Coordinates               Weight
  0.000000  0.000000  0.000000      1.000000
 


--------------------------------------------------------------------------------------------------------




 Dimension of arrays:
   k-points           NKPTS =      1   k-points in BZ     NKDIM =      1   number of bands    NBANDS=    240
   number of dos      NEDOS =    301   number of ions     NIONS =     52
   non local maximal  LDIM  =      6   non local SUM 2l+1 LMDIM =     18
   total plane-waves  NPLWV = 211680
   max r-space proj   IRMAX =   5729   max aug-charges    IRDMAX=  13910
   dimension x,y,z NGX =    42 NGY =  120 NGZ =   42
   dimension x,y,z NGXF=    84 NGYF=  240 NGZF=   84
   support grid    NGXF=    84 NGYF=  240 NGZF=   84
   ions per type =               4  16  32
   NGX,Y,Z   is equivalent  to a cutoff of  12.42, 12.57, 12.45 a.u.
   NGXF,Y,Z  is equivalent  to a cutoff of  24.85, 25.14, 24.90 a.u.

 SYSTEM =  unknown system                          
 POSCAR =  ce155_1                                 

 Startparameter for this run:
   NWRITE =      1    write-flag & timer
   PREC   = accura    normal or accurate (medium, high low for compatibility)
   ISTART =      0    job   : 0-new  1-cont  2-samecut
   ICHARG =      2    charge: 1-file 2-atom 10-const
   ISPIN  =      2    spin polarized calculation?
   LNONCOLLINEAR =      F non collinear calculations
   LSORBIT =      F    spin-orbit coupling
   INIWAV =      1    electr: 0-lowe 1-rand  2-diag
   LASPH  =      F    aspherical Exc in radial PAW
   METAGGA=      F    non-selfconsistent MetaGGA calc.

 Electronic Relaxation 1
   ENCUT  =  500.0 eV  36.75 Ry    6.06 a.u.  10.25 28.94 10.23*2*pi/ulx,y,z
   ENINI  =  500.0     initial cutoff
   ENAUG  =  628.9 eV  augmentation charge cutoff
   NELM   =     80;   NELMIN=  2; NELMDL= -5     # of ELM steps 
   EDIFF  = 0.1E-04   stopping-criterion for ELM
   LREAL  =      T    real-space projection
   NLSPLINE    = F    spline interpolate recip. space projectors
   LCOMPAT=      F    compatible to vasp.4.4
   GGA_COMPAT  = T    GGA compatible to vasp.4.4-vasp.4.6
   LMAXPAW     = -100 max onsite density
   LMAXMIX     =    2 max onsite mixed and CHGCAR
   VOSKOWN=      1    Vosko Wilk Nusair interpolation
   ROPT   =   -0.00025  -0.00025  -0.00025
 Ionic relaxation
   EDIFFG = -.2E-01   stopping-criterion for IOM
   NSW    =     20    number of steps for IOM
   NBLOCK =      1;   KBLOCK =     20    inner block; outer block 
   IBRION =      1    ionic relax: 0-MD 1-quasi-New 2-CG
   NFREE  =      0    steps in history (QN), initial steepest desc. (CG)
   ISIF   =      3    stress and relaxation
   IWAVPR =     11    prediction:  0-non 1-charg 2-wave 3-comb
   ISYM   =      2    0-nonsym 1-usesym 2-fastsym
   LCORR  =      T    Harris-Foulkes like correction to forces

   POTIM  = 0.5000    time-step for ionic-motion
   TEIN   =    0.0    initial temperature
   TEBEG  =    0.0;   TEEND  =   0.0 temperature during run
   SMASS  =  -3.00    Nose mass-parameter (am)
   estimated Nose-frequenzy (Omega)   =  0.10E-29 period in steps =****** mass=  -0.722E-27a.u.
   SCALEE = 1.0000    scale energy and forces
   NPACO  =    256;   APACO  = 16.0  distance and # of slots for P.C.
   PSTRESS=    0.0 pullay stress

  Mass of Ions in am
   POMASS =   7.01 58.69 16.00
  Ionic Valenz
   ZVAL   =   3.00 10.00  6.00
  Atomic Wigner-Seitz radii
   RWIGS  =   1.23  1.15  0.73
  virtual crystal weights 
   VCA    =   1.00  1.00  1.00
   NELECT =     364.0000    total number of electrons
   NUPDOWN=      -1.0000    fix difference up-down

 DOS related values:
   EMIN   =  10.00;   EMAX   =-10.00  energy-range for DOS
   EFERMI =   0.00
   ISMEAR =     0;   SIGMA  =   0.05  broadening in eV -4-tet -1-fermi 0-gaus

 Electronic relaxation 2 (details)
   IALGO  =     38    algorithm
   LDIAG  =      T    sub-space diagonalisation (order eigenvalues)
   LSUBROT=      F    optimize rotation matrix (better conditioning)
   TURBO    =      0    0=normal 1=particle mesh
   IRESTART =      0    0=no restart 2=restart with 2 vectors
   NREBOOT  =      0    no. of reboots
   NMIN     =      0    reboot dimension
   EREF     =   0.00    reference energy to select bands
   IMIX   =      4    mixing-type and parameters
     AMIX     =   0.40;   BMIX     =  1.00
     AMIX_MAG =   1.60;   BMIX_MAG =  1.00
     AMIN     =   0.10
     WC   =   100.;   INIMIX=   1;  MIXPRE=   1;  MAXMIX= -45

 Intra band minimization:
   WEIMIN = 0.0010     energy-eigenvalue tresh-hold
   EBREAK =  0.10E-07  absolut break condition
   DEPER  =   0.30     relativ break condition  

   TIME   =   0.40     timestep for ELM

  volume/ion in A,a.u.               =       9.62        64.94
  Fermi-wavevector in a.u.,A,eV,Ry     =   1.472311  2.782265 29.493349  2.167700
  Thomas-Fermi vector in A             =   2.587341
 
 Write flags
   LWAVE        =      F    write WAVECAR
   LDOWNSAMPLE  =      F    k-point downsampling of WAVECAR
   LCHARG       =      T    write CHGCAR
   LVTOT        =      F    write LOCPOT, total local potential
   LVHAR        =      F    write LOCPOT, Hartree potential only
   LELF         =      F    write electronic localiz. function (ELF)
   LORBIT       =      0    0 simple, 1 ext, 2 COOP (PROOUT), +10 PAW based schemes


 Dipole corrections
   LMONO  =      F    monopole corrections only (constant potential shift)
   LDIPOL =      F    correct potential (dipole corrections)
   IDIPOL =      0    1-x, 2-y, 3-z, 4-all directions 
   EPSILON=  1.0000000 bulk dielectric constant

 Exchange correlation treatment:
   GGA     =    PS    GGA type
   LEXCH   =    14    internal setting for exchange type
   VOSKOWN=      1    Vosko Wilk Nusair interpolation
   LHFCALC =     F    Hartree Fock is set to
   LHFONE  =     F    Hartree Fock one center treatment
   AEXX    =    0.0000 exact exchange contribution

 Linear response parameters
   LEPSILON=     F    determine dielectric tensor
   LRPA    =     F    only Hartree local field effects (RPA)
   LNABLA  =     F    use nabla operator in PAW spheres
   LVEL    =     F    velocity operator in full k-point grid
   LINTERFAST=   F  fast interpolation
   KINTER  =     0    interpolate to denser k-point grid
   CSHIFT  =0.1000    complex shift for real part using Kramers Kronig
   OMEGAMAX=  -1.0    maximum frequency
   DEG_THRESHOLD= 0.2000000E-02 threshold for treating states as degnerate
   RTIME   =   -0.100 relaxation time in fs
  (WPLASMAI=    0.000 imaginary part of plasma frequency in eV, 0.658/RTIME)
   DFIELD  = 0.0000000 0.0000000 0.0000000 field for delta impulse in time
 
 Orbital magnetization related:
   ORBITALMAG=     F  switch on orbital magnetization
   LCHIMAG   =     F  perturbation theory with respect to B field
   DQ        =  0.001000  dq finite difference perturbation B field
   LLRAUG    =     F  two centre corrections for induced B field



--------------------------------------------------------------------------------------------------------


 quasi-Newton-method for relaxation of ions
 charge density and potential will be updated during run
 spin polarized calculation
 Variant of blocked Davidson
 Davidson routine will perform the subspace rotation
 perform sub-space diagonalisation
    after iterative eigenvector-optimisation
 modified Broyden-mixing scheme, WC =      100.0
 initial mixing is a Kerker type mixing with AMIX =  0.4000 and BMIX =      1.0000
 Hartree-type preconditioning will be used
 using additional bands           58
 real space projection scheme for non local part
 use partial core corrections
 calculate Harris-corrections to forces 
   (improved forces if not selfconsistent)
 use gradient corrections 
 use of overlap-Matrix (Vanderbilt PP)
 Gauss-broadening in eV      SIGMA  =   0.05


--------------------------------------------------------------------------------------------------------


  energy-cutoff  :      500.00
  volume of cell :      500.41
      direct lattice vectors                 reciprocal lattice vectors
     0.000000000  3.974014497  3.974014497     0.000000000  0.125817357  0.125817357
    15.873518008  0.000000000  0.000000000     0.062998007  0.000000000  0.000000000
     0.000000000  3.966381525 -3.966381525     0.000000000  0.126059482 -0.126059482

  length of vectors
     5.620105199 15.873518008  5.609310546     0.177932612  0.062998007  0.178275029


 
 k-points in units of 2pi/SCALE and weight: Automatic mesh                          
   0.00000000  0.00000000  0.00000000       1.000
 
 k-points in reciprocal lattice and weights: Automatic mesh                          
   0.00000000  0.00000000  0.00000000       1.000
 
 position of ions in fractional coordinates (direct lattice) 
   0.75000000  0.18124410  0.00000000
   0.25000000  0.43851173  0.50000000
   0.25000000  0.31148827  0.00000000
   0.75000000  0.56875590  0.50000000
   0.00029373  0.99737094  0.00000000
   0.50036135  0.24728015  0.50000000
   0.99963865  0.50271985  0.00000000
   0.49970627  0.75262906  0.50000000
   0.49970627  0.99737094  0.00000000
   0.99963865  0.24728015  0.50000000
   0.50036135  0.50271985  0.00000000
   0.00029373  0.75262906  0.50000000
   0.25000000  0.12134965  0.74777609
   0.75000000  0.37500000  0.25000000
   0.25000000  0.62865035  0.75222391
   0.75000000  0.87500000  0.25000000
   0.25000000  0.12134965  0.25222391
   0.75000000  0.37500000  0.75000000
   0.25000000  0.62865035  0.24777609
   0.75000000  0.87500000  0.75000000
   0.53487930  0.37982449  0.00000000
   0.03596478  0.63268196  0.50000000
   0.53606645  0.87964585  0.00000000
   0.03614881  0.12633577  0.50000000
   0.96512070  0.37982449  0.00000000
   0.46403522  0.63268196  0.50000000
   0.96393355  0.87964585  0.00000000
   0.46385119  0.12633577  0.50000000
   0.25000000  0.24294218  0.28475640
   0.75000000  0.49775373  0.78452424
   0.25000000  0.74761400  0.28552934
   0.75000000  0.99364380  0.78651165
   0.25000000  0.24294218  0.71524360
   0.75000000  0.49775373  0.21547576
   0.25000000  0.74761400  0.71447066
   0.75000000  0.99364380  0.21348835
   0.46403522  0.11731804  0.00000000
   0.96512070  0.37017551  0.50000000
   0.46385119  0.62366423  0.00000000
   0.96393355  0.87035415  0.50000000
   0.03596478  0.11731804  0.00000000
   0.53487930  0.37017551  0.50000000
   0.03614881  0.62366423  0.00000000
   0.53606645  0.87035415  0.50000000
   0.25000000  0.00238600  0.21447066
   0.75000000  0.25224627  0.71547576
   0.25000000  0.50705782  0.21524360
   0.75000000  0.75635620  0.71348835
   0.25000000  0.00238600  0.78552934
   0.75000000  0.25224627  0.28452424
   0.25000000  0.50705782  0.78475640
   0.75000000  0.75635619  0.28651165
 
 position of ions in cartesian coordinates  (Angst):
   2.87698149  2.98051087  2.98051087
   6.96072384  2.97669439 -0.98968714
   4.94441466  0.99350362  0.99350362
   9.02815702  4.96370164  0.99732011
  15.83178558  0.00116729  0.00116729
   3.92520591  3.97163402  0.00525250
   7.97993259  3.97257849  3.97257849
  11.94687094  3.96903072  0.00264920
  15.83178558  1.98583996  1.98583996
   3.92520591  5.95576925  1.98938772
   7.97993259  1.98844326  1.98844326
  11.94687094  1.98435805 -1.98202348
   1.92624585  3.95946889 -1.97246164
   5.95256925  3.97210625  1.98891549
   9.97889265  3.97711064 -1.99010339
  13.88932826  3.97210625  1.98891549
   1.92624585  1.99391988 -0.00691263
   5.95256925  5.95529702  0.00572473
   9.97889265  1.97627813  0.01072912
  13.88932826  5.95529702  0.00572473
   6.02915088  2.12561809  2.12561809
  10.04288849  2.12611532 -1.84026621
  13.96307424  2.13033584  2.13033584
   2.00539312  2.12684666 -1.83953487
   6.02915088  3.83540365  3.83540365
  10.04288849  3.82727345 -0.13910807
  13.96307424  3.83068590  3.83068590
   2.00539312  3.82654212 -0.13983941
   3.85634707  2.12295615 -0.13594890
   7.90110280  6.09223332 -0.13121158
  11.86726429  2.12602192 -0.13901467
  15.77262275  6.10011615 -0.13909440
   3.85634707  3.83043263 -1.84342538
   7.90110280  3.83516995  2.12585180
  11.86726429  3.82736685 -1.84035960
  15.77262275  3.82728712  2.13373463
   1.86225002  1.84408269  1.84408269
   5.87598762  5.81859442  1.85221289
   9.89974539  1.84335135  1.84335135
  13.81558227  5.81387666  1.84749514
   1.86225002  0.14292456  0.14292456
   5.87598762  4.10880886  0.14242733
   9.89974539  0.14365590  0.14365590
  13.81558227  4.11352661  0.14714508
   0.03787421  1.84417609  0.14283116
   4.00403571  5.81836071  0.14266104
   8.04879144  1.84724186  0.13976539
  12.00603376  5.81047788  0.15054386
   0.03787421  4.10921269 -2.12220544
   4.00403571  4.10904256  1.85197918
   8.04879144  4.10614691 -2.11913966
  12.00603360  4.11692539  1.84409636
 


--------------------------------------------------------------------------------------------------------


 use serial FFT for orbitals x direction half grid
 k-point  1 :   0.0000 0.0000 0.0000  plane waves:    6359

 maximum and minimum number of plane-waves per node :      6359     6359

 maximum number of plane-waves:      6359
 maximum index in each direction: 
   IXMAX=   10   IYMAX=   28   IZMAX=   10
   IXMIN=    0   IYMIN=  -28   IZMIN=  -10

 The following grids will avoid any aliasing or wrap around errors in the Hartre
 e energy
  - symmetry arguments have not been applied
  - exchange correlation energies might require even more grid points
  - we recommend to set PREC=Normal or Accurate and rely on VASP defaults
 NGX is ok and might be reduce to    42
 NGY is ok and might be reduce to   120
 NGZ is ok and might be reduce to    42

 serial   3D FFT for wavefunctions
 parallel 3D FFT for charge:
    minimum data exchange during FFTs selected (reduces bandwidth)


 total amount of memory used by VASP MPI-rank0    86330. kBytes
=======================================================================

   base      :      30000. kBytes
   nonlr-proj:      19480. kBytes
   fftplans  :       4901. kBytes
   grid      :      27947. kBytes
   one-center:        808. kBytes
   wavefun   :       3194. kBytes
 
     INWAV:  cpu time    0.0000: real time    0.0000
 Broyden mixing: mesh for mixing (old mesh)
   NGX = 21   NGY = 57   NGZ = 21
  (NGX  = 84   NGY  =240   NGZ  = 84)
  gives a total of  25137 points

 initial charge density was supplied:
 charge density of overlapping atoms calculated
 number of electron     364.0000000 magnetization      40.0000000
 keeping initial charge density in first step


--------------------------------------------------------------------------------------------------------


 Maximum index for non-local projection operator         5540
 Maximum index for augmentation-charges         1322 (set IRDMAX)


--------------------------------------------------------------------------------------------------------


 First call to EWALD:  gamma=   0.223
 Maximum number of real-space cells 4x 2x 4
 Maximum number of reciprocal cells 2x 5x 2

    FEWALD:  cpu time    0.0042: real time    0.0042


--------------------------------------- Iteration      1(   1)  ---------------------------------------


    POTLOK:  cpu time    0.1392: real time    0.1409
    SETDIJ:  cpu time    0.0165: real time    0.0165
     EDDAV:  cpu time    1.2618: real time    1.3087
    --------------------------------------------
      LOOP:  cpu time    1.4179: real time    1.4666

 eigenvalue-minimisations  :   960
 total energy-change (2. order) : 0.6429734E+04  (-0.1688112E+05)
 number of electron     364.0000000 magnetization      40.0000000
 augmentation part      364.0000000 magnetization      40.0000000

 Free energy of the ion-electron system (eV)
  ---------------------------------------------------
  alpha Z        PSCENC =      1154.94939283
  Ewald energy   TEWEN  =    -21591.49910472
  -Hartree energ DENC   =    -11147.96174012
  -exchange      EXHF   =         0.00000000
  -V(xc)+E(xc)   XCENC  =      1476.85211650
  PAW double counting   =     26782.87697988   -27959.44867750
  entropy T*S    EENTRO =        -0.00168690
  eigenvalues    EBANDS =      5896.22526321
  atomic energy  EATOM  =     31817.74171596
  Solvation  Ediel_sol  =         0.00000000
  ---------------------------------------------------
  free energy    TOTEN  =      6429.73425914 eV

  energy without entropy =     6429.73594604  energy(sigma->0) =     6429.73510259


--------------------------------------------------------------------------------------------------------




--------------------------------------- Iteration      1(   2)  ---------------------------------------


     EDDAV:  cpu time    1.3775: real time    1.3807
    --------------------------------------------
      LOOP:  cpu time    1.3773: real time    1.3806

 eigenvalue-minimisations  :  1024
 total energy-change (2. order) :-0.5233912E+04  (-0.4759948E+04)
 number of electron     364.0000000 magnetization      40.0000000
 augmentation part      364.0000000 magnetization      40.0000000

 Free energy of the ion-electron system (eV)
  ---------------------------------------------------
  alpha Z        PSCENC =      1154.94939283
  Ewald energy   TEWEN  =    -21591.49910472
  -Hartree energ DENC   =    -11147.96174012
  -exchange      EXHF   =         0.00000000
  -V(xc)+E(xc)   XCENC  =      1476.85211650
  PAW double counting   =     26782.87697988   -27959.44867750
  entropy T*S    EENTRO =        -0.02654795
  eigenvalues    EBANDS =       662.33774343
  atomic energy  EATOM  =     31817.74171596
  Solvation  Ediel_sol  =         0.00000000
  ---------------------------------------------------
  free energy    TOTEN  =      1195.82187830 eV

  energy without entropy =     1195.84842626  energy(sigma->0) =     1195.83515228


--------------------------------------------------------------------------------------------------------




--------------------------------------- Iteration      1(   3)  ---------------------------------------


     EDDAV:  cpu time    1.4123: real time    1.4157
    --------------------------------------------
      LOOP:  cpu time    1.4123: real time    1.4157

 eigenvalue-minimisations  :  1104
 total energy-change (2. order) :-0.1415932E+04  (-0.1178612E+04)
 number of electron     364.0000000 magnetization      40.0000000
 augmentation part      364.0000000 magnetization      40.0000000

 Free energy of the ion-electron system (eV)
  ---------------------------------------------------
  alpha Z        PSCENC =      1154.94939283
  Ewald energy   TEWEN  =    -21591.49910472
  -Hartree energ DENC   =    -11147.96174012
  -exchange      EXHF   =         0.00000000
  -V(xc)+E(xc)   XCENC  =      1476.85211650
  PAW double counting   =     26782.87697988   -27959.44867750
  entropy T*S    EENTRO =        -0.07548920
  eigenvalues    EBANDS =      -753.54492287
  atomic energy  EATOM  =     31817.74171596
  Solvation  Ediel_sol  =         0.00000000
  ---------------------------------------------------
  free energy    TOTEN  =      -220.10972925 eV

  energy without entropy =     -220.03424004  energy(sigma->0) =     -220.07198464


--------------------------------------------------------------------------------------------------------




--------------------------------------- Iteration      1(   4)  ---------------------------------------


     EDDAV:  cpu time    1.4851: real time    1.4886
    --------------------------------------------
      LOOP:  cpu time    1.4851: real time    1.4886

 eigenvalue-minimisations  :  1152
 total energy-change (2. order) :-0.2079958E+03  (-0.2014593E+03)
 number of electron     364.0000000 magnetization      40.0000000
 augmentation part      364.0000000 magnetization      40.0000000

 Free energy of the ion-electron system (eV)
  ---------------------------------------------------
  alpha Z        PSCENC =      1154.94939283
  Ewald energy   TEWEN  =    -21591.49910472
  -Hartree energ DENC   =    -11147.96174012
  -exchange      EXHF   =         0.00000000
  -V(xc)+E(xc)   XCENC  =      1476.85211650
  PAW double counting   =     26782.87697988   -27959.44867750
  entropy T*S    EENTRO =        -0.09417801
  eigenvalues    EBANDS =      -961.52202864
  atomic energy  EATOM  =     31817.74171596
  Solvation  Ediel_sol  =         0.00000000
  ---------------------------------------------------
  free energy    TOTEN  =      -428.10552382 eV

  energy without entropy =     -428.01134581  energy(sigma->0) =     -428.05843482


--------------------------------------------------------------------------------------------------------




--------------------------------------- Iteration      1(   5)  ---------------------------------------


     EDDAV:  cpu time    1.7789: real time    1.7832
    CHARGE:  cpu time    0.1064: real time    0.1067
    MIXING:  cpu time    0.0027: real time    0.0027
    --------------------------------------------
      LOOP:  cpu time    1.8878: real time    1.8924

 eigenvalue-minimisations  :  1456
 total energy-change (2. order) :-0.8532672E+01  (-0.8470104E+01)
 number of electron     363.9999594 magnetization      38.2850436
 augmentation part      106.2447101 magnetization      30.9220998

 Broyden mixing:
  rms(total) = 0.12165E+02    rms(broyden)= 0.12163E+02
  rms(prec ) = 0.13643E+02
  weight for this iteration     100.00

 Free energy of the ion-electron system (eV)
  ---------------------------------------------------
  alpha Z        PSCENC =      1154.94939283
  Ewald energy   TEWEN  =    -21591.49910472
  -Hartree energ DENC   =    -11147.96174012
  -exchange      EXHF   =         0.00000000
  -V(xc)+E(xc)   XCENC  =      1476.85211650
  PAW double counting   =     26782.87697988   -27959.44867750
  entropy T*S    EENTRO =        -0.09117292
  eigenvalues    EBANDS =      -970.05770592
  atomic energy  EATOM  =     31817.74171596
  Solvation  Ediel_sol  =         0.00000000
  ---------------------------------------------------
  free energy    TOTEN  =      -436.63819601 eV

  energy without entropy =     -436.54702309  energy(sigma->0) =     -436.59260955


--------------------------------------------------------------------------------------------------------




--------------------------------------- Iteration      1(   6)  ---------------------------------------


    POTLOK:  cpu time    0.1086: real time    0.1089
    SETDIJ:  cpu time    0.0170: real time    0.0170
     EDDAV:  cpu time    1.7495: real time    1.7536
    CHARGE:  cpu time    0.1026: real time    0.1028
    MIXING:  cpu time    0.0026: real time    0.0026
    --------------------------------------------
      LOOP:  cpu time    1.9802: real time    1.9849

 eigenvalue-minimisations  :  1504
 total energy-change (2. order) :-0.3220135E+03  (-0.2374240E+03)
 number of electron     363.9999609 magnetization      37.3706283
 augmentation part      127.8312240 magnetization      34.8393053

 Broyden mixing:
  rms(total) = 0.28391E+02    rms(broyden)= 0.28390E+02
  rms(prec ) = 0.32885E+02
  weight for this iteration     100.00

 eigenvalues of (default mixing * dielectric matrix)
  average eigenvalue GAMMA=   0.0975
  0.0975

 Free energy of the ion-electron system (eV)
  ---------------------------------------------------
  alpha Z        PSCENC =      1154.94939283
  Ewald energy   TEWEN  =    -21591.49910472
  -Hartree energ DENC   =    -10615.84084377
  -exchange      EXHF   =         0.00000000
  -V(xc)+E(xc)   XCENC  =      1477.15274427
  PAW double counting   =     29690.64908498   -30687.13623686
  entropy T*S    EENTRO =        -0.03346041
  eigenvalues    EBANDS =     -2004.63503461
  atomic energy  EATOM  =     31817.74171596
  Solvation  Ediel_sol  =         0.00000000
  ---------------------------------------------------
  free energy    TOTEN  =      -758.65174232 eV

  energy without entropy =     -758.61828192  energy(sigma->0) =     -758.63501212


--------------------------------------------------------------------------------------------------------




--------------------------------------- Iteration      1(   7)  ---------------------------------------


    POTLOK:  cpu time    0.1085: real time    0.1088
    SETDIJ:  cpu time    0.0169: real time    0.0170
     EDDAV:  cpu time    1.6434: real time    1.6473
    CHARGE:  cpu time    0.1028: real time    0.1030
    MIXING:  cpu time    0.0025: real time    0.0025
    --------------------------------------------
      LOOP:  cpu time    1.8741: real time    1.8786

 eigenvalue-minimisations  :  1376
 total energy-change (2. order) : 0.2473814E+03  (-0.4218055E+02)
 number of electron     363.9999611 magnetization      34.9901212
 augmentation part      135.5065165 magnetization      32.6080150

 Broyden mixing:
  rms(total) = 0.18126E+02    rms(broyden)= 0.18125E+02
  rms(prec ) = 0.19882E+02
  weight for this iteration     100.00

 eigenvalues of (default mixing * dielectric matrix)
  average eigenvalue GAMMA=   0.3086
  0.3086  0.3086

 Free energy of the ion-electron system (eV)
  ---------------------------------------------------
  alpha Z        PSCENC =      1154.94939283
  Ewald energy   TEWEN  =    -21591.49910472
  -Hartree energ DENC   =    -10639.88534771
  -exchange      EXHF   =         0.00000000
  -V(xc)+E(xc)   XCENC  =      1475.39095163
  PAW double counting   =     30270.84069329   -31301.50203513
  entropy T*S    EENTRO =        -0.05584591
  eigenvalues    EBANDS =     -1697.25078738
  atomic energy  EATOM  =     31817.74171596
  Solvation  Ediel_sol  =         0.00000000
  ---------------------------------------------------
  free energy    TOTEN  =      -511.27036713 eV

  energy without entropy =     -511.21452122  energy(sigma->0) =     -511.24244417


--------------------------------------------------------------------------------------------------------




--------------------------------------- Iteration      1(   8)  ---------------------------------------


    POTLOK:  cpu time    0.1083: real time    0.1086
    SETDIJ:  cpu time    0.0169: real time    0.0169
     EDDAV:  cpu time    1.6086: real time    1.6124
    CHARGE:  cpu time    0.1030: real time    0.1032
    MIXING:  cpu time    0.0027: real time    0.0027
    --------------------------------------------
      LOOP:  cpu time    1.8395: real time    1.8438

 eigenvalue-minimisations  :  1312
 total energy-change (2. order) :-0.1122270E+03  (-0.3685091E+02)
 number of electron     363.9999614 magnetization      31.4473987
 augmentation part      116.6093532 magnetization      30.2387765

 Broyden mixing:
  rms(total) = 0.19717E+02    rms(broyden)= 0.19717E+02
  rms(prec ) = 0.26461E+02
  weight for this iteration     100.00

 eigenvalues of (default mixing * dielectric matrix)
  average eigenvalue GAMMA=   0.4444
  0.5771  0.5771  0.1788

 Free energy of the ion-electron system (eV)
  ---------------------------------------------------
  alpha Z        PSCENC =      1154.94939283
  Ewald energy   TEWEN  =    -21591.49910472
  -Hartree energ DENC   =    -10884.33635849
  -exchange      EXHF   =         0.00000000
  -V(xc)+E(xc)   XCENC  =      1471.42259424
  PAW double counting   =     31398.65319561   -32566.27948321
  entropy T*S    EENTRO =        -0.01494171
  eigenvalues    EBANDS =     -1424.13437374
  atomic energy  EATOM  =     31817.74171596
  Solvation  Ediel_sol  =         0.00000000
  ---------------------------------------------------
  free energy    TOTEN  =      -623.49736323 eV

  energy without entropy =     -623.48242151  energy(sigma->0) =     -623.48989237


--------------------------------------------------------------------------------------------------------




--------------------------------------- Iteration      1(   9)  ---------------------------------------


    POTLOK:  cpu time    0.1082: real time    0.1084
    SETDIJ:  cpu time    0.0169: real time    0.0169
     EDDAV:  cpu time    1.8187: real time    1.8231
    CHARGE:  cpu time    0.1201: real time    0.1204
    MIXING:  cpu time    0.0033: real time    0.0033
    --------------------------------------------
      LOOP:  cpu time    2.0672: real time    2.0721

 eigenvalue-minimisations  :  1536
 total energy-change (2. order) : 0.1091271E+03  (-0.7894208E+02)
 number of electron     363.9999629 magnetization      29.8341413
 augmentation part      117.4086322 magnetization      27.4618959

 Broyden mixing:
  rms(total) = 0.15412E+02    rms(broyden)= 0.15411E+02
  rms(prec ) = 0.20016E+02
  weight for this iteration     100.00

 eigenvalues of (default mixing * dielectric matrix)
  average eigenvalue GAMMA=   0.3636
  0.5852  0.5852  0.1880  0.0958

 Free energy of the ion-electron system (eV)
  ---------------------------------------------------
  alpha Z        PSCENC =      1154.94939283
  Ewald energy   TEWEN  =    -21591.49910472
  -Hartree energ DENC   =    -10887.56033884
  -exchange      EXHF   =         0.00000000
  -V(xc)+E(xc)   XCENC  =      1470.22839600
  PAW double counting   =     32224.25997291   -33435.35006096
  entropy T*S    EENTRO =        -0.04460057
  eigenvalues    EBANDS =     -1267.09560035
  atomic energy  EATOM  =     31817.74171596
  Solvation  Ediel_sol  =         0.00000000
  ---------------------------------------------------
  free energy    TOTEN  =      -514.37022773 eV

  energy without entropy =     -514.32562715  energy(sigma->0) =     -514.34792744


--------------------------------------------------------------------------------------------------------




--------------------------------------- Iteration      1(  10)  ---------------------------------------


    POTLOK:  cpu time    0.1189: real time    0.1192
    SETDIJ:  cpu time    0.0220: real time    0.0220
     EDDAV:  cpu time    1.6387: real time    1.6427
    CHARGE:  cpu time    0.1184: real time    0.1187
    MIXING:  cpu time    0.0046: real time    0.0046
    --------------------------------------------
      LOOP:  cpu time    1.9026: real time    1.9071

 eigenvalue-minimisations  :  1376
 total energy-change (2. order) : 0.7330078E+02  (-0.2450099E+02)
 number of electron     363.9999622 magnetization      28.1860221
 augmentation part      113.5223617 magnetization      24.5568369

 Broyden mixing:
  rms(total) = 0.11545E+02    rms(broyden)= 0.11544E+02
  rms(prec ) = 0.13490E+02
  weight for this iteration     100.00

 eigenvalues of (default mixing * dielectric matrix)
  average eigenvalue GAMMA=   0.3526
  0.6037  0.6037  0.1816  0.1871  0.1871

 Free energy of the ion-electron system (eV)
  ---------------------------------------------------
  alpha Z        PSCENC =      1154.94939283
  Ewald energy   TEWEN  =    -21591.49910472
  -Hartree energ DENC   =    -10911.23700194
  -exchange      EXHF   =         0.00000000
  -V(xc)+E(xc)   XCENC  =      1471.04239592
  PAW double counting   =     32822.55316343   -34062.03149599
  entropy T*S    EENTRO =        -0.08095535
  eigenvalues    EBANDS =     -1142.50755975
  atomic energy  EATOM  =     31817.74171596
  Solvation  Ediel_sol  =         0.00000000
  ---------------------------------------------------
  free energy    TOTEN  =      -441.06944962 eV

  energy without entropy =     -440.98849427  energy(sigma->0) =     -441.02897194


--------------------------------------------------------------------------------------------------------




--------------------------------------- Iteration      1(  11)  ---------------------------------------


    POTLOK:  cpu time    0.1177: real time    0.1180
    SETDIJ:  cpu time    0.0213: real time    0.0213
     EDDAV:  cpu time    1.5493: real time    1.5530
    CHARGE:  cpu time    0.1033: real time    0.1036
    MIXING:  cpu time    0.0030: real time    0.0030
    --------------------------------------------
      LOOP:  cpu time    1.7946: real time    1.7989

 eigenvalue-minimisations  :  1280
 total energy-change (2. order) :-0.4069781E+01  (-0.1089978E+02)
 number of electron     363.9999620 magnetization      23.7134916
 augmentation part      116.6051958 magnetization      19.4064724

 Broyden mixing:
  rms(total) = 0.13363E+02    rms(broyden)= 0.13362E+02
  rms(prec ) = 0.18703E+02
  weight for this iteration     100.00

 eigenvalues of (default mixing * dielectric matrix)
  average eigenvalue GAMMA=   0.4737
  1.2271  0.5739  0.3844  0.3844  0.1719  0.1007

 Free energy of the ion-electron system (eV)
  ---------------------------------------------------
  alpha Z        PSCENC =      1154.94939283
  Ewald energy   TEWEN  =    -21591.49910472
  -Hartree energ DENC   =    -10887.31050176
  -exchange      EXHF   =         0.00000000
  -V(xc)+E(xc)   XCENC  =      1472.01282659
  PAW double counting   =     33382.16532558   -34628.99798567
  entropy T*S    EENTRO =        -0.02917207
  eigenvalues    EBANDS =     -1164.17172771
  atomic energy  EATOM  =     31817.74171596
  Solvation  Ediel_sol  =         0.00000000
  ---------------------------------------------------
  free energy    TOTEN  =      -445.13923097 eV

  energy without entropy =     -445.11005890  energy(sigma->0) =     -445.12464494


--------------------------------------------------------------------------------------------------------




--------------------------------------- Iteration      1(  12)  ---------------------------------------


    POTLOK:  cpu time    0.1152: real time    0.1155
    SETDIJ:  cpu time    0.0220: real time    0.0221
     EDDAV:  cpu time    1.7240: real time    1.7281
    CHARGE:  cpu time    0.1179: real time    0.1182
    MIXING:  cpu time    0.0044: real time    0.0044
    --------------------------------------------
      LOOP:  cpu time    1.9835: real time    1.9882

 eigenvalue-minimisations  :  1456
 total energy-change (2. order) : 0.1122491E+03  (-0.1128502E+02)
 number of electron     363.9999648 magnetization      22.9549332
 augmentation part      118.7275602 magnetization      19.6132818

 Broyden mixing:
  rms(total) = 0.73189E+01    rms(broyden)= 0.73177E+01
  rms(prec ) = 0.93287E+01
  weight for this iteration     100.00

 eigenvalues of (default mixing * dielectric matrix)
  average eigenvalue GAMMA=   0.4573
  1.3013  0.5694  0.3968  0.3968  0.2561  0.1765  0.1038

 Free energy of the ion-electron system (eV)
  ---------------------------------------------------
  alpha Z        PSCENC =      1154.94939283
  Ewald energy   TEWEN  =    -21591.49910472
  -Hartree energ DENC   =    -10882.44436777
  -exchange      EXHF   =         0.00000000
  -V(xc)+E(xc)   XCENC  =      1475.10614119
  PAW double counting   =     34996.41227746   -36264.02665469
  entropy T*S    EENTRO =        -0.04791850
  eigenvalues    EBANDS =     -1039.08160374
  atomic energy  EATOM  =     31817.74171596
  Solvation  Ediel_sol  =         0.00000000
  ---------------------------------------------------
  free energy    TOTEN  =      -332.89012197 eV

  energy without entropy =     -332.84220346  energy(sigma->0) =     -332.86616272


--------------------------------------------------------------------------------------------------------




--------------------------------------- Iteration      1(  13)  ---------------------------------------


    POTLOK:  cpu time    0.1308: real time    0.1312
    SETDIJ:  cpu time    0.0205: real time    0.0205
     EDDAV:  cpu time    1.7390: real time    1.7431
    CHARGE:  cpu time    0.1029: real time    0.1032
    MIXING:  cpu time    0.0032: real time    0.0032
    --------------------------------------------
      LOOP:  cpu time    1.9965: real time    2.0013

 eigenvalue-minimisations  :  1456
 total energy-change (2. order) : 0.1326749E+02  (-0.9404685E+01)
 number of electron     363.9999604 magnetization      22.4919934
 augmentation part      117.7461540 magnetization      18.9986787

 Broyden mixing:
  rms(total) = 0.51185E+01    rms(broyden)= 0.51172E+01
  rms(prec ) = 0.57975E+01
  weight for this iteration     100.00

 eigenvalues of (default mixing * dielectric matrix)
  average eigenvalue GAMMA=   0.4158
  1.2573  0.5655  0.4006  0.4006  0.2183  0.2183  0.1040  0.1623

 Free energy of the ion-electron system (eV)
  ---------------------------------------------------
  alpha Z        PSCENC =      1154.94939283
  Ewald energy   TEWEN  =    -21591.49910472
  -Hartree energ DENC   =    -10884.17906510
  -exchange      EXHF   =         0.00000000
  -V(xc)+E(xc)   XCENC  =      1473.82875420
  PAW double counting   =     35054.97888184   -36318.08393784
  entropy T*S    EENTRO =        -0.02457922
  eigenvalues    EBANDS =     -1027.33469338
  atomic energy  EATOM  =     31817.74171596
  Solvation  Ediel_sol  =         0.00000000
  ---------------------------------------------------
  free energy    TOTEN  =      -319.62263542 eV

  energy without entropy =     -319.59805620  energy(sigma->0) =     -319.61034581


--------------------------------------------------------------------------------------------------------




--------------------------------------- Iteration      1(  14)  ---------------------------------------


    POTLOK:  cpu time    0.1082: real time    0.1084
    SETDIJ:  cpu time    0.0169: real time    0.0169
     EDDAV:  cpu time    1.7424: real time    1.7465
    CHARGE:  cpu time    0.1192: real time    0.1195
    MIXING:  cpu time    0.0036: real time    0.0036
    --------------------------------------------
      LOOP:  cpu time    1.9902: real time    1.9949

 eigenvalue-minimisations  :  1440
 total energy-change (2. order) : 0.5432378E+01  (-0.2974533E+01)
 number of electron     363.9999624 magnetization      21.2241232
 augmentation part      118.1534278 magnetization      18.7881854

 Broyden mixing:
  rms(total) = 0.33992E+01    rms(broyden)= 0.33984E+01
  rms(prec ) = 0.37639E+01
  weight for this iteration     100.00

 eigenvalues of (default mixing * dielectric matrix)
  average eigenvalue GAMMA=   0.4320
  1.2159  0.5392  0.4767  0.4767  0.3767  0.3767  0.1040  0.1715  0.1501

 Free energy of the ion-electron system (eV)
  ---------------------------------------------------
  alpha Z        PSCENC =      1154.94939283
  Ewald energy   TEWEN  =    -21591.49910472
  -Hartree energ DENC   =    -10881.02490291
  -exchange      EXHF   =         0.00000000
  -V(xc)+E(xc)   XCENC  =      1473.10991278
  PAW double counting   =     35066.98107625   -36325.26340393
  entropy T*S    EENTRO =        -0.01746494
  eigenvalues    EBANDS =     -1029.16747914
  atomic energy  EATOM  =     31817.74171596
  Solvation  Ediel_sol  =         0.00000000
  ---------------------------------------------------
  free energy    TOTEN  =      -314.19025781 eV

  energy without entropy =     -314.17279288  energy(sigma->0) =     -314.18152535


--------------------------------------------------------------------------------------------------------




--------------------------------------- Iteration      1(  15)  ---------------------------------------


    POTLOK:  cpu time    0.1082: real time    0.1085
    SETDIJ:  cpu time    0.0169: real time    0.0169
     EDDAV:  cpu time    1.6520: real time    1.6559
    CHARGE:  cpu time    0.1130: real time    0.1133
    MIXING:  cpu time    0.0040: real time    0.0040
    --------------------------------------------
      LOOP:  cpu time    1.8940: real time    1.8985

 eigenvalue-minimisations  :  1376
 total energy-change (2. order) : 0.1678988E+01  (-0.7262039E+00)
 number of electron     363.9999621 magnetization      20.0442978
 augmentation part      119.8024149 magnetization      16.4938710

 Broyden mixing:
  rms(total) = 0.29658E+01    rms(broyden)= 0.29655E+01
  rms(prec ) = 0.33519E+01
  weight for this iteration     100.00

 eigenvalues of (default mixing * dielectric matrix)
  average eigenvalue GAMMA=   0.4419
  1.0834  0.6586  0.6586  0.5751  0.3948  0.3948  0.2182  0.1039  0.1790  0.1521

 Free energy of the ion-electron system (eV)
  ---------------------------------------------------
  alpha Z        PSCENC =      1154.94939283
  Ewald energy   TEWEN  =    -21591.49910472
  -Hartree energ DENC   =    -10868.06099321
  -exchange      EXHF   =         0.00000000
  -V(xc)+E(xc)   XCENC  =      1472.87749046
  PAW double counting   =     35089.79206825   -36337.07297343
  entropy T*S    EENTRO =        -0.03685574
  eigenvalues    EBANDS =     -1051.20201061
  atomic energy  EATOM  =     31817.74171596
  Solvation  Ediel_sol  =         0.00000000
  ---------------------------------------------------
  free energy    TOTEN  =      -312.51127019 eV

  energy without entropy =     -312.47441445  energy(sigma->0) =     -312.49284232


--------------------------------------------------------------------------------------------------------




--------------------------------------- Iteration      1(  16)  ---------------------------------------


    POTLOK:  cpu time    0.1093: real time    0.1096
    SETDIJ:  cpu time    0.0170: real time    0.0170
     EDDAV:  cpu time    1.6531: real time    1.6570
    CHARGE:  cpu time    0.1030: real time    0.1032
    MIXING:  cpu time    0.0040: real time    0.0040
    --------------------------------------------
      LOOP:  cpu time    1.8864: real time    1.8908

 eigenvalue-minimisations  :  1408
 total energy-change (2. order) : 0.1542977E+00  (-0.3765001E+00)
 number of electron     363.9999623 magnetization      17.6416714
 augmentation part      119.6600194 magnetization      15.3828079

 Broyden mixing:
  rms(total) = 0.21623E+01    rms(broyden)= 0.21620E+01
  rms(prec ) = 0.24010E+01
  weight for this iteration     100.00

 eigenvalues of (default mixing * dielectric matrix)
  average eigenvalue GAMMA=   0.4938
  1.0253  1.0253  0.7759  0.7759  0.3982  0.3982  0.3453  0.2579  0.1039  0.1739
  0.1516

 Free energy of the ion-electron system (eV)
  ---------------------------------------------------
  alpha Z        PSCENC =      1154.94939283
  Ewald energy   TEWEN  =    -21591.49910472
  -Hartree energ DENC   =    -10869.88428015
  -exchange      EXHF   =         0.00000000
  -V(xc)+E(xc)   XCENC  =      1471.79054095
  PAW double counting   =     35095.27961249   -36335.07257929
  entropy T*S    EENTRO =        -0.00891490
  eigenvalues    EBANDS =     -1055.65335563
  atomic energy  EATOM  =     31817.74171596
  Solvation  Ediel_sol  =         0.00000000
  ---------------------------------------------------
  free energy    TOTEN  =      -312.35697245 eV

  energy without entropy =     -312.34805755  energy(sigma->0) =     -312.35251500


--------------------------------------------------------------------------------------------------------




--------------------------------------- Iteration      1(  17)  ---------------------------------------


    POTLOK:  cpu time    0.1083: real time    0.1086
    SETDIJ:  cpu time    0.0170: real time    0.0170
     EDDAV:  cpu time    1.5773: real time    1.5810
    CHARGE:  cpu time    0.1029: real time    0.1032
    MIXING:  cpu time    0.0043: real time    0.0043
    --------------------------------------------
      LOOP:  cpu time    1.8097: real time    1.8140

 eigenvalue-minimisations  :  1312
 total energy-change (2. order) :-0.1436006E+01  (-0.2691263E+00)
 number of electron     363.9999621 magnetization      14.0810026
 augmentation part      119.9635292 magnetization      12.0008788

 Broyden mixing:
  rms(total) = 0.15979E+01    rms(broyden)= 0.15977E+01
  rms(prec ) = 0.18028E+01
  weight for this iteration     100.00

 eigenvalues of (default mixing * dielectric matrix)
  average eigenvalue GAMMA=   0.5313
  1.1991  1.1991  0.8972  0.3952  0.3952  0.5672  0.5672  0.4763  0.2488  0.1039
  0.1745  0.1518

 Free energy of the ion-electron system (eV)
  ---------------------------------------------------
  alpha Z        PSCENC =      1154.94939283
  Ewald energy   TEWEN  =    -21591.49910472
  -Hartree energ DENC   =    -10873.57046648
  -exchange      EXHF   =         0.00000000
  -V(xc)+E(xc)   XCENC  =      1470.87112236
  PAW double counting   =     35154.81649868   -36387.49489293
  entropy T*S    EENTRO =        -0.00322363
  eigenvalues    EBANDS =     -1059.60402054
  atomic energy  EATOM  =     31817.74171596
  Solvation  Ediel_sol  =         0.00000000
  ---------------------------------------------------
  free energy    TOTEN  =      -313.79297846 eV

  energy without entropy =     -313.78975483  energy(sigma->0) =     -313.79136664


--------------------------------------------------------------------------------------------------------




--------------------------------------- Iteration      1(  18)  ---------------------------------------


    POTLOK:  cpu time    0.1084: real time    0.1086
    SETDIJ:  cpu time    0.0170: real time    0.0171
     EDDAV:  cpu time    1.6045: real time    1.6083
    CHARGE:  cpu time    0.1034: real time    0.1037
    MIXING:  cpu time    0.0040: real time    0.0041
    --------------------------------------------
      LOOP:  cpu time    1.8374: real time    1.8417

 eigenvalue-minimisations  :  1312
 total energy-change (2. order) :-0.2631604E+01  (-0.2336002E+00)
 number of electron     363.9999623 magnetization      12.6288423
 augmentation part      120.7382610 magnetization      10.8155345

 Broyden mixing:
  rms(total) = 0.10758E+01    rms(broyden)= 0.10755E+01
  rms(prec ) = 0.12114E+01
  weight for this iteration     100.00

 eigenvalues of (default mixing * dielectric matrix)
  average eigenvalue GAMMA=   0.5709
  1.3420  1.3420  0.9269  0.7847  0.5950  0.5950  0.3947  0.3947  0.3639  0.2530
  0.1039  0.1744  0.1518

 Free energy of the ion-electron system (eV)
  ---------------------------------------------------
  alpha Z        PSCENC =      1154.94939283
  Ewald energy   TEWEN  =    -21591.49910472
  -Hartree energ DENC   =    -10869.09134928
  -exchange      EXHF   =         0.00000000
  -V(xc)+E(xc)   XCENC  =      1469.35274220
  PAW double counting   =     35376.70384884   -36602.77406691
  entropy T*S    EENTRO =        -0.04409673
  eigenvalues    EBANDS =     -1071.76366419
  atomic energy  EATOM  =     31817.74171596
  Solvation  Ediel_sol  =         0.00000000
  ---------------------------------------------------
  free energy    TOTEN  =      -316.42458200 eV

  energy without entropy =     -316.38048527  energy(sigma->0) =     -316.40253363


--------------------------------------------------------------------------------------------------------




--------------------------------------- Iteration      1(  19)  ---------------------------------------


    POTLOK:  cpu time    0.1083: real time    0.1086
    SETDIJ:  cpu time    0.0169: real time    0.0169
     EDDAV:  cpu time    1.5374: real time    1.5411
    CHARGE:  cpu time    0.1033: real time    0.1035
    MIXING:  cpu time    0.0045: real time    0.0045
    --------------------------------------------
      LOOP:  cpu time    1.7704: real time    1.7746

 eigenvalue-minimisations  :  1232
 total energy-change (2. order) :-0.2885470E+01  (-0.2410874E+00)
 number of electron     363.9999620 magnetization      10.3310562
 augmentation part      120.1738544 magnetization       8.7561388

 Broyden mixing:
  rms(total) = 0.10414E+01    rms(broyden)= 0.10412E+01
  rms(prec ) = 0.11758E+01
  weight for this iteration     100.00

 eigenvalues of (default mixing * dielectric matrix)
  average eigenvalue GAMMA=   0.6189
  1.5187  1.5187  1.3112  0.7299  0.7299  0.3955  0.3955  0.6093  0.4631  0.3126
  0.2497  0.1039  0.1744  0.1518

 Free energy of the ion-electron system (eV)
  ---------------------------------------------------
  alpha Z        PSCENC =      1154.94939283
  Ewald energy   TEWEN  =    -21591.49910472
  -Hartree energ DENC   =    -10873.59854959
  -exchange      EXHF   =         0.00000000
  -V(xc)+E(xc)   XCENC  =      1467.93349861
  PAW double counting   =     35482.95948620   -36711.91755194
  entropy T*S    EENTRO =        -0.03953545
  eigenvalues    EBANDS =     -1065.83940344
  atomic energy  EATOM  =     31817.74171596
  Solvation  Ediel_sol  =         0.00000000
  ---------------------------------------------------
  free energy    TOTEN  =      -319.31005153 eV

  energy without entropy =     -319.27051608  energy(sigma->0) =     -319.29028380


--------------------------------------------------------------------------------------------------------




--------------------------------------- Iteration      1(  20)  ---------------------------------------


    POTLOK:  cpu time    0.1083: real time    0.1085
    SETDIJ:  cpu time    0.0170: real time    0.0171
     EDDAV:  cpu time    1.4837: real time    1.4872
    CHARGE:  cpu time    0.1032: real time    0.1035
    MIXING:  cpu time    0.0047: real time    0.0047
    --------------------------------------------
      LOOP:  cpu time    1.7169: real time    1.7210

 eigenvalue-minimisations  :  1232
 total energy-change (2. order) :-0.1961071E+01  (-0.2037753E+00)
 number of electron     363.9999623 magnetization       8.8107994
 augmentation part      120.3148204 magnetization       7.8250234

 Broyden mixing:
  rms(total) = 0.76141E+00    rms(broyden)= 0.76119E+00
  rms(prec ) = 0.83790E+00
  weight for this iteration     100.00

 eigenvalues of (default mixing * dielectric matrix)
  average eigenvalue GAMMA=   0.6239
  1.5551  1.5551  1.1106  1.1106  0.6993  0.6993  0.3957  0.3957  0.4104  0.4104
  0.3364  0.2498  0.1039  0.1744  0.1518

 Free energy of the ion-electron system (eV)
  ---------------------------------------------------
  alpha Z        PSCENC =      1154.94939283
  Ewald energy   TEWEN  =    -21591.49910472
  -Hartree energ DENC   =    -10863.54419597
  -exchange      EXHF   =         0.00000000
  -V(xc)+E(xc)   XCENC  =      1466.48734322
  PAW double counting   =     35654.31044869   -36884.24326105
  entropy T*S    EENTRO =        -0.03397530
  eigenvalues    EBANDS =     -1075.43948630
  atomic energy  EATOM  =     31817.74171596
  Solvation  Ediel_sol  =         0.00000000
  ---------------------------------------------------
  free energy    TOTEN  =      -321.27112263 eV

  energy without entropy =     -321.23714732  energy(sigma->0) =     -321.25413497


--------------------------------------------------------------------------------------------------------




--------------------------------------- Iteration      1(  21)  ---------------------------------------


    POTLOK:  cpu time    0.1089: real time    0.1092
    SETDIJ:  cpu time    0.0170: real time    0.0171
     EDDAV:  cpu time    1.5005: real time    1.5040
    CHARGE:  cpu time    0.1030: real time    0.1033
    MIXING:  cpu time    0.0048: real time    0.0048
    --------------------------------------------
      LOOP:  cpu time    1.7343: real time    1.7384

 eigenvalue-minimisations  :  1248
 total energy-change (2. order) :-0.1323540E+01  (-0.8236477E-01)
 number of electron     363.9999621 magnetization       6.6959343
 augmentation part      120.2288627 magnetization       5.9595848

 Broyden mixing:
  rms(total) = 0.66075E+00    rms(broyden)= 0.66068E+00
  rms(prec ) = 0.73094E+00
  weight for this iteration     100.00

 eigenvalues of (default mixing * dielectric matrix)
  average eigenvalue GAMMA=   0.6735
  1.6020  1.6020  1.1781  1.1781  0.8966  0.8966  0.6046  0.6046  0.3954  0.3954
  0.4333  0.3094  0.2490  0.1039  0.1744  0.1518

 Free energy of the ion-electron system (eV)
  ---------------------------------------------------
  alpha Z        PSCENC =      1154.94939283
  Ewald energy   TEWEN  =    -21591.49910472
  -Hartree energ DENC   =    -10859.72548841
  -exchange      EXHF   =         0.00000000
  -V(xc)+E(xc)   XCENC  =      1465.69504823
  PAW double counting   =     35664.87071423   -36894.38294430
  entropy T*S    EENTRO =        -0.01645984
  eigenvalues    EBANDS =     -1080.22753709
  atomic energy  EATOM  =     31817.74171596
  Solvation  Ediel_sol  =         0.00000000
  ---------------------------------------------------
  free energy    TOTEN  =      -322.59466310 eV

  energy without entropy =     -322.57820327  energy(sigma->0) =     -322.58643318


--------------------------------------------------------------------------------------------------------




--------------------------------------- Iteration      1(  22)  ---------------------------------------


    POTLOK:  cpu time    0.1083: real time    0.1086
    SETDIJ:  cpu time    0.0168: real time    0.0169
     EDDAV:  cpu time    1.5150: real time    1.5186
    CHARGE:  cpu time    0.1029: real time    0.1031
    MIXING:  cpu time    0.0050: real time    0.0050
    --------------------------------------------
      LOOP:  cpu time    1.7480: real time    1.7522

 eigenvalue-minimisations  :  1264
 total energy-change (2. order) :-0.1274299E+01  (-0.9446117E-01)
 number of electron     363.9999621 magnetization       3.8894577
 augmentation part      120.1763966 magnetization       3.1592564

 Broyden mixing:
  rms(total) = 0.55062E+00    rms(broyden)= 0.55057E+00
  rms(prec ) = 0.61155E+00
  weight for this iteration     100.00

 eigenvalues of (default mixing * dielectric matrix)
  average eigenvalue GAMMA=   0.7526
  3.0544  1.4855  1.4855  1.0432  1.0432  0.6963  0.6963  0.3955  0.3955  0.5235
  0.5235  0.4561  0.3168  0.2492  0.1039  0.1744  0.1518

 Free energy of the ion-electron system (eV)
  ---------------------------------------------------
  alpha Z        PSCENC =      1154.94939283
  Ewald energy   TEWEN  =    -21591.49910472
  -Hartree energ DENC   =    -10854.04195296
  -exchange      EXHF   =         0.00000000
  -V(xc)+E(xc)   XCENC  =      1464.97605084
  PAW double counting   =     35694.59020352   -36924.16390691
  entropy T*S    EENTRO =        -0.01820967
  eigenvalues    EBANDS =     -1086.40315063
  atomic energy  EATOM  =     31817.74171596
  Solvation  Ediel_sol  =         0.00000000
  ---------------------------------------------------
  free energy    TOTEN  =      -323.86896174 eV

  energy without entropy =     -323.85075207  energy(sigma->0) =     -323.85985691


--------------------------------------------------------------------------------------------------------




--------------------------------------- Iteration      1(  23)  ---------------------------------------


    POTLOK:  cpu time    0.1083: real time    0.1086
    SETDIJ:  cpu time    0.0169: real time    0.0169
     EDDAV:  cpu time    1.5629: real time    1.5666
    CHARGE:  cpu time    0.1032: real time    0.1034
    MIXING:  cpu time    0.0050: real time    0.0050
    --------------------------------------------
      LOOP:  cpu time    1.7963: real time    1.8006

 eigenvalue-minimisations  :  1296
 total energy-change (2. order) :-0.8734850E+00  (-0.8983671E-01)
 number of electron     363.9999620 magnetization       3.4666994
 augmentation part      120.1273989 magnetization       2.9831406

 Broyden mixing:
  rms(total) = 0.49890E+00    rms(broyden)= 0.49879E+00
  rms(prec ) = 0.54896E+00
  weight for this iteration     100.00

 eigenvalues of (default mixing * dielectric matrix)
  average eigenvalue GAMMA=   0.7431
  3.2221  1.4889  1.4889  1.3321  0.7304  0.7304  0.3955  0.3955  0.5752  0.5752
  0.5971  0.4237  0.4237  0.1039  0.1744  0.1518  0.2493  0.3188

 Free energy of the ion-electron system (eV)
  ---------------------------------------------------
  alpha Z        PSCENC =      1154.94939283
  Ewald energy   TEWEN  =    -21591.49910472
  -Hartree energ DENC   =    -10843.66066274
  -exchange      EXHF   =         0.00000000
  -V(xc)+E(xc)   XCENC  =      1464.14755503
  PAW double counting   =     35740.81642956   -36970.95205218
  entropy T*S    EENTRO =        -0.02808592
  eigenvalues    EBANDS =     -1096.25763457
  atomic energy  EATOM  =     31817.74171596
  Solvation  Ediel_sol  =         0.00000000
  ---------------------------------------------------
  free energy    TOTEN  =      -324.74244675 eV

  energy without entropy =     -324.71436083  energy(sigma->0) =     -324.72840379


--------------------------------------------------------------------------------------------------------




--------------------------------------- Iteration      1(  24)  ---------------------------------------


    POTLOK:  cpu time    0.1083: real time    0.1085
    SETDIJ:  cpu time    0.0170: real time    0.0170
     EDDAV:  cpu time    1.5434: real time    1.5470
    CHARGE:  cpu time    0.1027: real time    0.1030
    MIXING:  cpu time    0.0052: real time    0.0052
    --------------------------------------------
      LOOP:  cpu time    1.7766: real time    1.7808

 eigenvalue-minimisations  :  1232
 total energy-change (2. order) :-0.1231379E+00  (-0.2467959E-01)
 number of electron     363.9999620 magnetization       3.2223364
 augmentation part      120.0787182 magnetization       2.9564625

 Broyden mixing:
  rms(total) = 0.50690E+00    rms(broyden)= 0.50686E+00
  rms(prec ) = 0.55750E+00
  weight for this iteration     100.00

 eigenvalues of (default mixing * dielectric matrix)
  average eigenvalue GAMMA=   0.7291
  3.3304  1.4938  1.4938  1.3115  0.7263  0.7263  0.6117  0.3955  0.3955  0.4983
  0.4983  0.4834  0.4834  0.4114  0.1039  0.1744  0.1518  0.3149  0.2491

 Free energy of the ion-electron system (eV)
  ---------------------------------------------------
  alpha Z        PSCENC =      1154.94939283
  Ewald energy   TEWEN  =    -21591.49910472
  -Hartree energ DENC   =    -10843.24648066
  -exchange      EXHF   =         0.00000000
  -V(xc)+E(xc)   XCENC  =      1464.01902399
  PAW double counting   =     35735.32717211   -36965.57185326
  entropy T*S    EENTRO =        -0.02595942
  eigenvalues    EBANDS =     -1096.55949148
  atomic energy  EATOM  =     31817.74171596
  Solvation  Ediel_sol  =         0.00000000
  ---------------------------------------------------
  free energy    TOTEN  =      -324.86558465 eV

  energy without entropy =     -324.83962523  energy(sigma->0) =     -324.85260494


--------------------------------------------------------------------------------------------------------




--------------------------------------- Iteration      1(  25)  ---------------------------------------


    POTLOK:  cpu time    0.1086: real time    0.1089
    SETDIJ:  cpu time    0.0169: real time    0.0170
     EDDAV:  cpu time    1.4470: real time    1.4504
    CHARGE:  cpu time    0.1031: real time    0.1034
    MIXING:  cpu time    0.0054: real time    0.0054
    --------------------------------------------
      LOOP:  cpu time    1.6811: real time    1.6851

 eigenvalue-minimisations  :  1136
 total energy-change (2. order) :-0.3272517E-01  (-0.3861728E-02)
 number of electron     363.9999620 magnetization       3.3098069
 augmentation part      120.0987626 magnetization       3.1537095

 Broyden mixing:
  rms(total) = 0.52126E+00    rms(broyden)= 0.52124E+00
  rms(prec ) = 0.57496E+00
  weight for this iteration     100.00

 eigenvalues of (default mixing * dielectric matrix)
  average eigenvalue GAMMA=   0.7265
  3.3140  1.5019  1.5019  1.3132  0.7000  0.7000  0.6608  0.6608  0.6403  0.3955
  0.3955  0.4848  0.4848  0.4115  0.1039  0.1744  0.1518  0.2492  0.3160  0.3702

 Free energy of the ion-electron system (eV)
  ---------------------------------------------------
  alpha Z        PSCENC =      1154.94939283
  Ewald energy   TEWEN  =    -21591.49910472
  -Hartree energ DENC   =    -10843.51216995
  -exchange      EXHF   =         0.00000000
  -V(xc)+E(xc)   XCENC  =      1464.00592842
  PAW double counting   =     35741.13028048   -36971.32689406
  entropy T*S    EENTRO =        -0.01909127
  eigenvalues    EBANDS =     -1096.36836751
  atomic energy  EATOM  =     31817.74171596
  Solvation  Ediel_sol  =         0.00000000
  ---------------------------------------------------
  free energy    TOTEN  =      -324.89830982 eV

  energy without entropy =     -324.87921855  energy(sigma->0) =     -324.88876418


--------------------------------------------------------------------------------------------------------




--------------------------------------- Iteration      1(  26)  ---------------------------------------


    POTLOK:  cpu time    0.1085: real time    0.1087
    SETDIJ:  cpu time    0.0169: real time    0.0169
     EDDAV:  cpu time    1.4897: real time    1.4932
    CHARGE:  cpu time    0.1391: real time    0.1394
    MIXING:  cpu time    0.0072: real time    0.0072
    --------------------------------------------
      LOOP:  cpu time    1.7613: real time    1.7655

 eigenvalue-minimisations  :  1136
 total energy-change (2. order) : 0.1519125E-01  (-0.6488111E-03)
 number of electron     363.9999620 magnetization       1.9680491
 augmentation part      120.1006367 magnetization       1.8062432

 Broyden mixing:
  rms(total) = 0.53683E+00    rms(broyden)= 0.53683E+00
  rms(prec ) = 0.58755E+00
  weight for this iteration     100.00

 eigenvalues of (default mixing * dielectric matrix)
  average eigenvalue GAMMA=   0.8378
  3.5351  1.7592  1.7592  1.3054  1.3054  1.2133  0.7881  0.7881  0.3955  0.3955
  0.7208  0.6341  0.6341  0.4803  0.4803  0.1039  0.1744  0.1518  0.4030  0.2492
  0.3163

 Free energy of the ion-electron system (eV)
  ---------------------------------------------------
  alpha Z        PSCENC =      1154.94939283
  Ewald energy   TEWEN  =    -21591.49910472
  -Hartree energ DENC   =    -10842.59158816
  -exchange      EXHF   =         0.00000000
  -V(xc)+E(xc)   XCENC  =      1463.96904594
  PAW double counting   =     35744.65739279   -36974.95652531
  entropy T*S    EENTRO =        -0.02079932
  eigenvalues    EBANDS =     -1097.13264858
  atomic energy  EATOM  =     31817.74171596
  Solvation  Ediel_sol  =         0.00000000
  ---------------------------------------------------
  free energy    TOTEN  =      -324.88311857 eV

  energy without entropy =     -324.86231924  energy(sigma->0) =     -324.87271890


--------------------------------------------------------------------------------------------------------




--------------------------------------- Iteration      1(  27)  ---------------------------------------


    POTLOK:  cpu time    0.1155: real time    0.1158
    SETDIJ:  cpu time    0.0210: real time    0.0211
     EDDAV:  cpu time    1.5809: real time    1.5847
    CHARGE:  cpu time    0.1034: real time    0.1036
    MIXING:  cpu time    0.0055: real time    0.0055
    --------------------------------------------
      LOOP:  cpu time    1.8264: real time    1.8307

 eigenvalue-minimisations  :  1264
 total energy-change (2. order) :-0.2688069E-01  (-0.3284642E-01)
 number of electron     363.9999620 magnetization       0.7672720
 augmentation part      119.9650067 magnetization       0.6632001

 Broyden mixing:
  rms(total) = 0.40590E+00    rms(broyden)= 0.40579E+00
  rms(prec ) = 0.45257E+00
  weight for this iteration     100.00

 eigenvalues of (default mixing * dielectric matrix)
  average eigenvalue GAMMA=   0.8490
  4.2553  1.6950  1.6950  1.2996  1.2996  0.9786  0.9786  0.7915  0.7915  0.6327
  0.6327  0.3955  0.3955  0.4904  0.4904  0.1039  0.1744  0.1518  0.4446  0.4150
  0.2492  0.3163

 Free energy of the ion-electron system (eV)
  ---------------------------------------------------
  alpha Z        PSCENC =      1154.94939283
  Ewald energy   TEWEN  =    -21591.49910472
  -Hartree energ DENC   =    -10846.44888663
  -exchange      EXHF   =         0.00000000
  -V(xc)+E(xc)   XCENC  =      1464.00427035
  PAW double counting   =     35732.41549192   -36963.16710973
  entropy T*S    EENTRO =        -0.00261785
  eigenvalues    EBANDS =     -1092.90315139
  atomic energy  EATOM  =     31817.74171596
[...]
  -------------------------------------------------------------------------------------
  Total        0.2702562      0.1261861      0.1261861      0.0000000     -0.0372581      0.0000000
  in kB        0.8652850      0.4040126      0.4040126      0.0000000     -0.1192902      0.0000000
  external PRESSURE =       0.5577700 kB  Pullay stress =       0.0000000 kB


 VOLUME and BASIS-vectors are now :
 -----------------------------------------------------------------------------
  energy-cutoff  :      500.00
  volume of cell :      500.41
      direct lattice vectors                 reciprocal lattice vectors
     0.000000000  3.974014497  3.974014497     0.000000000  0.125817357  0.125817357
    15.873518008  0.000000000  0.000000000     0.062998007  0.000000000  0.000000000
     0.000000000  3.966381525 -3.966381525     0.000000000  0.126059482 -0.126059482

  length of vectors
     5.620105199 15.873518008  5.609310546     0.177932612  0.062998007  0.178275029


 FORCES acting on ions
    electron-ion (+dipol)            ewald-force                    non-local-force                 convergence-correction
 -----------------------------------------------------------------------------------------------
   0.922E+01 0.205E-06 -.205E-06   -.949E+01 0.673E-08 -.673E-08   0.239E+00 -.662E-23 0.662E-23   0.215E-01 0.991E-11 -.983E-11
   -.343E+01 -.875E-06 0.875E-06   0.344E+01 0.359E-07 -.359E-07   -.629E-03 0.306E-22 0.223E-22   -.413E-02 0.364E-10 -.364E-10
   0.343E+01 0.872E-06 -.872E-06   -.344E+01 -.366E-08 0.366E-08   0.629E-03 -.662E-23 0.199E-22   0.413E-02 -.631E-11 0.624E-11
   -.922E+01 -.277E-06 0.277E-06   0.949E+01 0.719E-06 -.719E-06   -.239E+00 -.331E-23 0.662E-23   -.215E-01 0.574E-10 -.574E-10
   0.426E+02 -.105E+02 -.105E+02   -.433E+02 0.107E+02 0.107E+02   0.620E+00 -.217E+00 -.217E+00   0.897E-01 0.172E-01 0.172E-01
   0.373E+02 -.897E+01 -.897E+01   -.378E+02 0.920E+01 0.920E+01   0.517E+00 -.213E+00 -.213E+00   0.146E-01 -.147E-01 -.147E-01
   -.373E+02 0.897E+01 0.897E+01   0.378E+02 -.920E+01 -.920E+01   -.517E+00 0.213E+00 0.213E+00   -.146E-01 0.147E-01 0.147E-01
   -.426E+02 0.105E+02 0.105E+02   0.433E+02 -.107E+02 -.107E+02   -.620E+00 0.217E+00 0.217E+00   -.897E-01 -.172E-01 -.172E-01
   0.426E+02 0.105E+02 0.105E+02   -.433E+02 -.107E+02 -.107E+02   0.620E+00 0.217E+00 0.217E+00   0.897E-01 -.172E-01 -.172E-01
   0.373E+02 0.897E+01 0.897E+01   -.378E+02 -.920E+01 -.920E+01   0.517E+00 0.213E+00 0.213E+00   0.146E-01 0.147E-01 0.147E-01
   -.373E+02 -.897E+01 -.897E+01   0.378E+02 0.920E+01 0.920E+01   -.517E+00 -.213E+00 -.213E+00   -.146E-01 -.147E-01 -.147E-01
   -.426E+02 -.105E+02 -.105E+02   0.433E+02 0.107E+02 0.107E+02   -.620E+00 -.217E+00 -.217E+00   -.897E-01 0.172E-01 0.172E-01
   0.660E+02 0.128E+02 -.128E+02   -.673E+02 -.128E+02 0.128E+02   0.120E+01 0.481E-01 -.481E-01   0.109E+00 -.321E-01 0.321E-01
   0.356E-06 0.121E-08 -.121E-08   -.360E-05 -.124E-07 0.124E-07   -.662E-23 -.132E-22 0.132E-22   0.105E-06 -.654E-10 0.656E-10
   -.660E+02 -.128E+02 0.128E+02   0.673E+02 0.128E+02 -.128E+02   -.120E+01 -.481E-01 0.481E-01   -.109E+00 0.321E-01 -.321E-01
   0.372E-05 -.437E-06 0.437E-06   -.377E-04 0.449E-05 -.449E-05   0.106E-21 0.000E+00 0.000E+00   -.103E-06 -.119E-09 0.119E-09
   0.660E+02 -.128E+02 0.128E+02   -.673E+02 0.128E+02 -.128E+02   0.120E+01 -.481E-01 0.481E-01   0.109E+00 0.321E-01 -.321E-01
   0.340E-06 -.120E-08 0.120E-08   -.344E-05 0.123E-07 -.123E-07   0.000E+00 -.165E-22 0.331E-23   0.105E-06 0.658E-10 -.656E-10
   -.660E+02 0.128E+02 -.128E+02   0.673E+02 -.128E+02 0.128E+02   -.120E+01 0.481E-01 -.481E-01   -.109E+00 -.321E-01 0.321E-01
   -.154E-06 0.125E-06 -.125E-06   0.157E-05 -.128E-05 0.128E-05   0.000E+00 0.000E+00 0.000E+00   -.106E-06 -.608E-10 0.609E-10
   0.164E+03 0.185E+03 0.185E+03   -.172E+03 -.195E+03 -.195E+03   0.721E+01 0.987E+01 0.987E+01   0.365E-02 -.690E-02 -.690E-02
   0.144E+03 0.185E+03 0.185E+03   -.153E+03 -.195E+03 -.195E+03   0.902E+01 0.969E+01 0.969E+01   -.766E-01 0.512E-02 0.512E-02
   0.216E+03 0.214E+03 0.214E+03   -.232E+03 -.229E+03 -.229E+03   0.157E+02 0.150E+02 0.150E+02   -.186E-01 -.627E-02 -.627E-02
   0.234E+03 0.213E+03 0.213E+03   -.248E+03 -.229E+03 -.229E+03   0.137E+02 0.152E+02 0.152E+02   0.576E-01 0.662E-02 0.662E-02
   0.164E+03 -.185E+03 -.185E+03   -.172E+03 0.195E+03 0.195E+03   0.721E+01 -.987E+01 -.987E+01   0.365E-02 0.690E-02 0.690E-02
   0.144E+03 -.185E+03 -.185E+03   -.153E+03 0.195E+03 0.195E+03   0.902E+01 -.969E+01 -.969E+01   -.766E-01 -.512E-02 -.512E-02
   0.216E+03 -.214E+03 -.214E+03   -.232E+03 0.229E+03 0.229E+03   0.157E+02 -.150E+02 -.150E+02   -.186E-01 0.627E-02 0.627E-02
   0.234E+03 -.213E+03 -.213E+03   -.248E+03 0.229E+03 0.229E+03   0.137E+02 -.152E+02 -.152E+02   0.576E-01 -.662E-02 -.662E-02
   -.153E+03 0.183E+03 -.183E+03   0.161E+03 -.193E+03 0.193E+03   -.801E+01 0.998E+01 -.998E+01   0.151E-01 0.799E-02 -.799E-02
   -.191E+03 0.183E+03 -.183E+03   0.199E+03 -.193E+03 0.193E+03   -.799E+01 0.102E+02 -.102E+02   -.119E-01 0.653E-02 -.653E-02
   -.232E+03 0.214E+03 -.214E+03   0.247E+03 -.229E+03 0.229E+03   -.150E+02 0.149E+02 -.149E+02   -.600E-01 -.225E-01 0.225E-01
   -.185E+03 0.217E+03 -.217E+03   0.200E+03 -.232E+03 0.232E+03   -.146E+02 0.149E+02 -.149E+02   0.554E-01 -.225E-01 0.225E-01
   -.153E+03 -.183E+03 0.183E+03   0.161E+03 0.193E+03 -.193E+03   -.801E+01 -.998E+01 0.998E+01   0.151E-01 -.799E-02 0.799E-02
   -.191E+03 -.183E+03 0.183E+03   0.199E+03 0.193E+03 -.193E+03   -.799E+01 -.102E+02 0.102E+02   -.119E-01 -.653E-02 0.653E-02
   -.232E+03 -.214E+03 0.214E+03   0.247E+03 0.229E+03 -.229E+03   -.150E+02 -.149E+02 0.149E+02   -.600E-01 0.225E-01 -.225E-01
   -.185E+03 -.217E+03 0.217E+03   0.200E+03 0.232E+03 -.232E+03   -.146E+02 -.149E+02 0.149E+02   0.554E-01 0.225E-01 -.225E-01
   -.144E+03 -.185E+03 -.185E+03   0.153E+03 0.195E+03 0.195E+03   -.902E+01 -.969E+01 -.969E+01   0.766E-01 -.512E-02 -.512E-02
   -.164E+03 -.185E+03 -.185E+03   0.172E+03 0.195E+03 0.195E+03   -.721E+01 -.987E+01 -.987E+01   -.365E-02 0.690E-02 0.690E-02
   -.234E+03 -.213E+03 -.213E+03   0.248E+03 0.229E+03 0.229E+03   -.137E+02 -.152E+02 -.152E+02   -.576E-01 -.662E-02 -.662E-02
   -.216E+03 -.214E+03 -.214E+03   0.232E+03 0.229E+03 0.229E+03   -.157E+02 -.150E+02 -.150E+02   0.186E-01 0.627E-02 0.627E-02
   -.144E+03 0.185E+03 0.185E+03   0.153E+03 -.195E+03 -.195E+03   -.902E+01 0.969E+01 0.969E+01   0.766E-01 0.512E-02 0.512E-02
   -.164E+03 0.185E+03 0.185E+03   0.172E+03 -.195E+03 -.195E+03   -.721E+01 0.987E+01 0.987E+01   -.365E-02 -.690E-02 -.690E-02
   -.234E+03 0.213E+03 0.213E+03   0.248E+03 -.229E+03 -.229E+03   -.137E+02 0.152E+02 0.152E+02   -.576E-01 0.662E-02 0.662E-02
   -.216E+03 0.214E+03 0.214E+03   0.232E+03 -.229E+03 -.229E+03   -.157E+02 0.150E+02 0.150E+02   0.186E-01 -.627E-02 -.627E-02
   0.232E+03 -.214E+03 0.214E+03   -.247E+03 0.229E+03 -.229E+03   0.150E+02 -.149E+02 0.149E+02   0.600E-01 0.225E-01 -.225E-01
   0.191E+03 -.183E+03 0.183E+03   -.199E+03 0.193E+03 -.193E+03   0.799E+01 -.102E+02 0.102E+02   0.119E-01 -.653E-02 0.653E-02
   0.153E+03 -.183E+03 0.183E+03   -.161E+03 0.193E+03 -.193E+03   0.801E+01 -.998E+01 0.998E+01   -.151E-01 -.799E-02 0.799E-02
   0.185E+03 -.217E+03 0.217E+03   -.200E+03 0.232E+03 -.232E+03   0.146E+02 -.149E+02 0.149E+02   -.554E-01 0.225E-01 -.225E-01
   0.232E+03 0.214E+03 -.214E+03   -.247E+03 -.229E+03 0.229E+03   0.150E+02 0.149E+02 -.149E+02   0.600E-01 -.225E-01 0.225E-01
   0.191E+03 0.183E+03 -.183E+03   -.199E+03 -.193E+03 0.193E+03   0.799E+01 0.102E+02 -.102E+02   0.119E-01 0.653E-02 -.653E-02
   0.153E+03 0.183E+03 -.183E+03   -.161E+03 -.193E+03 0.193E+03   0.801E+01 0.998E+01 -.998E+01   -.151E-01 0.799E-02 -.799E-02
   0.185E+03 0.217E+03 -.217E+03   -.200E+03 -.232E+03 0.232E+03   0.146E+02 0.149E+02 -.149E+02   -.554E-01 -.225E-01 0.225E-01
 -----------------------------------------------------------------------------------------------
   0.180E-03 0.352E-05 -.352E-05   0.199E-12 -.568E-13 0.199E-12   -.355E-14 0.178E-14 -.178E-14   0.272E-07 -.652E-09 0.652E-09
 
 
 POSITION                                       TOTAL-FORCE (eV/Angst)
 -----------------------------------------------------------------------------------
      2.87698      2.98051      2.98051        -0.012179     -0.000000      0.000000
      6.96072      2.97669     -0.98969         0.007895      0.000000      0.000000
      4.94441      0.99350      0.99350        -0.007895      0.000000      0.000000
      9.02816      4.96370      0.99732         0.012179     -0.000000      0.000000
     15.83179      0.00117      0.00117         0.003371     -0.002331     -0.002331
      3.92521      3.97163      0.00525        -0.002381     -0.003449     -0.003449
      7.97993      3.97258      3.97258         0.002381      0.003449      0.003449
     11.94687      3.96903      0.00265        -0.003371      0.002331      0.002331
     15.83179      1.98584      1.98584         0.003371      0.002331      0.002331
      3.92521      5.95577      1.98939        -0.002381      0.003449      0.003449
      7.97993      1.98844      1.98844         0.002381     -0.003449     -0.003449
     11.94687      1.98436     -1.98202        -0.003371     -0.002331     -0.002331
      1.92625      3.95947     -1.97246         0.002396     -0.000520      0.000520
      5.95257      3.97211      1.98892        -0.000000      0.000000      0.000000
      9.97889      3.97711     -1.99010        -0.002396      0.000520     -0.000520
     13.88933      3.97211      1.98892        -0.000000     -0.000000      0.000000
      1.92625      1.99392     -0.00691         0.002396      0.000520     -0.000520
      5.95257      5.95530      0.00572        -0.000000      0.000000      0.000000
      9.97889      1.97628      0.01073        -0.002396     -0.000520      0.000520
     13.88933      5.95530      0.00572        -0.000000      0.000000      0.000000
      6.02915      2.12562      2.12562         0.006123     -0.001174     -0.001174
     10.04289      2.12612     -1.84027        -0.000369      0.003366      0.003366
     13.96307      2.13034      2.13034         0.007481      0.001202      0.001202
      2.00539      2.12685     -1.83953        -0.007261     -0.006700     -0.006700
      6.02915      3.83540      3.83540         0.006123      0.001174      0.001174
     10.04289      3.82727     -0.13911        -0.000369     -0.003366     -0.003366
     13.96307      3.83069      3.83069         0.007481     -0.001202     -0.001202
      2.00539      3.82654     -0.13984        -0.007261      0.006700      0.006700
      3.85635      2.12296     -0.13595        -0.008905      0.001556     -0.001556
      7.90110      6.09223     -0.13121         0.004814     -0.002280      0.002280
     11.86726      2.12602     -0.13901        -0.001180     -0.002916      0.002916
     15.77262      6.10012     -0.13909        -0.004918      0.002774     -0.002774
      3.85635      3.83043     -1.84343        -0.008905     -0.001556      0.001556
      7.90110      3.83517      2.12585         0.004814      0.002280     -0.002280
     11.86726      3.82737     -1.84036        -0.001180      0.002916     -0.002916
     15.77262      3.82729      2.13373        -0.004918     -0.002774      0.002774
      1.86225      1.84408      1.84408         0.000369     -0.003366     -0.003366
      5.87599      5.81859      1.85221        -0.006123      0.001174      0.001174
      9.89975      1.84335      1.84335         0.007261      0.006700      0.006700
     13.81558      5.81388      1.84750        -0.007481     -0.001202     -0.001202
      1.86225      0.14292      0.14292         0.000369      0.003366      0.003366
      5.87599      4.10881      0.14243        -0.006123     -0.001174     -0.001174
      9.89975      0.14366      0.14366         0.007261     -0.006700     -0.006700
     13.81558      4.11353      0.14715        -0.007481      0.001202      0.001202
      0.03787      1.84418      0.14283         0.001180      0.002916     -0.002916
      4.00404      5.81836      0.14266        -0.004814      0.002280     -0.002280
      8.04879      1.84724      0.13977         0.008905     -0.001556      0.001556
     12.00603      5.81048      0.15054         0.004918     -0.002774      0.002774
      0.03787      4.10921     -2.12221         0.001180     -0.002916      0.002916
      4.00404      4.10904      1.85198        -0.004814     -0.002280      0.002280
      8.04879      4.10615     -2.11914         0.008905      0.001556     -0.001556
     12.00603      4.11693      1.84410         0.004918      0.002774     -0.002774
 -----------------------------------------------------------------------------------
    total drift:                                0.000180      0.000004     -0.000004


--------------------------------------------------------------------------------------------------------



  FREE ENERGIE OF THE ION-ELECTRON SYSTEM (eV)
  ---------------------------------------------------
  free  energy   TOTEN  =      -324.8638519712 eV

  energy  without entropy=     -324.8638258092  energy(sigma->0) =     -324.86383889
 


--------------------------------------------------------------------------------------------------------


    POTLOK:  cpu time    0.1259: real time    0.1262


--------------------------------------------------------------------------------------------------------


 Quasi-Newton relaxation of ions (Broydens 2nd method)
  g(Force)  = 0.116E-03   g(Stress)= 0.999E-04

 Reset! Starting new Quasi-Newton update for ions 


--------------------------------------------------------------------------------------------------------


  
 reached required accuracy - stopping structural energy minimisation
     LOOP+:  cpu time   77.7153: real time   78.0907
    4ORBIT:  cpu time    0.0000: real time    0.0000

volume of typ            1:     6.2 %

volume of typ            2:    20.4 %

volume of typ            3:    10.4 %
 
total charge     
 
# of ion       s       p       d       tot
------------------------------------------
    1        2.108   0.326   0.122   2.555
    2        2.108   0.323   0.118   2.548
    3        2.108   0.323   0.118   2.548
    4        2.108   0.326   0.122   2.555
    5        0.297   0.418   7.835   8.550
    6        0.283   0.393   7.849   8.525
    7        0.283   0.393   7.849   8.525
    8        0.297   0.418   7.835   8.550
    9        0.297   0.418   7.835   8.550
   10        0.283   0.393   7.849   8.525
   11        0.283   0.393   7.849   8.525
   12        0.297   0.418   7.835   8.550
   13        0.292   0.408   7.840   8.540
   14        0.281   0.390   7.853   8.523
   15        0.292   0.408   7.840   8.540
   16        0.298   0.419   7.833   8.550
   17        0.292   0.408   7.840   8.540
   18        0.281   0.390   7.853   8.523
   19        0.292   0.408   7.840   8.540
   20        0.298   0.419   7.833   8.550
   21        1.265   2.779   0.007   4.051
   22        1.264   2.787   0.007   4.058
   23        1.283   2.728   0.008   4.019
   24        1.283   2.724   0.008   4.015
   25        1.265   2.779   0.007   4.051
   26        1.264   2.787   0.007   4.058
   27        1.283   2.728   0.008   4.019
   28        1.283   2.724   0.008   4.015
   29        1.264   2.781   0.007   4.052
   30        1.266   2.773   0.007   4.046
   31        1.284   2.723   0.008   4.015
   32        1.281   2.731   0.008   4.021
   33        1.264   2.781   0.007   4.052
   34        1.266   2.773   0.007   4.046
   35        1.284   2.723   0.008   4.015
   36        1.281   2.731   0.008   4.021
   37        1.264   2.787   0.007   4.058
   38        1.265   2.779   0.007   4.051
   39        1.283   2.724   0.008   4.015
   40        1.283   2.728   0.008   4.019
   41        1.264   2.787   0.007   4.058
   42        1.265   2.779   0.007   4.051
   43        1.283   2.724   0.008   4.015
   44        1.283   2.728   0.008   4.019
   45        1.284   2.723   0.008   4.015
   46        1.266   2.773   0.007   4.046
   47        1.264   2.781   0.007   4.052
   48        1.281   2.731   0.008   4.021
   49        1.284   2.723   0.008   4.015
   50        1.266   2.773   0.007   4.046
   51        1.264   2.781   0.007   4.052
   52        1.281   2.731   0.008   4.021
--------------------------------------------------
tot          53.84   95.90  126.18  275.92
 
magnetization (x)
 
# of ion       s       p       d       tot
------------------------------------------
    1        0.000  -0.000   0.000  -0.000
    2        0.000   0.000  -0.000   0.000
    3        0.000   0.000  -0.000   0.000
    4        0.000  -0.000   0.000  -0.000
    5        0.000   0.000   0.000   0.000
    6        0.000   0.000  -0.000  -0.000
    7        0.000   0.000  -0.000  -0.000
    8        0.000   0.000   0.000   0.000
    9        0.000   0.000   0.000   0.000
   10        0.000   0.000  -0.000  -0.000
   11        0.000   0.000  -0.000  -0.000
   12        0.000   0.000   0.000   0.000
   13       -0.000   0.000  -0.000  -0.000
   14        0.000   0.000   0.001   0.001
   15       -0.000   0.000  -0.000  -0.000
   16       -0.000  -0.000  -0.000  -0.000
   17       -0.000   0.000  -0.000  -0.000
   18        0.000   0.000   0.001   0.001
   19       -0.000   0.000  -0.000  -0.000
   20       -0.000  -0.000  -0.000  -0.000
   21        0.000  -0.000   0.000  -0.000
   22       -0.000  -0.000  -0.000  -0.000
   23        0.000   0.000  -0.000   0.000
   24       -0.000  -0.000  -0.000  -0.000
   25        0.000  -0.000   0.000  -0.000
   26       -0.000  -0.000  -0.000  -0.000
   27        0.000   0.000  -0.000   0.000
   28       -0.000  -0.000  -0.000  -0.000
   29       -0.000  -0.000  -0.000  -0.000
   30        0.000   0.000   0.000   0.000
   31       -0.000  -0.000  -0.000  -0.000
   32        0.000  -0.000  -0.000  -0.000
   33       -0.000  -0.000  -0.000  -0.000
   34        0.000   0.000   0.000   0.000
   35       -0.000  -0.000  -0.000  -0.000
   36        0.000  -0.000  -0.000  -0.000
   37       -0.000  -0.000  -0.000  -0.000
   38        0.000  -0.000   0.000  -0.000
   39       -0.000  -0.000  -0.000  -0.000
   40        0.000   0.000  -0.000   0.000
   41       -0.000  -0.000  -0.000  -0.000
   42        0.000  -0.000   0.000  -0.000
   43       -0.000  -0.000  -0.000  -0.000
   44        0.000   0.000  -0.000   0.000
   45       -0.000  -0.000  -0.000  -0.000
   46        0.000   0.000   0.000   0.000
   47       -0.000  -0.000  -0.000  -0.000
   48        0.000  -0.000  -0.000  -0.000
   49       -0.000  -0.000  -0.000  -0.000
   50        0.000   0.000   0.000   0.000
   51       -0.000  -0.000  -0.000  -0.000
   52        0.000  -0.000  -0.000  -0.000
--------------------------------------------------
tot           0.00   -0.00    0.00    0.00
 

 total amount of memory used by VASP MPI-rank0    86330. kBytes
=======================================================================

   base      :      30000. kBytes
   nonlr-proj:      19480. kBytes
   fftplans  :       4901. kBytes
   grid      :      27947. kBytes
   one-center:        808. kBytes
   wavefun   :       3194. kBytes
 
  
  
 General timing and accounting informations for this job:
 ========================================================
  
                  Total CPU time used (sec):       82.710
                            User time (sec):       81.074
                          System time (sec):        1.636
                         Elapsed time (sec):       87.195
  
                   Maximum memory used (kb):      124184.
                   Average memory used (kb):           0.
  
                          Minor page faults:        29623
                          Major page faults:           51
                 Voluntary context switches:          834
