 vasp.5.4.4.18Apr17-6-g9f103f2a35 (build May 12 2020 05:39:39) gamma-only       
  
 MD_VERSION_INFO: Compiled 2020-05-12T12:39:39-UTC in devlin.sd.materialsdesign.
 com:/home/medea2/data/build/wwolf/vasp-gpu5.4.4/13047/x86_64/src/src/build/gam 
 from svn 13047
 
 This VASP executable licensed from Materials Design, Inc.
 
 executed on                        Lin64 date 2023.02.09  13:58:30
 running on   16 total cores
 distrk:  each k-point on   16 cores,    1 groups
 distr:  one band on NCORES_PER_BAND=   1 cores,   16 groups


--------------------------------------------------------------------------------------------------------


 INCAR:
 POTCAR:    PAW_PBE Li_sv 10Sep2004               
 POTCAR:    PAW_PBE Ni 02Aug2007                  
 POTCAR:    PAW_PBE O 08Apr2002                   

 ----------------------------------------------------------------------------- 
|                                                                             |
|           W    W    AA    RRRRR   N    N  II  N    N   GGGG   !!!           |
|           W    W   A  A   R    R  NN   N  II  NN   N  G    G  !!!           |
|           W    W  A    A  R    R  N N  N  II  N N  N  G       !!!           |
|           W WW W  AAAAAA  RRRRR   N  N N  II  N  N N  G  GGG   !            |
|           WW  WW  A    A  R   R   N   NN  II  N   NN  G    G                |
|           W    W  A    A  R    R  N    N  II  N    N   GGGG   !!!           |
|                                                                             |
|      For optimal performance we recommend to set                            |
|        NCORE= 4 - approx SQRT( number of cores)                             |
|      NCORE specifies how many cores store one orbital (NPAR=cpu/NCORE).     |
|      This setting can  greatly improve the performance of VASP for DFT.     |
|      The default,   NCORE=1            might be grossly inefficient         |
|      on modern multi-core architectures or massively parallel machines.     |
|      Do your own testing !!!!                                               |
|      Unfortunately you need to use the default for GW and RPA calculations. |
|      (for HF NCORE is supported but not extensively tested yet)             |
|                                                                             |
 ----------------------------------------------------------------------------- 

 POTCAR:    PAW_PBE Li_sv 10Sep2004               
  local pseudopotential read in
  atomic valenz-charges read in
  non local Contribution for L=           0  read in
    real space projection operators read in
  non local Contribution for L=           0  read in
    real space projection operators read in
  non local Contribution for L=           1  read in
    real space projection operators read in
    PAW grid and wavefunctions read in
 
   number of l-projection  operators is LMAX  =           3
   number of lm-projection operators is LMMAX =           5
 
 POTCAR:    PAW_PBE Ni 02Aug2007                  
  local pseudopotential read in
  partial core-charges read in
  partial kinetic energy density read in
  atomic valenz-charges read in
  non local Contribution for L=           2  read in
    real space projection operators read in
  non local Contribution for L=           2  read in
    real space projection operators read in
  non local Contribution for L=           0  read in
    real space projection operators read in
  non local Contribution for L=           0  read in
    real space projection operators read in
  non local Contribution for L=           1  read in
    real space projection operators read in
  non local Contribution for L=           1  read in
    real space projection operators read in
    PAW grid and wavefunctions read in
 
   number of l-projection  operators is LMAX  =           6
   number of lm-projection operators is LMMAX =          18
 
 POTCAR:    PAW_PBE O 08Apr2002                   
  local pseudopotential read in
  partial core-charges read in
  partial kinetic energy density read in
  kinetic energy density of atom read in
  atomic valenz-charges read in
  non local Contribution for L=           0  read in
    real space projection operators read in
  non local Contribution for L=           0  read in
    real space projection operators read in
  non local Contribution for L=           1  read in
    real space projection operators read in
  non local Contribution for L=           1  read in
    real space projection operators read in
    PAW grid and wavefunctions read in
 
   number of l-projection  operators is LMAX  =           4
   number of lm-projection operators is LMMAX =           8
 
 Optimization of the real space projectors (new method)

 maximal supplied QI-value         = 22.11
 optimisation between [QCUT,QGAM] = [ 11.28, 22.77] = [ 35.61,145.23] Ry 
 Optimized for a Real-space Cutoff    1.10 Angstroem

   l    n(q)    QCUT    max X(q) W(low)/X(q) W(high)/X(q)  e(spline) 
   0      7    11.276    10.506    0.54E-04    0.58E-04    0.16E-07
   0      7    11.276     8.367    0.11E-03    0.14E-03    0.35E-07
   1      7    11.276     8.983    0.23E-03    0.43E-03    0.86E-07
 Optimization of the real space projectors (new method)

 maximal supplied QI-value         = 16.25
 optimisation between [QCUT,QGAM] = [ 11.38, 22.75] = [ 36.24,144.96] Ry 
 Optimized for a Real-space Cutoff    1.47 Angstroem

   l    n(q)    QCUT    max X(q) W(low)/X(q) W(high)/X(q)  e(spline) 
   2      9    11.376    60.317    0.17E-03    0.16E-04    0.16E-06
   2      9    11.376    55.921    0.17E-03    0.16E-04    0.17E-06
   0     10    11.376    51.690    0.45E-04    0.60E-04    0.21E-06
   0     10    11.376    30.015    0.37E-04    0.55E-04    0.19E-06
   1     10    11.376    18.849    0.83E-04    0.11E-03    0.92E-07
   1     10    11.376    14.624    0.69E-04    0.92E-04    0.82E-07
 Optimization of the real space projectors (new method)

 maximal supplied QI-value         = 24.76
 optimisation between [QCUT,QGAM] = [ 11.39, 22.77] = [ 36.31,145.25] Ry 
 Optimized for a Real-space Cutoff    1.10 Angstroem

   l    n(q)    QCUT    max X(q) W(low)/X(q) W(high)/X(q)  e(spline) 
   0      7    11.387    20.381    0.22E-03    0.48E-03    0.18E-06
   0      7    11.387    15.268    0.22E-03    0.52E-03    0.19E-06
   1      7    11.387     5.964    0.22E-03    0.73E-03    0.24E-06
   1      7    11.387     5.382    0.19E-03    0.60E-03    0.21E-06

 ----------------------------------------------------------------------------- 
|                                                                             |
|  ADVICE TO THIS USER RUNNING 'VASP/VAMP'   (HEAR YOUR MASTER'S VOICE ...):  |
|                                                                             |
|      You enforced a specific xc-type in the INCAR file,                     |
|      a different type was found on the POTCAR file                          |
|          I HOPE YOU KNOW, WHAT YOU ARE  DOING                               |
|                                                                             |
 ----------------------------------------------------------------------------- 

  PAW_PBE Li_sv 10Sep2004               :
 energy of atom  1       EATOM= -202.7858
 kinetic energy error for atom=    0.0143 (will be added to EATOM!!)
  PAW_PBE Ni 02Aug2007                  :
 energy of atom  2       EATOM=-1077.6739
 kinetic energy error for atom=    0.0030 (will be added to EATOM!!)
  PAW_PBE O 08Apr2002                   :
 energy of atom  3       EATOM= -432.3788
 kinetic energy error for atom=    0.0224 (will be added to EATOM!!)
 
 
 POSCAR: ce12_1                                  
  positions in direct lattice
  No initial velocities read in
 exchange correlation table for  LEXCH =       14
   RHO(1)=    0.500       N(1)  =     2000
   RHO(2)=  100.500       N(2)  =     4000
 


--------------------------------------------------------------------------------------------------------


 ion  position               nearest neighbor table
   1  0.000  0.500  0.119-  33 1.92  30 1.92  36 1.92  40 2.04
   2  0.667  0.833  0.460-  38 1.91  37 1.94  31 1.94  34 1.94
   3  0.333  0.167  0.786-  35 1.93  29 1.93  32 1.93  39 1.95
   4  0.667  0.833  0.213-  18 1.93  24 1.93  21 1.93  27 1.97
   5  0.331  0.666  0.667-  25 1.86  22 1.86  26 1.87  32 1.88  35 1.88  38 1.88  16 2.76  14 2.81
                             8 2.83  11 2.83  11 2.87   8 2.87
   6  0.999  0.999  0.999-  23 1.85  20 1.85  36 1.87  33 1.87  27 1.89  39 1.89  14 2.76  15 2.78
                             9 2.84  12 2.84  12 2.86   9 2.86
   7  0.666  0.333  0.335-  28 1.86  40 1.87  21 1.89  24 1.89  37 1.90  34 1.90  16 2.81  15 2.84
                            10 2.84  13 2.84  13 2.86  10 2.86
   8  0.834  0.666  0.667-  19 1.86  25 1.86  26 1.87  29 1.88  35 1.88  38 1.88  16 2.76  14 2.81
                             5 2.83  11 2.83  11 2.87   5 2.87
   9  0.501  0.999  0.999-  17 1.85  23 1.85  30 1.87  36 1.87  27 1.89  39 1.89  14 2.76  15 2.78
                             6 2.84  12 2.84  12 2.86   6 2.86
  10  0.167  0.333  0.335-  28 1.86  40 1.87  18 1.89  24 1.89  37 1.90  31 1.90  16 2.81  15 2.84
                             7 2.84  13 2.84  13 2.86   7 2.86
  11  0.834  0.169  0.667-  19 1.86  22 1.86  26 1.87  32 1.88  29 1.88  38 1.88  16 2.76  14 2.81
                             5 2.83   8 2.83   8 2.87   5 2.87
  12  0.501  0.501  0.999-  17 1.85  20 1.85  30 1.87  33 1.87  27 1.89  39 1.89  14 2.76  15 2.78
                             6 2.84   9 2.84   9 2.86   6 2.86
  13  0.167  0.834  0.335-  28 1.86  40 1.87  21 1.89  18 1.89  34 1.90  31 1.90  16 2.81  15 2.84
                             7 2.84  10 2.84  10 2.86   7 2.86
  14  0.667  0.833  0.834-  20 1.88  17 1.88  23 1.88  29 1.90  35 1.90  32 1.90   6 2.76  12 2.76
                             9 2.76   8 2.81  11 2.81   5 2.81
  15  0.333  0.167  0.164-  30 1.90  36 1.90  33 1.90  18 1.90  21 1.90  24 1.90   6 2.78  12 2.78
                             9 2.78  10 2.84   7 2.84  13 2.84
  16  0.000  0.500  0.503-  25 1.87  19 1.87  22 1.87  34 1.89  31 1.89  37 1.89   5 2.76  11 2.76
                             8 2.76   7 2.81  13 2.81  10 2.81
  17  0.375  0.687  0.924-  12 1.85   9 1.85  14 1.88
  18  0.040  0.020  0.255-  10 1.89  13 1.89  15 1.90   4 1.93
  19  0.707  0.354  0.591-  11 1.86   8 1.86  16 1.87
  20  0.813  0.687  0.924-   6 1.85  12 1.85  14 1.88
  21  0.480  0.020  0.255-   7 1.89  13 1.89  15 1.90   4 1.93
  22  0.146  0.354  0.591-   5 1.86  11 1.86  16 1.87
  23  0.813  0.125  0.924-   6 1.85   9 1.85  14 1.88
  24  0.480  0.460  0.255-  10 1.89   7 1.89  15 1.90   4 1.93
  25  0.146  0.793  0.591-   5 1.86   8 1.86  16 1.87
  26  0.000  0.500  0.734-   5 1.87  11 1.87   8 1.87
  27  0.667  0.833  0.068-   6 1.89  12 1.89   9 1.89   4 1.97
  28  0.333  0.167  0.399-  10 1.86   7 1.86  13 1.86
  29  0.960  0.980  0.744-   8 1.88  11 1.88  14 1.90   3 1.93
  30  0.629  0.315  0.074-  12 1.87   9 1.87  15 1.90   1 1.92
  31  0.294  0.647  0.414-  16 1.89  13 1.90  10 1.90   2 1.94
  32  0.520  0.980  0.744-   5 1.88  11 1.88  14 1.90   3 1.93
  33  0.185  0.315  0.074-   6 1.87  12 1.87  15 1.90   1 1.92
  34  0.853  0.647  0.414-  16 1.89  13 1.90   7 1.90   2 1.94
  35  0.520  0.540  0.744-   8 1.88   5 1.88  14 1.90   3 1.93
  36  0.185  0.871  0.074-   6 1.87   9 1.87  15 1.90   1 1.92
  37  0.853  0.206  0.414-  16 1.89  10 1.90   7 1.90   2 1.94
  38  0.667  0.833  0.601-   8 1.88   5 1.88  11 1.88   2 1.91
  39  0.333  0.167  0.931-   6 1.89  12 1.89   9 1.89   3 1.95
  40  0.000  0.500  0.269-   7 1.87  13 1.87  10 1.87   1 2.04
 
  LATTYP: Found a hexagonal cell.
 ALAT       =     5.6987256787
 C/A-ratio  =     2.3782472412
  
  Lattice vectors:
  
 A1 = (   0.0000000000,   4.0296075715,   4.0296075715)
 A2 = (   4.0296075715,  -4.0296075715,   0.0000000000)
 A3 = (   7.8248158569,   7.8248158569,  -7.8248158569)


Analysis of symmetry for initial positions (statically):
=====================================================================
 Subroutine PRICEL returns:
 Original cell was already a primitive cell.
 

 Routine SETGRP: Setting up the symmetry group for a 
 hexagonal supercell.


 Subroutine GETGRP returns: Found  6 space group operations
 (whereof  2 operations were pure point group operations)
 out of a pool of 24 trial point group operations.


The static configuration has the point symmetry C_1h.
 The point group associated with its full space group is C_3v.


Analysis of symmetry for dynamics (positions and initial velocities):
=====================================================================
 Subroutine PRICEL returns:
 Original cell was already a primitive cell.
 

 Routine SETGRP: Setting up the symmetry group for a 
 hexagonal supercell.


 Subroutine GETGRP returns: Found  6 space group operations
 (whereof  2 operations were pure point group operations)
 out of a pool of 24 trial point group operations.


The dynamic configuration has the point symmetry C_1h.
 The point group associated with its full space group is C_3v.


Analysis of structural, dynamic, and magnetic symmetry:
=====================================================================
 Subroutine PRICEL returns:
 Original cell was already a primitive cell.
 

 Routine SETGRP: Setting up the symmetry group for a 
 hexagonal supercell.


 Subroutine GETGRP returns: Found  6 space group operations
 (whereof  2 operations were pure point group operations)
 out of a pool of 24 trial point group operations.


The magnetic configuration has the point symmetry C_1h.
 The point group associated with its full space group is C_3v.


 Subroutine INISYM returns: Found  6 space group operations
 (whereof  2 operations are pure point group operations),
 and found     1 'primitive' translations

 
 
 KPOINTS: Automatic mesh                          

Automatic generation of k-mesh.
Space group operators:
 irot       det(A)        alpha          n_x          n_y          n_z        tau_x        tau_y        tau_z
    1     1.000000     0.000000     1.000000     0.000000     0.000000     0.000000     0.000000     0.000000
    2    -1.000000   180.000000     0.707107    -0.707107     0.000000     0.000000     0.000000     0.000000
    3     1.000000   120.000000    -0.577350    -0.577350     0.577350     0.500000     0.000000     0.000000
    4     1.000000   120.000000     0.577350     0.577350    -0.577350     0.500000     0.500000     0.000000
    5    -1.000000   180.000000     0.000000     0.707107     0.707107     0.500000     0.000000     0.000000
    6    -1.000000   180.000000     0.707107     0.000000     0.707107     0.500000     0.500000     0.000000
 
 Subroutine IBZKPT returns following result:
 ===========================================
 
 Found      1 irreducible k-points:
 
 Following reciprocal coordinates:
            Coordinates               Weight
  0.000000  0.000000  0.000000      1.000000
 
 Following cartesian coordinates:
            Coordinates               Weight
  0.000000  0.000000  0.000000      1.000000
 


--------------------------------------------------------------------------------------------------------




 Dimension of arrays:
   k-points           NKPTS =      1   k-points in BZ     NKDIM =      1   number of bands    NBANDS=    192
   number of dos      NEDOS =    301   number of ions     NIONS =     40
   non local maximal  LDIM  =      6   non local SUM 2l+1 LMDIM =     18
   total plane-waves  NPLWV = 176400
   max r-space proj   IRMAX =   6263   max aug-charges    IRDMAX=  15199
   dimension x,y,z NGX =    42 NGY =   42 NGZ =  100
   dimension x,y,z NGXF=    84 NGYF=   84 NGZF=  200
   support grid    NGXF=    84 NGYF=   84 NGZF=  200
   ions per type =               4  12  24
   NGX,Y,Z   is equivalent  to a cutoff of  12.25, 12.25, 12.27 a.u.
   NGXF,Y,Z  is equivalent  to a cutoff of  24.50, 24.50, 24.53 a.u.

 SYSTEM =  unknown system                          
 POSCAR =  ce12_1                                  

 Startparameter for this run:
   NWRITE =      1    write-flag & timer
   PREC   = accura    normal or accurate (medium, high low for compatibility)
   ISTART =      0    job   : 0-new  1-cont  2-samecut
   ICHARG =      2    charge: 1-file 2-atom 10-const
   ISPIN  =      2    spin polarized calculation?
   LNONCOLLINEAR =      F non collinear calculations
   LSORBIT =      F    spin-orbit coupling
   INIWAV =      1    electr: 0-lowe 1-rand  2-diag
   LASPH  =      F    aspherical Exc in radial PAW
   METAGGA=      F    non-selfconsistent MetaGGA calc.

 Electronic Relaxation 1
   ENCUT  =  500.0 eV  36.75 Ry    6.06 a.u.  10.39 10.39 24.71*2*pi/ulx,y,z
   ENINI  =  500.0     initial cutoff
   ENAUG  =  628.9 eV  augmentation charge cutoff
   NELM   =     80;   NELMIN=  2; NELMDL= -5     # of ELM steps 
   EDIFF  = 0.1E-04   stopping-criterion for ELM
   LREAL  =      T    real-space projection
   NLSPLINE    = F    spline interpolate recip. space projectors
   LCOMPAT=      F    compatible to vasp.4.4
   GGA_COMPAT  = T    GGA compatible to vasp.4.4-vasp.4.6
   LMAXPAW     = -100 max onsite density
   LMAXMIX     =    2 max onsite mixed and CHGCAR
   VOSKOWN=      1    Vosko Wilk Nusair interpolation
   ROPT   =   -0.00025  -0.00025  -0.00025
 Ionic relaxation
   EDIFFG = -.2E-01   stopping-criterion for IOM
   NSW    =     20    number of steps for IOM
   NBLOCK =      1;   KBLOCK =     20    inner block; outer block 
   IBRION =      1    ionic relax: 0-MD 1-quasi-New 2-CG
   NFREE  =      0    steps in history (QN), initial steepest desc. (CG)
   ISIF   =      3    stress and relaxation
   IWAVPR =     11    prediction:  0-non 1-charg 2-wave 3-comb
   ISYM   =      2    0-nonsym 1-usesym 2-fastsym
   LCORR  =      T    Harris-Foulkes like correction to forces

   POTIM  = 0.5000    time-step for ionic-motion
   TEIN   =    0.0    initial temperature
   TEBEG  =    0.0;   TEEND  =   0.0 temperature during run
   SMASS  =  -3.00    Nose mass-parameter (am)
   estimated Nose-frequenzy (Omega)   =  0.10E-29 period in steps =****** mass=  -0.742E-27a.u.
   SCALEE = 1.0000    scale energy and forces
   NPACO  =    256;   APACO  = 16.0  distance and # of slots for P.C.
   PSTRESS=    0.0 pullay stress

  Mass of Ions in am
   POMASS =   7.01 58.69 16.00
  Ionic Valenz
   ZVAL   =   3.00 10.00  6.00
  Atomic Wigner-Seitz radii
   RWIGS  =   1.23  1.15  0.73
  virtual crystal weights 
   VCA    =   1.00  1.00  1.00
   NELECT =     276.0000    total number of electrons
   NUPDOWN=      -1.0000    fix difference up-down

 DOS related values:
   EMIN   =  10.00;   EMAX   =-10.00  energy-range for DOS
   EFERMI =   0.00
   ISMEAR =     0;   SIGMA  =   0.05  broadening in eV -4-tet -1-fermi 0-gaus

 Electronic relaxation 2 (details)
   IALGO  =     38    algorithm
   LDIAG  =      T    sub-space diagonalisation (order eigenvalues)
   LSUBROT=      F    optimize rotation matrix (better conditioning)
   TURBO    =      0    0=normal 1=particle mesh
   IRESTART =      0    0=no restart 2=restart with 2 vectors
   NREBOOT  =      0    no. of reboots
   NMIN     =      0    reboot dimension
   EREF     =   0.00    reference energy to select bands
   IMIX   =      4    mixing-type and parameters
     AMIX     =   0.40;   BMIX     =  1.00
     AMIX_MAG =   1.60;   BMIX_MAG =  1.00
     AMIN     =   0.10
     WC   =   100.;   INIMIX=   1;  MIXPRE=   1;  MAXMIX= -45

 Intra band minimization:
   WEIMIN = 0.0010     energy-eigenvalue tresh-hold
   EBREAK =  0.13E-07  absolut break condition
   DEPER  =   0.30     relativ break condition  

   TIME   =   0.40     timestep for ELM

  volume/ion in A,a.u.               =       9.53        64.31
  Fermi-wavevector in a.u.,A,eV,Ry     =   1.470068  2.778027 29.403568  2.161101
  Thomas-Fermi vector in A             =   2.585370
 
 Write flags
   LWAVE        =      F    write WAVECAR
   LDOWNSAMPLE  =      F    k-point downsampling of WAVECAR
   LCHARG       =      T    write CHGCAR
   LVTOT        =      F    write LOCPOT, total local potential
   LVHAR        =      F    write LOCPOT, Hartree potential only
   LELF         =      F    write electronic localiz. function (ELF)
   LORBIT       =      0    0 simple, 1 ext, 2 COOP (PROOUT), +10 PAW based schemes


 Dipole corrections
   LMONO  =      F    monopole corrections only (constant potential shift)
   LDIPOL =      F    correct potential (dipole corrections)
   IDIPOL =      0    1-x, 2-y, 3-z, 4-all directions 
   EPSILON=  1.0000000 bulk dielectric constant

 Exchange correlation treatment:
   GGA     =    PS    GGA type
   LEXCH   =    14    internal setting for exchange type
   VOSKOWN=      1    Vosko Wilk Nusair interpolation
   LHFCALC =     F    Hartree Fock is set to
   LHFONE  =     F    Hartree Fock one center treatment
   AEXX    =    0.0000 exact exchange contribution

 Linear response parameters
   LEPSILON=     F    determine dielectric tensor
   LRPA    =     F    only Hartree local field effects (RPA)
   LNABLA  =     F    use nabla operator in PAW spheres
   LVEL    =     F    velocity operator in full k-point grid
   LINTERFAST=   F  fast interpolation
   KINTER  =     0    interpolate to denser k-point grid
   CSHIFT  =0.1000    complex shift for real part using Kramers Kronig
   OMEGAMAX=  -1.0    maximum frequency
   DEG_THRESHOLD= 0.2000000E-02 threshold for treating states as degnerate
   RTIME   =   -0.100 relaxation time in fs
  (WPLASMAI=    0.000 imaginary part of plasma frequency in eV, 0.658/RTIME)
   DFIELD  = 0.0000000 0.0000000 0.0000000 field for delta impulse in time
 
 Orbital magnetization related:
   ORBITALMAG=     F  switch on orbital magnetization
   LCHIMAG   =     F  perturbation theory with respect to B field
   DQ        =  0.001000  dq finite difference perturbation B field
   LLRAUG    =     F  two centre corrections for induced B field



--------------------------------------------------------------------------------------------------------


 quasi-Newton-method for relaxation of ions
 charge density and potential will be updated during run
 spin polarized calculation
 Variant of blocked Davidson
 Davidson routine will perform the subspace rotation
 perform sub-space diagonalisation
    after iterative eigenvector-optimisation
 modified Broyden-mixing scheme, WC =      100.0
 initial mixing is a Kerker type mixing with AMIX =  0.4000 and BMIX =      1.0000
 Hartree-type preconditioning will be used
 using additional bands           54
 real space projection scheme for non local part
 use partial core corrections
 calculate Harris-corrections to forces 
   (improved forces if not selfconsistent)
 use gradient corrections 
 use of overlap-Matrix (Vanderbilt PP)
 Gauss-broadening in eV      SIGMA  =   0.05


--------------------------------------------------------------------------------------------------------


  energy-cutoff  :      500.00
  volume of cell :      381.17
      direct lattice vectors                 reciprocal lattice vectors
     0.000000000  4.029607572  4.029607572     0.082721041  0.082721041  0.165442082
     4.029607572 -4.029607572  0.000000000     0.165442082 -0.082721041  0.082721041
     7.824815857  7.824815857 -7.824815857     0.042599512  0.042599512 -0.042599512

  length of vectors
     5.698725679  5.698725679 13.552978624     0.202624342  0.202624342  0.073784518


 
 k-points in units of 2pi/SCALE and weight: Automatic mesh                          
   0.00000000  0.00000000  0.00000000       1.000
 
 k-points in reciprocal lattice and weights: Automatic mesh                          
   0.00000000  0.00000000  0.00000000       1.000
 
 position of ions in fractional coordinates (direct lattice) 
   0.00000000  0.50000000  0.11850006
   0.66666667  0.83333333  0.45956067
   0.33333333  0.16666667  0.78645692
   0.66666667  0.83333333  0.21298520
   0.33131363  0.66565682  0.66708779
   0.99883292  0.99941646  0.99860029
   0.66560639  0.33280319  0.33453611
   0.83434318  0.66565682  0.66708779
   0.50058354  0.99941646  0.99860029
   0.16719681  0.33280319  0.33453611
   0.83434318  0.16868637  0.66708779
   0.50058354  0.50116708  0.99860029
   0.16719681  0.83439361  0.33453611
   0.66666667  0.83333333  0.83449141
   0.33333333  0.16666667  0.16373794
   0.00000000  0.50000000  0.50277763
   0.37461136  0.68730568  0.92351348
   0.03986143  0.01993072  0.25486388
   0.70741627  0.35370813  0.59091931
   0.81269432  0.68730568  0.92351348
   0.48006928  0.01993072  0.25486388
   0.14629187  0.35370813  0.59091931
   0.81269432  0.12538864  0.92351348
   0.48006928  0.46013857  0.25486388
   0.14629187  0.79258373  0.59091931
   0.00000000  0.50000000  0.73353558
   0.66666667  0.83333333  0.06769462
   0.33333333  0.16666667  0.39865703
   0.95992234  0.97996117  0.74383328
   0.62939554  0.31469778  0.07426001
   0.29415235  0.64707617  0.41392060
   0.52003883  0.97996117  0.74383328
   0.18530222  0.31469778  0.07426001
   0.85292383  0.64707617  0.41392060
   0.52003883  0.54007766  0.74383328
   0.18530222  0.87060446  0.07426001
   0.85292383  0.20584765  0.41392060
   0.66666667  0.83333333  0.60081416
   0.33333333  0.16666667  0.93064515
   0.00000000  0.50000000  0.26887269
 
 position of ions in cartesian coordinates  (Angst):
   2.94204493 -1.08756264 -0.92724115
   6.95398391  2.92437638 -0.90957256
   6.82548185  6.82548181 -4.81067807
   5.02457627  0.99496874  1.01983509
   7.90217488  3.87256727 -3.88477521
  11.84111952  7.81151195 -3.78895869
   3.95874971  3.95874975  0.06444909
   7.90217488  5.89957895 -1.85776352
  11.84111952  5.80376247 -5.79670816
   3.95874971  1.95035474 -1.94394593
   5.89957899  7.90217484 -1.85776352
   9.83337004  7.81151195 -5.79670816
   5.97996227 -0.07085782 -1.94394593
   9.88774791  5.85814038 -3.84333656
   1.95282050  1.95282046  0.06198328
   5.94894616  1.91933859 -3.93414237
   9.99589509  5.96628752 -5.71678615
   2.07457591  2.07457587 -1.83363701
   6.04913975  6.04913979 -1.77322483
   9.99589509  7.73158994 -3.95148374
   2.07457591  3.84844075 -0.05977212
   6.04913975  3.78802866 -4.03433596
   7.73158994  9.99589509 -3.95148374
   3.84844080  2.07457587 -0.05977212
   7.81763619  2.01953221 -4.03433596
   7.75458462  3.72497705 -5.73978084
   3.88770423 -0.14190330  2.15670713
   3.79101913  3.79101908 -1.77621534
   9.76921739  5.73960982 -1.95224811
   1.84917946  1.84917938  1.95514613
   5.84631551  1.81670798 -2.05353394
   9.76921739  3.96705190 -3.72480604
   1.84917946  0.05965758  0.16562432
   5.84631551  4.06833776  0.19809585
   7.99665947  5.73960982 -3.72480604
   4.08926523 -2.18042819  0.16562432
   4.06833772  5.84631555  0.19809585
   8.05926646  4.02965893 -2.01485511
   7.95372820  7.95372816 -5.93892442
   4.11868307  0.08907550 -2.10387929
 


--------------------------------------------------------------------------------------------------------


 use serial FFT for orbitals x direction half grid
 k-point  1 :   0.0000 0.0000 0.0000  plane waves:    4840

 maximum and minimum number of plane-waves per node :      4840     4840

 maximum number of plane-waves:      4840
 maximum index in each direction: 
   IXMAX=   10   IYMAX=    8   IZMAX=   24
   IXMIN=    0   IYMIN=  -10   IZMIN=  -24

 The following grids will avoid any aliasing or wrap around errors in the Hartre
 e energy
  - symmetry arguments have not been applied
  - exchange correlation energies might require even more grid points
  - we recommend to set PREC=Normal or Accurate and rely on VASP defaults
 NGX is ok and might be reduce to    42
 NGY is ok and might be reduce to    40
 NGZ is ok and might be reduce to    98

 serial   3D FFT for wavefunctions
 parallel 3D FFT for charge:
    minimum data exchange during FFTs selected (reduces bandwidth)


 total amount of memory used by VASP MPI-rank0    75820. kBytes
=======================================================================

   base      :      30000. kBytes
   nonlr-proj:      16118. kBytes
   fftplans  :       4025. kBytes
   grid      :      23111. kBytes
   one-center:        622. kBytes
   wavefun   :       1944. kBytes
 
     INWAV:  cpu time    0.0000: real time    0.0000
 Broyden mixing: mesh for mixing (old mesh)
   NGX = 21   NGY = 21   NGZ = 49
  (NGX  = 84   NGY  = 84   NGZ  =200)
  gives a total of  21609 points

 initial charge density was supplied:
 charge density of overlapping atoms calculated
 number of electron     276.0000000 magnetization      30.0000000
 keeping initial charge density in first step


--------------------------------------------------------------------------------------------------------


 Maximum index for non-local projection operator         6058
 Maximum index for augmentation-charges         1317 (set IRDMAX)


--------------------------------------------------------------------------------------------------------


 First call to EWALD:  gamma=   0.244
 Maximum number of real-space cells 4x 4x 2
 Maximum number of reciprocal cells 2x 2x 5

    FEWALD:  cpu time    0.0040: real time    0.0041


--------------------------------------- Iteration      1(   1)  ---------------------------------------


    POTLOK:  cpu time    0.1110: real time    0.1127
    SETDIJ:  cpu time    0.0137: real time    0.0138
     EDDAV:  cpu time    0.8615: real time    0.8776
    --------------------------------------------
      LOOP:  cpu time    0.9866: real time    1.0045

 eigenvalue-minimisations  :   768
 total energy-change (2. order) : 0.4642902E+04  (-0.1271983E+05)
 number of electron     276.0000000 magnetization      30.0000000
 augmentation part      276.0000000 magnetization      30.0000000

 Free energy of the ion-electron system (eV)
  ---------------------------------------------------
  alpha Z        PSCENC =       867.81591257
  Ewald energy   TEWEN  =    -16372.34897671
  -Hartree energ DENC   =     -8342.18063802
  -exchange      EXHF   =         0.00000000
  -V(xc)+E(xc)   XCENC  =      1120.60001145
  PAW double counting   =     20166.90149618   -21064.55890484
  entropy T*S    EENTRO =        -0.00013206
  eigenvalues    EBANDS =      4202.34941808
  atomic energy  EATOM  =     24064.32362750
  Solvation  Ediel_sol  =         0.00000000
  ---------------------------------------------------
  free energy    TOTEN  =      4642.90181415 eV

  energy without entropy =     4642.90194622  energy(sigma->0) =     4642.90188018


--------------------------------------------------------------------------------------------------------




--------------------------------------- Iteration      1(   2)  ---------------------------------------


     EDDAV:  cpu time    1.0139: real time    1.0164
    --------------------------------------------
      LOOP:  cpu time    1.0138: real time    1.0162

 eigenvalue-minimisations  :   832
 total energy-change (2. order) :-0.3868171E+04  (-0.3418325E+04)
 number of electron     276.0000000 magnetization      30.0000000
 augmentation part      276.0000000 magnetization      30.0000000

 Free energy of the ion-electron system (eV)
  ---------------------------------------------------
  alpha Z        PSCENC =       867.81591257
  Ewald energy   TEWEN  =    -16372.34897671
  -Hartree energ DENC   =     -8342.18063802
  -exchange      EXHF   =         0.00000000
  -V(xc)+E(xc)   XCENC  =      1120.60001145
  PAW double counting   =     20166.90149618   -21064.55890484
  entropy T*S    EENTRO =        -0.00995125
  eigenvalues    EBANDS =       334.18779739
  atomic energy  EATOM  =     24064.32362750
  Solvation  Ediel_sol  =         0.00000000
  ---------------------------------------------------
  free energy    TOTEN  =       774.73037428 eV

  energy without entropy =      774.74032553  energy(sigma->0) =      774.73534990


--------------------------------------------------------------------------------------------------------




--------------------------------------- Iteration      1(   3)  ---------------------------------------


     EDDAV:  cpu time    1.0202: real time    1.0226
    --------------------------------------------
      LOOP:  cpu time    1.0202: real time    1.0226

 eigenvalue-minimisations  :   848
 total energy-change (2. order) :-0.9747241E+03  (-0.8245262E+03)
 number of electron     276.0000000 magnetization      30.0000000
 augmentation part      276.0000000 magnetization      30.0000000

 Free energy of the ion-electron system (eV)
  ---------------------------------------------------
  alpha Z        PSCENC =       867.81591257
  Ewald energy   TEWEN  =    -16372.34897671
  -Hartree energ DENC   =     -8342.18063802
  -exchange      EXHF   =         0.00000000
  -V(xc)+E(xc)   XCENC  =      1120.60001145
  PAW double counting   =     20166.90149618   -21064.55890484
  entropy T*S    EENTRO =        -0.06779739
  eigenvalues    EBANDS =      -640.47845441
  atomic energy  EATOM  =     24064.32362750
  Solvation  Ediel_sol  =         0.00000000
  ---------------------------------------------------
  free energy    TOTEN  =      -199.99372366 eV

  energy without entropy =     -199.92592627  energy(sigma->0) =     -199.95982497


--------------------------------------------------------------------------------------------------------




--------------------------------------- Iteration      1(   4)  ---------------------------------------


     EDDAV:  cpu time    1.0550: real time    1.0575
    --------------------------------------------
      LOOP:  cpu time    1.0550: real time    1.0575

 eigenvalue-minimisations  :   960
 total energy-change (2. order) :-0.1269125E+03  (-0.1235048E+03)
 number of electron     276.0000000 magnetization      30.0000000
 augmentation part      276.0000000 magnetization      30.0000000

 Free energy of the ion-electron system (eV)
  ---------------------------------------------------
  alpha Z        PSCENC =       867.81591257
  Ewald energy   TEWEN  =    -16372.34897671
  -Hartree energ DENC   =     -8342.18063802
  -exchange      EXHF   =         0.00000000
  -V(xc)+E(xc)   XCENC  =      1120.60001145
  PAW double counting   =     20166.90149618   -21064.55890484
  entropy T*S    EENTRO =        -0.13894152
  eigenvalues    EBANDS =      -767.31984742
  atomic energy  EATOM  =     24064.32362750
  Solvation  Ediel_sol  =         0.00000000
  ---------------------------------------------------
  free energy    TOTEN  =      -326.90626080 eV

  energy without entropy =     -326.76731929  energy(sigma->0) =     -326.83679005


--------------------------------------------------------------------------------------------------------




--------------------------------------- Iteration      1(   5)  ---------------------------------------


     EDDAV:  cpu time    1.1585: real time    1.1613
    CHARGE:  cpu time    0.0789: real time    0.0790
    MIXING:  cpu time    0.0022: real time    0.0022
    --------------------------------------------
      LOOP:  cpu time    1.2393: real time    1.2423

 eigenvalue-minimisations  :  1200
 total energy-change (2. order) :-0.5204180E+01  (-0.5169433E+01)
 number of electron     275.9999872 magnetization      28.7029328
 augmentation part       81.1056646 magnetization      23.0833992

 Broyden mixing:
  rms(total) = 0.10063E+02    rms(broyden)= 0.10061E+02
  rms(prec ) = 0.11246E+02
  weight for this iteration     100.00

 Free energy of the ion-electron system (eV)
  ---------------------------------------------------
  alpha Z        PSCENC =       867.81591257
  Ewald energy   TEWEN  =    -16372.34897671
  -Hartree energ DENC   =     -8342.18063802
  -exchange      EXHF   =         0.00000000
  -V(xc)+E(xc)   XCENC  =      1120.60001145
  PAW double counting   =     20166.90149618   -21064.55890484
  entropy T*S    EENTRO =        -0.13902562
  eigenvalues    EBANDS =      -772.52394339
  atomic energy  EATOM  =     24064.32362750
  Solvation  Ediel_sol  =         0.00000000
  ---------------------------------------------------
  free energy    TOTEN  =      -332.11044087 eV

  energy without entropy =     -331.97141525  energy(sigma->0) =     -332.04092806


--------------------------------------------------------------------------------------------------------




--------------------------------------- Iteration      1(   6)  ---------------------------------------


    POTLOK:  cpu time    0.0901: real time    0.0903
    SETDIJ:  cpu time    0.0139: real time    0.0139
     EDDAV:  cpu time    1.1551: real time    1.1579
    CHARGE:  cpu time    0.0753: real time    0.0755
    MIXING:  cpu time    0.0023: real time    0.0023
    --------------------------------------------
      LOOP:  cpu time    1.3367: real time    1.3399

 eigenvalue-minimisations  :  1184
 total energy-change (2. order) :-0.5498196E+02  (-0.8647235E+02)
 number of electron     275.9999860 magnetization      26.9978883
 augmentation part      105.7981293 magnetization      24.9857283

 Broyden mixing:
  rms(total) = 0.18238E+02    rms(broyden)= 0.18237E+02
  rms(prec ) = 0.19810E+02
  weight for this iteration     100.00

 eigenvalues of (default mixing * dielectric matrix)
  average eigenvalue GAMMA=   0.1788
  0.1788

 Free energy of the ion-electron system (eV)
  ---------------------------------------------------
  alpha Z        PSCENC =       867.81591257
  Ewald energy   TEWEN  =    -16372.34897671
  -Hartree energ DENC   =     -7952.01919296
  -exchange      EXHF   =         0.00000000
  -V(xc)+E(xc)   XCENC  =      1122.27908241
  PAW double counting   =     22310.52179127   -23074.46928772
  entropy T*S    EENTRO =        -0.05109343
  eigenvalues    EBANDS =     -1353.14426473
  atomic energy  EATOM  =     24064.32362750
  Solvation  Ediel_sol  =         0.00000000
  ---------------------------------------------------
  free energy    TOTEN  =      -387.09240182 eV

  energy without entropy =     -387.04130838  energy(sigma->0) =     -387.06685510


--------------------------------------------------------------------------------------------------------




--------------------------------------- Iteration      1(   7)  ---------------------------------------


    POTLOK:  cpu time    0.0900: real time    0.0902
    SETDIJ:  cpu time    0.0138: real time    0.0139
     EDDAV:  cpu time    1.0451: real time    1.0476
    CHARGE:  cpu time    0.0778: real time    0.0780
    MIXING:  cpu time    0.0023: real time    0.0023
    --------------------------------------------
      LOOP:  cpu time    1.2291: real time    1.2320

 eigenvalue-minimisations  :  1056
 total energy-change (2. order) : 0.9550947E+02  (-0.3549485E+02)
 number of electron     275.9999850 magnetization      25.0476168
 augmentation part      100.5345417 magnetization      21.2404940

 Broyden mixing:
  rms(total) = 0.89496E+01    rms(broyden)= 0.89484E+01
  rms(prec ) = 0.10414E+02
  weight for this iteration     100.00

 eigenvalues of (default mixing * dielectric matrix)
  average eigenvalue GAMMA=   0.3973
  0.3973  0.3973

 Free energy of the ion-electron system (eV)
  ---------------------------------------------------
  alpha Z        PSCENC =       867.81591257
  Ewald energy   TEWEN  =    -16372.34897671
  -Hartree energ DENC   =     -8072.16158197
  -exchange      EXHF   =         0.00000000
  -V(xc)+E(xc)   XCENC  =      1119.51290581
  PAW double counting   =     23074.50809014   -23911.18734539
  entropy T*S    EENTRO =        -0.05511437
  eigenvalues    EBANDS =     -1061.99044509
  atomic energy  EATOM  =     24064.32362750
  Solvation  Ediel_sol  =         0.00000000
  ---------------------------------------------------
  free energy    TOTEN  =      -291.58292751 eV

  energy without entropy =     -291.52781315  energy(sigma->0) =     -291.55537033


--------------------------------------------------------------------------------------------------------




--------------------------------------- Iteration      1(   8)  ---------------------------------------


    POTLOK:  cpu time    0.0891: real time    0.0893
    SETDIJ:  cpu time    0.0138: real time    0.0138
     EDDAV:  cpu time    1.2005: real time    1.2033
    CHARGE:  cpu time    0.0755: real time    0.0757
    MIXING:  cpu time    0.0023: real time    0.0023
    --------------------------------------------
      LOOP:  cpu time    1.3812: real time    1.3844

 eigenvalue-minimisations  :  1248
 total energy-change (2. order) :-0.2098606E+02  (-0.2531566E+02)
 number of electron     275.9999873 magnetization      22.7710223
 augmentation part       91.4933362 magnetization      19.1851335

 Broyden mixing:
  rms(total) = 0.10219E+02    rms(broyden)= 0.10218E+02
  rms(prec ) = 0.14292E+02
  weight for this iteration     100.00

 eigenvalues of (default mixing * dielectric matrix)
  average eigenvalue GAMMA=   0.4628
  0.5980  0.5980  0.1926

 Free energy of the ion-electron system (eV)
  ---------------------------------------------------
  alpha Z        PSCENC =       867.81591257
  Ewald energy   TEWEN  =    -16372.34897671
  -Hartree energ DENC   =     -8173.78926881
  -exchange      EXHF   =         0.00000000
  -V(xc)+E(xc)   XCENC  =      1117.47234304
  PAW double counting   =     23851.75480588   -24752.85738136
  entropy T*S    EENTRO =        -0.03831235
  eigenvalues    EBANDS =      -914.90173565
  atomic energy  EATOM  =     24064.32362750
  Solvation  Ediel_sol  =         0.00000000
  ---------------------------------------------------
  free energy    TOTEN  =      -312.56898591 eV

  energy without entropy =     -312.53067355  energy(sigma->0) =     -312.54982973


--------------------------------------------------------------------------------------------------------




--------------------------------------- Iteration      1(   9)  ---------------------------------------


    POTLOK:  cpu time    0.0889: real time    0.0891
    SETDIJ:  cpu time    0.0139: real time    0.0139
     EDDAV:  cpu time    0.9700: real time    0.9723
    CHARGE:  cpu time    0.0762: real time    0.0763
    MIXING:  cpu time    0.0024: real time    0.0024
    --------------------------------------------
      LOOP:  cpu time    1.1513: real time    1.1540

 eigenvalue-minimisations  :   960
 total energy-change (2. order) : 0.2621832E+01  (-0.2316068E+02)
 number of electron     275.9999866 magnetization      20.6490964
 augmentation part       89.4072601 magnetization      18.3322413

 Broyden mixing:
  rms(total) = 0.94387E+01    rms(broyden)= 0.94379E+01
  rms(prec ) = 0.10851E+02
  weight for this iteration     100.00

 eigenvalues of (default mixing * dielectric matrix)
  average eigenvalue GAMMA=   0.4045
  0.6333  0.6333  0.2201  0.1312

 Free energy of the ion-electron system (eV)
  ---------------------------------------------------
  alpha Z        PSCENC =       867.81591257
  Ewald energy   TEWEN  =    -16372.34897671
  -Hartree energ DENC   =     -8157.35789171
  -exchange      EXHF   =         0.00000000
  -V(xc)+E(xc)   XCENC  =      1115.99093223
  PAW double counting   =     24506.09843998   -25419.46150855
  entropy T*S    EENTRO =        -0.00158560
  eigenvalues    EBANDS =      -915.00610407
  atomic energy  EATOM  =     24064.32362750
  Solvation  Ediel_sol  =         0.00000000
  ---------------------------------------------------
  free energy    TOTEN  =      -309.94715436 eV

  energy without entropy =     -309.94556876  energy(sigma->0) =     -309.94636156


--------------------------------------------------------------------------------------------------------




--------------------------------------- Iteration      1(  10)  ---------------------------------------


    POTLOK:  cpu time    0.0891: real time    0.0894
    SETDIJ:  cpu time    0.0136: real time    0.0137
     EDDAV:  cpu time    1.0316: real time    1.0340
    CHARGE:  cpu time    0.0762: real time    0.0764
    MIXING:  cpu time    0.0024: real time    0.0024
    --------------------------------------------
      LOOP:  cpu time    1.2130: real time    1.2158

 eigenvalue-minimisations  :  1040
 total energy-change (2. order) : 0.2317728E+02  (-0.1419377E+02)
 number of electron     275.9999862 magnetization      19.7276645
 augmentation part       89.3304040 magnetization      17.8487981

 Broyden mixing:
  rms(total) = 0.72553E+01    rms(broyden)= 0.72550E+01
  rms(prec ) = 0.80732E+01
  weight for this iteration     100.00

 eigenvalues of (default mixing * dielectric matrix)
  average eigenvalue GAMMA=   0.3769
  0.6465  0.6465  0.2085  0.2085  0.1744

 Free energy of the ion-electron system (eV)
  ---------------------------------------------------
  alpha Z        PSCENC =       867.81591257
  Ewald energy   TEWEN  =    -16372.34897671
  -Hartree energ DENC   =     -8139.73167765
  -exchange      EXHF   =         0.00000000
  -V(xc)+E(xc)   XCENC  =      1115.21310115
  PAW double counting   =     25063.21212049   -25987.42147662
  entropy T*S    EENTRO =        -0.01557287
  eigenvalues    EBANDS =      -897.81692889
  atomic energy  EATOM  =     24064.32362750
  Solvation  Ediel_sol  =         0.00000000
  ---------------------------------------------------
  free energy    TOTEN  =      -286.76987103 eV

  energy without entropy =     -286.75429816  energy(sigma->0) =     -286.76208460


--------------------------------------------------------------------------------------------------------




--------------------------------------- Iteration      1(  11)  ---------------------------------------


    POTLOK:  cpu time    0.0893: real time    0.0895
    SETDIJ:  cpu time    0.0136: real time    0.0136
     EDDAV:  cpu time    0.9320: real time    0.9342
    CHARGE:  cpu time    0.0761: real time    0.0762
    MIXING:  cpu time    0.0025: real time    0.0025
    --------------------------------------------
      LOOP:  cpu time    1.1134: real time    1.1160

 eigenvalue-minimisations  :   912
 total energy-change (2. order) : 0.1518254E+02  (-0.2659027E+01)
 number of electron     275.9999865 magnetization      17.2351347
 augmentation part       89.9052056 magnetization      16.2557506

 Broyden mixing:
  rms(total) = 0.59324E+01    rms(broyden)= 0.59322E+01
  rms(prec ) = 0.68508E+01
  weight for this iteration     100.00

 eigenvalues of (default mixing * dielectric matrix)
  average eigenvalue GAMMA=   0.4605
  0.8004  0.8004  0.4221  0.4221  0.1789  0.1390

 Free energy of the ion-electron system (eV)
  ---------------------------------------------------
  alpha Z        PSCENC =       867.81591257
  Ewald energy   TEWEN  =    -16372.34897671
  -Hartree energ DENC   =     -8137.09709157
  -exchange      EXHF   =         0.00000000
  -V(xc)+E(xc)   XCENC  =      1114.92686499
  PAW double counting   =     25241.07502364   -26168.60017078
  entropy T*S    EENTRO =        -0.03633293
  eigenvalues    EBANDS =      -881.64618387
  atomic energy  EATOM  =     24064.32362750
  Solvation  Ediel_sol  =         0.00000000
  ---------------------------------------------------
  free energy    TOTEN  =      -271.58732716 eV

  energy without entropy =     -271.55099423  energy(sigma->0) =     -271.56916070


--------------------------------------------------------------------------------------------------------




--------------------------------------- Iteration      1(  12)  ---------------------------------------


    POTLOK:  cpu time    0.0894: real time    0.0896
    SETDIJ:  cpu time    0.0137: real time    0.0137
     EDDAV:  cpu time    0.9820: real time    0.9843
    CHARGE:  cpu time    0.0778: real time    0.0780
    MIXING:  cpu time    0.0029: real time    0.0029
    --------------------------------------------
      LOOP:  cpu time    1.1659: real time    1.1686

 eigenvalue-minimisations  :   976
 total energy-change (2. order) : 0.4005938E+01  (-0.1576144E+02)
 number of electron     275.9999876 magnetization      14.3808169
 augmentation part       88.6523549 magnetization      11.9242457

 Broyden mixing:
  rms(total) = 0.98967E+01    rms(broyden)= 0.98961E+01
  rms(prec ) = 0.12611E+02
  weight for this iteration     100.00

 eigenvalues of (default mixing * dielectric matrix)
  average eigenvalue GAMMA=   0.4420
  0.9091  0.7826  0.4601  0.4601  0.2100  0.1360  0.1360

 Free energy of the ion-electron system (eV)
  ---------------------------------------------------
  alpha Z        PSCENC =       867.81591257
  Ewald energy   TEWEN  =    -16372.34897671
  -Hartree energ DENC   =     -8142.59048324
  -exchange      EXHF   =         0.00000000
  -V(xc)+E(xc)   XCENC  =      1115.65292406
  PAW double counting   =     25473.25171158   -26402.78820893
  entropy T*S    EENTRO =        -0.02825405
  eigenvalues    EBANDS =      -870.86964189
  atomic energy  EATOM  =     24064.32362750
  Solvation  Ediel_sol  =         0.00000000
  ---------------------------------------------------
  free energy    TOTEN  =      -267.58138911 eV

  energy without entropy =     -267.55313506  energy(sigma->0) =     -267.56726209


--------------------------------------------------------------------------------------------------------




--------------------------------------- Iteration      1(  13)  ---------------------------------------


    POTLOK:  cpu time    0.0901: real time    0.0904
    SETDIJ:  cpu time    0.0138: real time    0.0138
     EDDAV:  cpu time    1.0329: real time    1.0353
    CHARGE:  cpu time    0.0760: real time    0.0761
    MIXING:  cpu time    0.0030: real time    0.0030
    --------------------------------------------
      LOOP:  cpu time    1.2157: real time    1.2186

 eigenvalue-minimisations  :  1040
 total energy-change (2. order) : 0.2160777E+02  (-0.3162998E+02)
 number of electron     275.9999858 magnetization      13.7275083
 augmentation part       91.5800780 magnetization      13.0670794

 Broyden mixing:
  rms(total) = 0.34995E+01    rms(broyden)= 0.34984E+01
  rms(prec ) = 0.43635E+01
  weight for this iteration     100.00

 eigenvalues of (default mixing * dielectric matrix)
  average eigenvalue GAMMA=   0.4331
  0.8828  0.8828  0.4764  0.4764  0.2445  0.2445  0.1287  0.1287

 Free energy of the ion-electron system (eV)
  ---------------------------------------------------
  alpha Z        PSCENC =       867.81591257
  Ewald energy   TEWEN  =    -16372.34897671
  -Hartree energ DENC   =     -8132.18035097
  -exchange      EXHF   =         0.00000000
  -V(xc)+E(xc)   XCENC  =      1116.54216875
  PAW double counting   =     26009.96000913   -26945.13883791
  entropy T*S    EENTRO =        -0.00391459
  eigenvalues    EBANDS =      -854.94325952
  atomic energy  EATOM  =     24064.32362750
  Solvation  Ediel_sol  =         0.00000000
  ---------------------------------------------------
  free energy    TOTEN  =      -245.97362176 eV

  energy without entropy =     -245.96970717  energy(sigma->0) =     -245.97166446


--------------------------------------------------------------------------------------------------------




--------------------------------------- Iteration      1(  14)  ---------------------------------------


    POTLOK:  cpu time    0.0897: real time    0.0899
    SETDIJ:  cpu time    0.0137: real time    0.0137
     EDDAV:  cpu time    1.0848: real time    1.0874
    CHARGE:  cpu time    0.0759: real time    0.0760
    MIXING:  cpu time    0.0028: real time    0.0028
    --------------------------------------------
      LOOP:  cpu time    1.2669: real time    1.2698

 eigenvalue-minimisations  :  1104
 total energy-change (2. order) : 0.1984452E+01  (-0.4428776E+01)
 number of electron     275.9999861 magnetization      13.3082897
 augmentation part       91.2777149 magnetization      12.5735227

 Broyden mixing:
  rms(total) = 0.34117E+01    rms(broyden)= 0.34114E+01
  rms(prec ) = 0.38658E+01
  weight for this iteration     100.00

 eigenvalues of (default mixing * dielectric matrix)
  average eigenvalue GAMMA=   0.4031
  0.8900  0.8900  0.4890  0.4890  0.2591  0.2591  0.1320  0.1320  0.0872

 Free energy of the ion-electron system (eV)
  ---------------------------------------------------
  alpha Z        PSCENC =       867.81591257
  Ewald energy   TEWEN  =    -16372.34897671
  -Hartree energ DENC   =     -8133.93008491
  -exchange      EXHF   =         0.00000000
  -V(xc)+E(xc)   XCENC  =      1116.24259436
  PAW double counting   =     26067.67612397   -27004.40745782
  entropy T*S    EENTRO =        -0.02093759
  eigenvalues    EBANDS =      -849.33997084
  atomic energy  EATOM  =     24064.32362750
  Solvation  Ediel_sol  =         0.00000000
  ---------------------------------------------------
  free energy    TOTEN  =      -243.98916947 eV

  energy without entropy =     -243.96823188  energy(sigma->0) =     -243.97870067


--------------------------------------------------------------------------------------------------------




--------------------------------------- Iteration      1(  15)  ---------------------------------------


    POTLOK:  cpu time    0.0891: real time    0.0893
    SETDIJ:  cpu time    0.0137: real time    0.0137
     EDDAV:  cpu time    1.0572: real time    1.0597
    CHARGE:  cpu time    0.0773: real time    0.0775
    MIXING:  cpu time    0.0032: real time    0.0032
    --------------------------------------------
      LOOP:  cpu time    1.2404: real time    1.2433

 eigenvalue-minimisations  :  1056
 total energy-change (2. order) : 0.9817887E+00  (-0.1013923E+01)
 number of electron     275.9999859 magnetization      13.0384649
 augmentation part       91.2904094 magnetization      11.3518348

 Broyden mixing:
  rms(total) = 0.17718E+01    rms(broyden)= 0.17712E+01
  rms(prec ) = 0.20479E+01
  weight for this iteration     100.00

 eigenvalues of (default mixing * dielectric matrix)
  average eigenvalue GAMMA=   0.3907
  0.9079  0.6775  0.5629  0.5629  0.3022  0.3022  0.2227  0.1339  0.1339  0.1013

 Free energy of the ion-electron system (eV)
  ---------------------------------------------------
  alpha Z        PSCENC =       867.81591257
  Ewald energy   TEWEN  =    -16372.34897671
  -Hartree energ DENC   =     -8137.47374893
  -exchange      EXHF   =         0.00000000
  -V(xc)+E(xc)   XCENC  =      1115.81497085
  PAW double counting   =     26088.64972648   -27026.58627659
  entropy T*S    EENTRO =        -0.02661701
  eigenvalues    EBANDS =      -843.17599889
  atomic energy  EATOM  =     24064.32362750
  Solvation  Ediel_sol  =         0.00000000
  ---------------------------------------------------
  free energy    TOTEN  =      -243.00738073 eV

  energy without entropy =     -242.98076372  energy(sigma->0) =     -242.99407223


--------------------------------------------------------------------------------------------------------




--------------------------------------- Iteration      1(  16)  ---------------------------------------


    POTLOK:  cpu time    0.0894: real time    0.0896
    SETDIJ:  cpu time    0.0137: real time    0.0137
     EDDAV:  cpu time    1.0465: real time    1.0490
    CHARGE:  cpu time    0.0790: real time    0.0792
    MIXING:  cpu time    0.0033: real time    0.0033
    --------------------------------------------
      LOOP:  cpu time    1.2319: real time    1.2348

 eigenvalue-minimisations  :  1056
 total energy-change (2. order) :-0.8893080E+00  (-0.6035934E+00)
 number of electron     275.9999859 magnetization      12.6187524
 augmentation part       90.8881506 magnetization      10.4550863

 Broyden mixing:
  rms(total) = 0.17964E+01    rms(broyden)= 0.17961E+01
  rms(prec ) = 0.20508E+01
  weight for this iteration     100.00

 eigenvalues of (default mixing * dielectric matrix)
  average eigenvalue GAMMA=   0.3919
  1.1341  0.6735  0.6735  0.3717  0.3717  0.2865  0.2865  0.1524  0.1451  0.1215
  0.0939

 Free energy of the ion-electron system (eV)
  ---------------------------------------------------
  alpha Z        PSCENC =       867.81591257
  Ewald energy   TEWEN  =    -16372.34897671
  -Hartree energ DENC   =     -8141.18919068
  -exchange      EXHF   =         0.00000000
  -V(xc)+E(xc)   XCENC  =      1115.20769410
  PAW double counting   =     26115.09405755   -27053.44306513
  entropy T*S    EENTRO =        -0.03816821
  eigenvalues    EBANDS =      -839.31857969
  atomic energy  EATOM  =     24064.32362750
  Solvation  Ediel_sol  =         0.00000000
  ---------------------------------------------------
  free energy    TOTEN  =      -243.89668870 eV

  energy without entropy =     -243.85852049  energy(sigma->0) =     -243.87760460


--------------------------------------------------------------------------------------------------------




--------------------------------------- Iteration      1(  17)  ---------------------------------------


    POTLOK:  cpu time    0.0897: real time    0.0899
    SETDIJ:  cpu time    0.0138: real time    0.0138
     EDDAV:  cpu time    1.0215: real time    1.0239
    CHARGE:  cpu time    0.0786: real time    0.0787
    MIXING:  cpu time    0.0035: real time    0.0036
    --------------------------------------------
      LOOP:  cpu time    1.2071: real time    1.2099

 eigenvalue-minimisations  :  1024
 total energy-change (2. order) :-0.1735339E+01  (-0.1446411E+00)
 number of electron     275.9999860 magnetization      11.5716213
 augmentation part       90.7839249 magnetization       9.5971931

 Broyden mixing:
  rms(total) = 0.14230E+01    rms(broyden)= 0.14229E+01
  rms(prec ) = 0.16536E+01
  weight for this iteration     100.00

 eigenvalues of (default mixing * dielectric matrix)
  average eigenvalue GAMMA=   0.4301
  1.2135  0.8366  0.8366  0.3501  0.3501  0.3873  0.3873  0.2190  0.2190  0.1327
  0.1327  0.0964

 Free energy of the ion-electron system (eV)
  ---------------------------------------------------
  alpha Z        PSCENC =       867.81591257
  Ewald energy   TEWEN  =    -16372.34897671
  -Hartree energ DENC   =     -8141.90274275
  -exchange      EXHF   =         0.00000000
  -V(xc)+E(xc)   XCENC  =      1114.35741883
  PAW double counting   =     26175.05498681   -27113.44568195
  entropy T*S    EENTRO =        -0.02953275
  eigenvalues    EBANDS =      -839.45703963
  atomic energy  EATOM  =     24064.32362750
  Solvation  Ediel_sol  =         0.00000000
  ---------------------------------------------------
  free energy    TOTEN  =      -245.63202809 eV

  energy without entropy =     -245.60249534  energy(sigma->0) =     -245.61726171


--------------------------------------------------------------------------------------------------------




--------------------------------------- Iteration      1(  18)  ---------------------------------------


    POTLOK:  cpu time    0.0893: real time    0.0895
    SETDIJ:  cpu time    0.0137: real time    0.0137
     EDDAV:  cpu time    0.9580: real time    0.9602
    CHARGE:  cpu time    0.0767: real time    0.0769
    MIXING:  cpu time    0.0037: real time    0.0037
    --------------------------------------------
      LOOP:  cpu time    1.1414: real time    1.1441

 eigenvalue-minimisations  :   944
 total energy-change (2. order) :-0.1112363E+01  (-0.2604387E+00)
 number of electron     275.9999859 magnetization       9.3174842
 augmentation part       90.8812251 magnetization       7.5001855

 Broyden mixing:
  rms(total) = 0.12856E+01    rms(broyden)= 0.12855E+01
  rms(prec ) = 0.15396E+01
  weight for this iteration     100.00

 eigenvalues of (default mixing * dielectric matrix)
  average eigenvalue GAMMA=   0.4818
  1.2319  1.2319  0.9590  0.4234  0.4234  0.4949  0.3536  0.3536  0.2377  0.1925
  0.1323  0.1323  0.0963

 Free energy of the ion-electron system (eV)
  ---------------------------------------------------
  alpha Z        PSCENC =       867.81591257
  Ewald energy   TEWEN  =    -16372.34897671
  -Hartree energ DENC   =     -8140.27040957
  -exchange      EXHF   =         0.00000000
  -V(xc)+E(xc)   XCENC  =      1113.70727867
  PAW double counting   =     26311.27704599   -27249.46286522
  entropy T*S    EENTRO =        -0.03412659
  eigenvalues    EBANDS =      -841.75187788
  atomic energy  EATOM  =     24064.32362750
  Solvation  Ediel_sol  =         0.00000000
  ---------------------------------------------------
  free energy    TOTEN  =      -246.74439124 eV

  energy without entropy =     -246.71026465  energy(sigma->0) =     -246.72732794


--------------------------------------------------------------------------------------------------------




--------------------------------------- Iteration      1(  19)  ---------------------------------------


    POTLOK:  cpu time    0.0901: real time    0.0903
    SETDIJ:  cpu time    0.0137: real time    0.0137
     EDDAV:  cpu time    0.9695: real time    0.9718
    CHARGE:  cpu time    0.0788: real time    0.0790
    MIXING:  cpu time    0.0037: real time    0.0038
    --------------------------------------------
      LOOP:  cpu time    1.1558: real time    1.1585

 eigenvalue-minimisations  :   960
 total energy-change (2. order) :-0.2053326E+01  (-0.8046827E+00)
 number of electron     275.9999859 magnetization       8.9185255
 augmentation part       91.0596356 magnetization       7.4061253

 Broyden mixing:
  rms(total) = 0.19695E+01    rms(broyden)= 0.19691E+01
  rms(prec ) = 0.21720E+01
  weight for this iteration     100.00

 eigenvalues of (default mixing * dielectric matrix)
  average eigenvalue GAMMA=   0.4805
  1.2891  1.2891  0.9590  0.4622  0.4622  0.3731  0.3731  0.3906  0.2883  0.2883
  0.1905  0.1323  0.1323  0.0963

 Free energy of the ion-electron system (eV)
  ---------------------------------------------------
  alpha Z        PSCENC =       867.81591257
  Ewald energy   TEWEN  =    -16372.34897671
  -Hartree energ DENC   =     -8138.22283492
  -exchange      EXHF   =         0.00000000
  -V(xc)+E(xc)   XCENC  =      1112.96269226
  PAW double counting   =     26528.00031137   -27464.42608831
  entropy T*S    EENTRO =        -0.00715066
  eigenvalues    EBANDS =      -846.89521019
  atomic energy  EATOM  =     24064.32362750
  Solvation  Ediel_sol  =         0.00000000
  ---------------------------------------------------
  free energy    TOTEN  =      -248.79771709 eV

  energy without entropy =     -248.79056643  energy(sigma->0) =     -248.79414176


--------------------------------------------------------------------------------------------------------




--------------------------------------- Iteration      1(  20)  ---------------------------------------


    POTLOK:  cpu time    0.0894: real time    0.0896
    SETDIJ:  cpu time    0.0137: real time    0.0138
     EDDAV:  cpu time    0.9818: real time    0.9841
    CHARGE:  cpu time    0.0781: real time    0.0783
    MIXING:  cpu time    0.0039: real time    0.0039
    --------------------------------------------
      LOOP:  cpu time    1.1670: real time    1.1698

 eigenvalue-minimisations  :   976
 total energy-change (2. order) :-0.3180016E+00  (-0.1400312E+00)
 number of electron     275.9999859 magnetization       8.5775871
 augmentation part       91.0179250 magnetization       7.2081431

 Broyden mixing:
  rms(total) = 0.17162E+01    rms(broyden)= 0.17162E+01
  rms(prec ) = 0.19388E+01
  weight for this iteration     100.00

 eigenvalues of (default mixing * dielectric matrix)
  average eigenvalue GAMMA=   0.4933
  1.3261  1.3261  0.9101  0.5062  0.5062  0.4612  0.4612  0.4308  0.3434  0.3434
  0.2346  0.1886  0.1323  0.1323  0.0963

 Free energy of the ion-electron system (eV)
  ---------------------------------------------------
  alpha Z        PSCENC =       867.81591257
  Ewald energy   TEWEN  =    -16372.34897671
  -Hartree energ DENC   =     -8138.11384540
  -exchange      EXHF   =         0.00000000
  -V(xc)+E(xc)   XCENC  =      1112.77704169
  PAW double counting   =     26556.86467661   -27493.27915522
  entropy T*S    EENTRO =        -0.01836518
  eigenvalues    EBANDS =      -847.13663458
  atomic energy  EATOM  =     24064.32362750
  Solvation  Ediel_sol  =         0.00000000
  ---------------------------------------------------
  free energy    TOTEN  =      -249.11571873 eV

  energy without entropy =     -249.09735355  energy(sigma->0) =     -249.10653614


--------------------------------------------------------------------------------------------------------




--------------------------------------- Iteration      1(  21)  ---------------------------------------


    POTLOK:  cpu time    0.0896: real time    0.0898
    SETDIJ:  cpu time    0.0137: real time    0.0138
     EDDAV:  cpu time    1.0578: real time    1.0603
    CHARGE:  cpu time    0.0782: real time    0.0784
    MIXING:  cpu time    0.0040: real time    0.0040
    --------------------------------------------
      LOOP:  cpu time    1.2433: real time    1.2462

 eigenvalue-minimisations  :  1072
 total energy-change (2. order) : 0.1146277E-01  (-0.1644123E+00)
 number of electron     275.9999859 magnetization       8.0707869
 augmentation part       91.0551915 magnetization       6.6921736

 Broyden mixing:
  rms(total) = 0.16249E+01    rms(broyden)= 0.16248E+01
  rms(prec ) = 0.17140E+01
  weight for this iteration     100.00

 eigenvalues of (default mixing * dielectric matrix)
  average eigenvalue GAMMA=   0.4820
  1.2606  1.2606  1.0701  0.5195  0.5195  0.4590  0.4590  0.3616  0.3616  0.3305
  0.3305  0.2322  0.1871  0.1323  0.1323  0.0963

 Free energy of the ion-electron system (eV)
  ---------------------------------------------------
  alpha Z        PSCENC =       867.81591257
  Ewald energy   TEWEN  =    -16372.34897671
  -Hartree energ DENC   =     -8136.71385808
  -exchange      EXHF   =         0.00000000
  -V(xc)+E(xc)   XCENC  =      1112.54896443
  PAW double counting   =     26566.44197968   -27502.30418882
  entropy T*S    EENTRO =        -0.00486190
  eigenvalues    EBANDS =      -848.86285463
  atomic energy  EATOM  =     24064.32362750
  Solvation  Ediel_sol  =         0.00000000
  ---------------------------------------------------
  free energy    TOTEN  =      -249.10425595 eV

  energy without entropy =     -249.09939406  energy(sigma->0) =     -249.10182501


--------------------------------------------------------------------------------------------------------




--------------------------------------- Iteration      1(  22)  ---------------------------------------


    POTLOK:  cpu time    0.0893: real time    0.0895
    SETDIJ:  cpu time    0.0138: real time    0.0139
     EDDAV:  cpu time    0.9813: real time    0.9837
    CHARGE:  cpu time    0.0781: real time    0.0783
    MIXING:  cpu time    0.0042: real time    0.0042
    --------------------------------------------
      LOOP:  cpu time    1.1667: real time    1.1695

 eigenvalue-minimisations  :   976
 total energy-change (2. order) :-0.2591327E+00  (-0.2183794E-01)
 number of electron     275.9999859 magnetization       7.0620342
 augmentation part       91.1012303 magnetization       5.6993993

 Broyden mixing:
  rms(total) = 0.15336E+01    rms(broyden)= 0.15336E+01
  rms(prec ) = 0.16316E+01
  weight for this iteration     100.00

 eigenvalues of (default mixing * dielectric matrix)
  average eigenvalue GAMMA=   0.5203
  1.4902  1.0936  1.0936  0.7367  0.7367  0.4330  0.4330  0.4675  0.4675  0.3989
  0.3550  0.3550  0.2350  0.1884  0.1323  0.1323  0.0963

 Free energy of the ion-electron system (eV)
  ---------------------------------------------------
  alpha Z        PSCENC =       867.81591257
  Ewald energy   TEWEN  =    -16372.34897671
  -Hartree energ DENC   =     -8135.61198760
  -exchange      EXHF   =         0.00000000
  -V(xc)+E(xc)   XCENC  =      1112.44733178
  PAW double counting   =     26619.51782034   -27555.62149443
  entropy T*S    EENTRO =        -0.00872702
  eigenvalues    EBANDS =      -849.87689509
  atomic energy  EATOM  =     24064.32362750
  Solvation  Ediel_sol  =         0.00000000
  ---------------------------------------------------
  free energy    TOTEN  =      -249.36338866 eV

  energy without entropy =     -249.35466164  energy(sigma->0) =     -249.35902515


--------------------------------------------------------------------------------------------------------




--------------------------------------- Iteration      1(  23)  ---------------------------------------


    POTLOK:  cpu time    0.0894: real time    0.0896
    SETDIJ:  cpu time    0.0136: real time    0.0136
     EDDAV:  cpu time    1.0841: real time    1.0866
    CHARGE:  cpu time    0.0781: real time    0.0783
    MIXING:  cpu time    0.0043: real time    0.0043
    --------------------------------------------
      LOOP:  cpu time    1.2695: real time    1.2725

 eigenvalue-minimisations  :  1104
 total energy-change (2. order) :-0.1541442E+00  (-0.1179637E+00)
 number of electron     275.9999859 magnetization       7.0987424
 augmentation part       91.2281729 magnetization       5.7009079

 Broyden mixing:
  rms(total) = 0.15110E+01    rms(broyden)= 0.15108E+01
  rms(prec ) = 0.17320E+01
  weight for this iteration     100.00

 eigenvalues of (default mixing * dielectric matrix)
  average eigenvalue GAMMA=   0.4946
  1.4582  1.0993  1.0993  0.7550  0.7550  0.4294  0.4294  0.4619  0.4619  0.4050
  0.3511  0.3511  0.2347  0.1884  0.1323  0.1323  0.0963  0.0614

 Free energy of the ion-electron system (eV)
  ---------------------------------------------------
  alpha Z        PSCENC =       867.81591257
  Ewald energy   TEWEN  =    -16372.34897671
  -Hartree energ DENC   =     -8133.01623216
  -exchange      EXHF   =         0.00000000
  -V(xc)+E(xc)   XCENC  =      1112.26695136
  PAW double counting   =     26718.30877388   -27655.39595375
  entropy T*S    EENTRO =        -0.04985583
  eigenvalues    EBANDS =      -851.42177973
  atomic energy  EATOM  =     24064.32362750
  Solvation  Ediel_sol  =         0.00000000
  ---------------------------------------------------
  free energy    TOTEN  =      -249.51753287 eV

  energy without entropy =     -249.46767704  energy(sigma->0) =     -249.49260496


--------------------------------------------------------------------------------------------------------




--------------------------------------- Iteration      1(  24)  ---------------------------------------


    POTLOK:  cpu time    0.0895: real time    0.0898
    SETDIJ:  cpu time    0.0137: real time    0.0137
     EDDAV:  cpu time    1.0062: real time    1.0086
    CHARGE:  cpu time    0.0785: real time    0.0787
    MIXING:  cpu time    0.0043: real time    0.0043
    --------------------------------------------
      LOOP:  cpu time    1.1922: real time    1.1951

 eigenvalue-minimisations  :  1008
 total energy-change (2. order) : 0.2167673E-01  (-0.8736349E-02)
 number of electron     275.9999859 magnetization       7.0799189
 augmentation part       91.1940280 magnetization       5.6931087

 Broyden mixing:
  rms(total) = 0.15294E+01    rms(broyden)= 0.15294E+01
  rms(prec ) = 0.17462E+01
  weight for this iteration     100.00

 eigenvalues of (default mixing * dielectric matrix)
  average eigenvalue GAMMA=   0.4883
  1.4704  1.1062  1.1062  0.7491  0.7491  0.4286  0.4286  0.4626  0.4626  0.4051
  0.3558  0.3558  0.2354  0.1884  0.1323  0.1323  0.0963  0.2063  0.2063

 Free energy of the ion-electron system (eV)
  ---------------------------------------------------
  alpha Z        PSCENC =       867.81591257
  Ewald energy   TEWEN  =    -16372.34897671
  -Hartree energ DENC   =     -8133.33241418
  -exchange      EXHF   =         0.00000000
  -V(xc)+E(xc)   XCENC  =      1112.26646778
  PAW double counting   =     26711.07104651   -27648.15230999
  entropy T*S    EENTRO =        -0.04430118
  eigenvalues    EBANDS =      -851.09490844
  atomic energy  EATOM  =     24064.32362750
  Solvation  Ediel_sol  =         0.00000000
  ---------------------------------------------------
  free energy    TOTEN  =      -249.49585614 eV

  energy without entropy =     -249.45155496  energy(sigma->0) =     -249.47370555


--------------------------------------------------------------------------------------------------------




--------------------------------------- Iteration      1(  25)  ---------------------------------------


    POTLOK:  cpu time    0.0892: real time    0.0894
    SETDIJ:  cpu time    0.0136: real time    0.0136
     EDDAV:  cpu time    1.0582: real time    1.0607
    CHARGE:  cpu time    0.0784: real time    0.0786
    MIXING:  cpu time    0.0047: real time    0.0047
    --------------------------------------------
      LOOP:  cpu time    1.2442: real time    1.2471

 eigenvalue-minimisations  :  1072
 total energy-change (2. order) :-0.1542844E-01  (-0.2884486E-02)
 number of electron     275.9999859 magnetization       7.0178487
 augmentation part       91.1851022 magnetization       5.6324546

 Broyden mixing:
  rms(total) = 0.16387E+01    rms(broyden)= 0.16387E+01
  rms(prec ) = 0.18707E+01
  weight for this iteration     100.00

 eigenvalues of (default mixing * dielectric matrix)
  average eigenvalue GAMMA=   0.5213
  1.4666  1.0675  1.0675  0.8760  0.8760  0.5421  0.5134  0.5134  0.4277  0.4277
  0.3778  0.3778  0.3947  0.3561  0.3561  0.2358  0.1884  0.1323  0.1323  0.0963

 Free energy of the ion-electron system (eV)
  ---------------------------------------------------
  alpha Z        PSCENC =       867.81591257
  Ewald energy   TEWEN  =    -16372.34897671
  -Hartree energ DENC   =     -8133.18659158
  -exchange      EXHF   =         0.00000000
  -V(xc)+E(xc)   XCENC  =      1112.24939673
  PAW double counting   =     26711.47307136   -27648.50535691
  entropy T*S    EENTRO =        -0.03862405
  eigenvalues    EBANDS =      -851.29374350
  atomic energy  EATOM  =     24064.32362750
  Solvation  Ediel_sol  =         0.00000000
  ---------------------------------------------------
  free energy    TOTEN  =      -249.51128458 eV

  energy without entropy =     -249.47266053  energy(sigma->0) =     -249.49197256


--------------------------------------------------------------------------------------------------------




--------------------------------------- Iteration      1(  26)  ---------------------------------------


    POTLOK:  cpu time    0.0893: real time    0.0895
    SETDIJ:  cpu time    0.0137: real time    0.0137
     EDDAV:  cpu time    1.0827: real time    1.0853
    CHARGE:  cpu time    0.0790: real time    0.0792
    MIXING:  cpu time    0.0048: real time    0.0048
    --------------------------------------------
      LOOP:  cpu time    1.2695: real time    1.2725

 eigenvalue-minimisations  :  1104
 total energy-change (2. order) : 0.6293608E-02  (-0.1109812E-02)
 number of electron     275.9999859 magnetization       7.0966026
 augmentation part       91.1754898 magnetization       5.7207274

 Broyden mixing:
  rms(total) = 0.16175E+01    rms(broyden)= 0.16175E+01
  rms(prec ) = 0.18456E+01
  weight for this iteration     100.00

 eigenvalues of (default mixing * dielectric matrix)
  average eigenvalue GAMMA=   0.5316
  1.4934  1.0921  1.0921  0.6386  0.6386  0.8046  0.8046  0.4498  0.4498  0.5037
  0.5037  0.3901  0.3901  0.4020  0.3625  0.3625  0.2360  0.1884  0.1323  0.1323
  0.0963

 Free energy of the ion-electron system (eV)
  ---------------------------------------------------
  alpha Z        PSCENC =       867.81591257
  Ewald energy   TEWEN  =    -16372.34897671
  -Hartree energ DENC   =     -8133.31730227
  -exchange      EXHF   =         0.00000000
  -V(xc)+E(xc)   XCENC  =      1112.24353280
  PAW double counting   =     26713.02169094   -27650.16052746
  entropy T*S    EENTRO =        -0.04389345
  eigenvalues    EBANDS =      -851.03905490
  atomic energy  EATOM  =     24064.32362750
  Solvation  Ediel_sol  =         0.00000000
  ---------------------------------------------------
  free energy    TOTEN  =      -249.50499097 eV

  energy without entropy =     -249.46109753  energy(sigma->0) =     -249.48304425


--------------------------------------------------------------------------------------------------------




--------------------------------------- Iteration      1(  27)  ---------------------------------------


    POTLOK:  cpu time    0.0901: real time    0.0903
    SETDIJ:  cpu time    0.0136: real time    0.0136
     EDDAV:  cpu time    1.0952: real time    1.0978
    CHARGE:  cpu time    0.0793: real time    0.0795
    MIXING:  cpu time    0.0047: real time    0.0047
    --------------------------------------------
      LOOP:  cpu time    1.2829: real time    1.2859

 eigenvalue-minimisations  :  1120
 total energy-change (2. order) : 0.6924699E-02  (-0.1193755E-02)
 number of electron     275.9999859 magnetization       6.9042144
 augmentation part       91.1707872 magnetization       5.5308687

 Broyden mixing:
  rms(total) = 0.16016E+01    rms(broyden)= 0.16016E+01
  rms(prec ) = 0.18296E+01
  weight for this iteration     100.00

 eigenvalues of (default mixing * dielectric matrix)
  average eigenvalue GAMMA=   0.5579
  1.5115  1.0964  1.0747  1.0747  0.8171  0.8171  0.6139  0.6139  0.4648  0.4648
  0.4865  0.4865  0.4064  0.4064  0.4132  0.3703  0.3703  0.2360  0.1884  0.1323
  0.1323  0.0963

 Free energy of the ion-electron system (eV)
  ---------------------------------------------------
  alpha Z        PSCENC =       867.81591257
  Ewald energy   TEWEN  =    -16372.34897671
  -Hartree energ DENC   =     -8133.40303958
  -exchange      EXHF   =         0.00000000
  -V(xc)+E(xc)   XCENC  =      1112.25967414
  PAW double counting   =     26710.24384946   -27647.44151383
  entropy T*S    EENTRO =        -0.04151622
  eigenvalues    EBANDS =      -850.90608361
  atomic energy  EATOM  =     24064.32362750
  Solvation  Ediel_sol  =         0.00000000
  ---------------------------------------------------
  free energy    TOTEN  =      -249.49806627 eV

  energy without entropy =     -249.45655006  energy(sigma->0) =     -249.47730816


--------------------------------------------------------------------------------------------------------




--------------------------------------- Iteration      1(  28)  ---------------------------------------


    POTLOK:  cpu time    0.0897: real time    0.0899
    SETDIJ:  cpu time    0.0139: real time    0.0139
     EDDAV:  cpu time    1.0689: real time    1.0714
    CHARGE:  cpu time    0.0783: real time    0.0785
    MIXING:  cpu time    0.0051: real time    0.0051
    --------------------------------------------
      LOOP:  cpu time    1.2559: real time    1.2588

 eigenvalue-minimisations  :  1088
 total energy-change (2. order) :-0.6124396E-03  (-0.3200347E-02)
 number of electron     275.9999859 magnetization       6.8894605
 augmentation part       91.1772982 magnetization       5.5066206

 Broyden mixing:
  rms(total) = 0.17165E+01    rms(broyden)= 0.17165E+01
  rms(prec ) = 0.19454E+01
  weight for this iteration     100.00

 eigenvalues of (default mixing * dielectric matrix)
  average eigenvalue GAMMA=   0.5810
  1.4887  0.8893  0.8893  1.0306  1.0306  1.0541  1.0541  0.5849  0.5849  0.4979
  0.4979  0.4116  0.4116  0.4847  0.4847  0.4292  0.3764  0.3764  0.2360  0.1884
  0.1323  0.1323  0.0963

 Free energy of the ion-electron system (eV)
  ---------------------------------------------------
  alpha Z        PSCENC =       867.81591257
  Ewald energy   TEWEN  =    -16372.34897671
  -Hartree energ DENC   =     -8133.12881974
  -exchange      EXHF   =         0.00000000
  -V(xc)+E(xc)   XCENC  =      1112.24430691
  PAW double counting   =     26725.42375200   -27662.73301957
  entropy T*S    EENTRO =        -0.03956415
  eigenvalues    EBANDS =      -851.05589753
  atomic energy  EATOM  =     24064.32362750
  Solvation  Ediel_sol  =         0.00000000
  ---------------------------------------------------
  free energy    TOTEN  =      -249.49867871 eV

  energy without entropy =     -249.45911456  energy(sigma->0) =     -249.47889664


[...]
    185      17.4090      0.00000
    186      17.4486      0.00000
    187      17.4486      0.00000
    188      17.6513      0.00000
    189      17.6513      0.00000
    190      17.7189      0.00000
    191      17.9451      0.00000
    192      17.9461      0.00000


--------------------------------------------------------------------------------------------------------


 soft charge-density along one line, spin component           1
         0         1         2         3         4         5         6         7         8         9
 total charge-density along one line
 
 soft charge-density along one line, spin component           2
         0         1         2         3         4         5         6         7         8         9
 total charge-density along one line
 
 pseudopotential strength for first ion, spin component:           1
-36.824   3.909  -0.000   0.000  -0.000
  3.909 -10.429  -0.002   0.002  -0.002
 -0.000  -0.002   0.065  -0.000   0.000
  0.000   0.002  -0.000   0.065  -0.000
 -0.000  -0.002   0.000  -0.000   0.065
 pseudopotential strength for first ion, spin component:           2
-36.822   3.910  -0.000   0.000  -0.000
  3.910 -10.430  -0.002   0.002  -0.002
 -0.000  -0.002   0.068  -0.000   0.000
  0.000   0.002  -0.000   0.068  -0.000
 -0.000  -0.002   0.000  -0.000   0.068
 total augmentation occupancy for first ion, spin component:           1
  2.004   0.032   0.001  -0.001   0.001
  0.032   0.756  -0.003   0.003  -0.003
  0.001  -0.003   0.030   0.003  -0.003
 -0.001   0.003   0.003   0.030   0.003
  0.001  -0.003  -0.003   0.003   0.030
 total augmentation occupancy for first ion, spin component:           2
 -0.000  -0.000   0.000  -0.000   0.000
 -0.000   0.015   0.002  -0.002   0.002
  0.000   0.002   0.000  -0.000   0.000
 -0.000  -0.002  -0.000   0.000  -0.000
  0.000   0.002   0.000  -0.000   0.000


------------------------ aborting loop because EDIFF is reached ----------------------------------------


    CHARGE:  cpu time    0.0907: real time    0.0910
    FORLOC:  cpu time    0.0151: real time    0.0151
    FORNL :  cpu time    0.4226: real time    0.4236
    STRESS:  cpu time    1.1709: real time    1.1736
    FORCOR:  cpu time    0.1260: real time    0.1263
    FORHAR:  cpu time    0.0332: real time    0.0333
    MIXING:  cpu time    0.0032: real time    0.0032
    OFIELD:  cpu time    0.0000: real time    0.0000

  FORCE on cell =-STRESS in cart. coord.  units (eV):
  Direction    XX          YY          ZZ          XY          YZ          ZX
  --------------------------------------------------------------------------------------
  Alpha Z   868.75636   868.75636   868.75636
  Ewald   -5461.29539 -5461.29538 -5461.29539  -130.87649   130.87649   130.87651
  Hartree  2707.49435  2707.49434  2707.49435   -68.10668    68.10668    68.10669
  E(xc)   -1406.64958 -1406.64955 -1406.64958    -0.11286     0.11286     0.11282
  Local   -2586.18885 -2586.18792 -2586.18885   186.98381  -186.98381  -186.98478
  n-local  -671.29209  -671.29205  -671.29212    -1.74452     1.74454     1.74454
  augment  2324.86000  2324.85952  2324.86000     6.02424    -6.02424    -6.02375
  Kinetic  4224.46867  4224.46870  4224.46869     7.81692    -7.81692    -7.81701
  Fock        0.00000     0.00000     0.00000     0.00000     0.00000     0.00000
  -------------------------------------------------------------------------------------
  Total        0.1536588      0.1536588      0.1536588     -0.0154044      0.0154044      0.0154044
  in kB        0.6465727      0.6465727      0.6465727     -0.0648195      0.0648195      0.0648195
  external PRESSURE =       0.6465727 kB  Pullay stress =       0.0000000 kB


 VOLUME and BASIS-vectors are now :
 -----------------------------------------------------------------------------
  energy-cutoff  :      500.00
  volume of cell :      380.76
      direct lattice vectors                 reciprocal lattice vectors
     0.000000000  4.030659285  4.030659285     0.082699457  0.082699457  0.165398914
     4.030659285 -4.030659285 -0.000000000     0.165398914 -0.082699457  0.082699457
     7.812266812  7.812266812 -7.812266812     0.042667940  0.042667940 -0.042667940

  length of vectors
     5.700213026  5.700213026 13.531243041     0.202571471  0.202571471  0.073903040


 FORCES acting on ions
    electron-ion (+dipol)            ewald-force                    non-local-force                 convergence-correction
 -----------------------------------------------------------------------------------------------
   -.291E+01 -.291E+01 0.291E+01   0.277E+01 0.277E+01 -.277E+01   0.144E+00 0.144E+00 -.144E+00   -.332E-02 -.332E-02 0.332E-02
   -.127E+01 -.127E+01 0.127E+01   0.161E+01 0.161E+01 -.161E+01   -.362E+00 -.362E+00 0.362E+00   0.197E-01 0.197E-01 -.197E-01
   0.294E+01 0.294E+01 -.294E+01   -.268E+01 -.268E+01 0.268E+01   -.249E+00 -.249E+00 0.249E+00   -.152E-01 -.152E-01 0.152E-01
   -.380E+00 -.380E+00 0.380E+00   0.245E+00 0.245E+00 -.245E+00   0.142E+00 0.142E+00 -.142E+00   0.105E-02 0.105E-02 -.105E-02
   -.824E+01 -.824E+01 -.193E+01   0.876E+01 0.876E+01 0.224E+01   -.454E+00 -.454E+00 -.312E+00   -.607E-01 -.607E-01 0.138E-01
   0.114E+02 0.114E+02 -.274E+02   -.113E+02 -.113E+02 0.280E+02   -.108E+00 -.108E+00 -.568E+00   -.117E-01 -.117E-01 0.240E-01
   -.153E+02 -.153E+02 0.175E+02   0.152E+02 0.152E+02 -.177E+02   0.538E-01 0.538E-01 0.199E+00   0.668E-01 0.668E-01 -.496E-01
   -.824E+01 0.193E+01 0.824E+01   0.876E+01 -.224E+01 -.876E+01   -.454E+00 0.312E+00 0.454E+00   -.607E-01 -.138E-01 0.607E-01
   0.114E+02 0.274E+02 -.114E+02   -.113E+02 -.280E+02 0.113E+02   -.108E+00 0.568E+00 0.108E+00   -.117E-01 -.240E-01 0.117E-01
   -.153E+02 -.175E+02 0.153E+02   0.152E+02 0.177E+02 -.152E+02   0.538E-01 -.199E+00 -.538E-01   0.668E-01 0.496E-01 -.668E-01
   0.193E+01 -.824E+01 0.824E+01   -.224E+01 0.876E+01 -.876E+01   0.312E+00 -.454E+00 0.454E+00   -.138E-01 -.607E-01 0.607E-01
   0.274E+02 0.114E+02 -.114E+02   -.280E+02 -.113E+02 0.113E+02   0.568E+00 -.108E+00 0.108E+00   -.240E-01 -.117E-01 0.117E-01
   -.175E+02 -.153E+02 0.153E+02   0.177E+02 0.152E+02 -.152E+02   -.199E+00 0.538E-01 -.538E-01   0.496E-01 0.668E-01 -.668E-01
   0.187E+02 0.187E+02 -.187E+02   -.191E+02 -.191E+02 0.191E+02   0.499E+00 0.499E+00 -.499E+00   -.504E-01 -.504E-01 0.504E-01
   -.770E+01 -.770E+01 0.770E+01   0.827E+01 0.827E+01 -.827E+01   -.555E+00 -.555E+00 0.555E+00   -.786E-02 -.786E-02 0.786E-02
   -.160E+01 -.160E+01 0.160E+01   0.107E+01 0.107E+01 -.107E+01   0.473E+00 0.473E+00 -.473E+00   0.632E-01 0.632E-01 -.632E-01
   0.221E+03 0.221E+03 0.204E+03   -.236E+03 -.236E+03 -.219E+03   0.149E+02 0.149E+02 0.154E+02   -.152E-01 -.152E-01 -.303E-01
   0.175E+03 0.175E+03 0.181E+03   -.184E+03 -.184E+03 -.188E+03   0.828E+01 0.828E+01 0.715E+01   0.438E-03 0.438E-03 -.341E-01
   0.206E+03 0.206E+03 0.222E+03   -.221E+03 -.221E+03 -.238E+03   0.147E+02 0.147E+02 0.156E+02   0.317E-01 0.317E-01 0.441E-02
   0.221E+03 -.204E+03 -.221E+03   -.236E+03 0.219E+03 0.236E+03   0.149E+02 -.154E+02 -.149E+02   -.152E-01 0.303E-01 0.152E-01
   0.175E+03 -.181E+03 -.175E+03   -.184E+03 0.188E+03 0.184E+03   0.828E+01 -.715E+01 -.828E+01   0.438E-03 0.341E-01 -.438E-03
   0.206E+03 -.222E+03 -.206E+03   -.221E+03 0.238E+03 0.221E+03   0.147E+02 -.156E+02 -.147E+02   0.317E-01 -.441E-02 -.317E-01
   -.204E+03 0.221E+03 -.221E+03   0.219E+03 -.236E+03 0.236E+03   -.154E+02 0.149E+02 -.149E+02   0.303E-01 -.152E-01 0.152E-01
   -.181E+03 0.175E+03 -.175E+03   0.188E+03 -.184E+03 0.184E+03   -.715E+01 0.828E+01 -.828E+01   0.341E-01 0.438E-03 -.438E-03
   -.222E+03 0.206E+03 -.206E+03   0.238E+03 -.221E+03 0.221E+03   -.156E+02 0.147E+02 -.147E+02   -.441E-02 0.317E-01 -.317E-01
   -.212E+03 -.212E+03 0.212E+03   0.224E+03 0.224E+03 -.224E+03   -.127E+02 -.127E+02 0.127E+02   -.491E-01 -.491E-01 0.491E-01
   -.182E+03 -.182E+03 0.182E+03   0.189E+03 0.189E+03 -.189E+03   -.710E+01 -.710E+01 0.710E+01   -.645E-02 -.645E-02 0.645E-02
   -.217E+03 -.217E+03 0.217E+03   0.230E+03 0.230E+03 -.230E+03   -.129E+02 -.129E+02 0.129E+02   0.455E-01 0.455E-01 -.455E-01
   -.179E+03 -.179E+03 -.188E+03   0.189E+03 0.189E+03 0.197E+03   -.947E+01 -.947E+01 -.944E+01   -.471E-01 -.471E-01 0.794E-01
   -.177E+03 -.177E+03 -.188E+03   0.186E+03 0.186E+03 0.198E+03   -.958E+01 -.958E+01 -.101E+02   -.145E-01 -.145E-01 0.272E-01
   -.188E+03 -.188E+03 -.175E+03   0.197E+03 0.197E+03 0.185E+03   -.917E+01 -.917E+01 -.976E+01   0.453E-01 0.453E-01 -.490E-01
   -.179E+03 0.188E+03 0.179E+03   0.189E+03 -.197E+03 -.189E+03   -.947E+01 0.944E+01 0.947E+01   -.471E-01 -.794E-01 0.471E-01
   -.177E+03 0.188E+03 0.177E+03   0.186E+03 -.198E+03 -.186E+03   -.958E+01 0.101E+02 0.958E+01   -.145E-01 -.272E-01 0.145E-01
   -.188E+03 0.175E+03 0.188E+03   0.197E+03 -.185E+03 -.197E+03   -.917E+01 0.976E+01 0.917E+01   0.453E-01 0.490E-01 -.453E-01
   0.188E+03 -.179E+03 0.179E+03   -.197E+03 0.189E+03 -.189E+03   0.944E+01 -.947E+01 0.947E+01   -.794E-01 -.471E-01 0.471E-01
   0.188E+03 -.177E+03 0.177E+03   -.198E+03 0.186E+03 -.186E+03   0.101E+02 -.958E+01 0.958E+01   -.272E-01 -.145E-01 0.145E-01
   0.175E+03 -.188E+03 0.188E+03   -.185E+03 0.197E+03 -.197E+03   0.976E+01 -.917E+01 0.917E+01   0.490E-01 0.453E-01 -.453E-01
   0.179E+03 0.179E+03 -.179E+03   -.186E+03 -.186E+03 0.186E+03   0.758E+01 0.758E+01 -.758E+01   0.147E-01 0.147E-01 -.147E-01
   0.194E+03 0.194E+03 -.194E+03   -.201E+03 -.201E+03 0.201E+03   0.728E+01 0.728E+01 -.728E+01   -.152E-01 -.152E-01 0.152E-01
   0.180E+03 0.180E+03 -.180E+03   -.188E+03 -.188E+03 0.188E+03   0.819E+01 0.819E+01 -.819E+01   0.847E-02 0.847E-02 -.847E-02
 -----------------------------------------------------------------------------------------------
   -.706E+00 -.706E+00 0.706E+00   0.568E-13 -.114E-12 -.568E-13   0.704E+00 0.704E+00 -.704E+00   0.990E-02 0.990E-02 -.990E-02
 
 
 POSITION                                       TOTAL-FORCE (eV/Angst)
 -----------------------------------------------------------------------------------
      2.94067     -1.08998     -0.92534        -0.004399     -0.004399      0.004399
      6.94702      2.91636     -0.90103        -0.003499     -0.003499      0.003499
      6.81363      6.81363     -4.79830        -0.003757     -0.003757      0.003757
      5.02441      0.99375      1.02158         0.008173      0.008173     -0.008173
      7.89320      3.86254     -3.87474        -0.001804     -0.001804      0.007125
     11.82922      7.79856     -3.77477         0.001572      0.001572      0.005131
      3.95740      3.95740      0.06680         0.002453      0.002453     -0.005405
      7.89320      5.89007     -1.84721        -0.001804     -0.007125      0.001804
     11.82922      5.79010     -5.78323         0.001572     -0.005131     -0.001572
      3.95740      1.94853     -1.94207         0.002453      0.005405     -0.002453
      5.89007      7.89320     -1.84721        -0.007125     -0.001804      0.001804
      9.82076      7.79856     -5.78323        -0.005131      0.001572     -0.001572
      5.97918     -0.07326     -1.94207         0.005405      0.002453     -0.002453
      9.87980      5.84914     -3.83381        -0.004720     -0.004720      0.004720
      1.95310      1.95310      0.06223         0.005266      0.005266     -0.005266
      5.93967      1.90901     -3.92434         0.000533      0.000533     -0.000533
      9.98430      5.95364     -5.70664        -0.000432     -0.000432     -0.005900
      2.07913      2.07913     -1.83736         0.009929      0.009929     -0.011875
      6.03717      6.03717     -1.75699        -0.004590     -0.004590      0.002395
      9.98430      7.72197     -3.93831        -0.000432      0.005900      0.000432
      2.07913      3.85269     -0.06380         0.009929      0.011875     -0.009929
      6.03717      3.77232     -4.02184        -0.004590     -0.002395      0.004590
      7.72197      9.98430     -3.93831         0.005900     -0.000432      0.000432
      3.85269      2.07913     -0.06380         0.011875      0.009929     -0.009929
      7.80298      2.00651     -4.02184        -0.002395     -0.004590      0.004590
      7.74411      3.71345     -5.72878        -0.003162     -0.003162      0.003162
      3.88689     -0.14377      2.15910         0.002335      0.002335     -0.002335
      3.79512      3.79512     -1.77979         0.010482      0.010482     -0.010482
      9.76211      5.73145     -1.94504        -0.002941     -0.002941      0.005478
      1.84719      1.84719      1.95771        -0.000990     -0.000990      0.004083
      5.84007      1.80942     -2.04423        -0.000774     -0.000774      0.006900
      9.76211      3.96037     -3.71612        -0.002941     -0.005478      0.002941
      1.84719      0.05762      0.16814        -0.000990     -0.004083      0.000990
      5.84007      4.05956      0.20591        -0.000774     -0.006900      0.000774
      7.99103      5.73145     -3.71612        -0.005478     -0.002941      0.002941
      4.08828     -2.18347      0.16814        -0.004083     -0.000990      0.000990
      4.05956      5.84007      0.20591        -0.006900     -0.000774      0.000774
      8.05115      4.02049     -2.00516        -0.000908     -0.000908      0.000908
      7.94145      7.94145     -5.92612        -0.001448     -0.001448      0.001448
      4.11290      0.08224     -2.09757        -0.001811     -0.001811      0.001811
 -----------------------------------------------------------------------------------
    total drift:                                0.007785      0.007899     -0.007782


--------------------------------------------------------------------------------------------------------



  FREE ENERGIE OF THE ION-ELECTRON SYSTEM (eV)
  ---------------------------------------------------
  free  energy   TOTEN  =      -249.4050794299 eV

  energy  without entropy=     -249.3749922167  energy(sigma->0) =     -249.39003582
 
 d Force = 0.1835992E-03[ 0.156E-03, 0.211E-03]  d Energy = 0.1315719E-03 0.520E-04
 d Force =-0.1795899E+00[-0.183E+00,-0.177E+00]  d Ewald  = 0.1032268E+00-0.283E+00


--------------------------------------------------------------------------------------------------------


    POTLOK:  cpu time    0.1317: real time    0.1320


--------------------------------------------------------------------------------------------------------


 Quasi-Newton relaxation of ions (Broydens 2nd method)
  g(Force)  = 0.139E-03   g(Stress)= 0.871E-04

 retain information from N=  2 steps
 eigenvalues of (default step * inverse Hessian matrix)
  average eigenvalue of G=   1.5646
 eigenvalue spectrum of G is  0.7782  2.3511


--------------------------------------------------------------------------------------------------------


  
 reached required accuracy - stopping structural energy minimisation
     LOOP+:  cpu time   14.1493: real time   14.5385
    4ORBIT:  cpu time    0.0000: real time    0.0000

volume of typ            1:     8.2 %

volume of typ            2:    20.1 %

volume of typ            3:    10.3 %
 
total charge     
 
# of ion       s       p       d       tot
------------------------------------------
    1        2.098   0.303   0.112   2.513
    2        2.103   0.322   0.120   2.546
    3        2.100   0.315   0.118   2.533
    4        2.102   0.323   0.118   2.543
    5        0.289   0.403   7.841   8.532
    6        0.289   0.406   7.843   8.538
    7        0.281   0.390   7.849   8.519
    8        0.289   0.403   7.841   8.532
    9        0.289   0.406   7.843   8.538
   10        0.281   0.390   7.849   8.519
   11        0.289   0.403   7.841   8.532
   12        0.289   0.406   7.843   8.538
   13        0.281   0.390   7.849   8.519
   14        0.284   0.388   7.846   8.518
   15        0.271   0.364   7.857   8.492
   16        0.289   0.402   7.833   8.525
   17        1.279   2.736   0.008   4.023
   18        1.262   2.785   0.006   4.054
   19        1.279   2.733   0.008   4.020
   20        1.279   2.736   0.008   4.023
   21        1.262   2.785   0.006   4.054
   22        1.279   2.733   0.008   4.020
   23        1.279   2.736   0.008   4.023
   24        1.262   2.785   0.006   4.054
   25        1.279   2.733   0.008   4.020
   26        1.282   2.730   0.008   4.020
   27        1.270   2.772   0.007   4.049
   28        1.281   2.731   0.008   4.020
   29        1.263   2.783   0.007   4.052
   30        1.260   2.790   0.007   4.057
   31        1.262   2.782   0.007   4.050
   32        1.263   2.783   0.007   4.052
   33        1.260   2.790   0.007   4.057
   34        1.262   2.782   0.007   4.050
   35        1.263   2.783   0.007   4.052
   36        1.260   2.790   0.007   4.057
   37        1.262   2.782   0.007   4.050
   38        1.269   2.775   0.007   4.050
   39        1.271   2.767   0.006   4.045
   40        1.266   2.774   0.007   4.047
--------------------------------------------------
tot          42.28   72.39   94.77  209.44
 
magnetization (x)
 
# of ion       s       p       d       tot
------------------------------------------
    1        0.002   0.001   0.001   0.005
    2        0.002   0.008   0.002   0.012
    3        0.002   0.008   0.002   0.012
    4        0.002   0.014   0.005   0.021
    5       -0.001  -0.001   0.166   0.165
    6       -0.001  -0.001   0.186   0.184
    7       -0.001  -0.001   0.280   0.278
    8       -0.001  -0.001   0.166   0.165
    9       -0.001  -0.001   0.186   0.184
   10       -0.001  -0.001   0.280   0.278
   11       -0.001  -0.001   0.166   0.165
   12       -0.001  -0.001   0.186   0.184
   13       -0.001  -0.001   0.280   0.278
   14       -0.000  -0.001   0.191   0.189
   15       -0.001  -0.001   0.453   0.451
   16       -0.001  -0.001   0.043   0.042
   17        0.002   0.018   0.000   0.019
   18        0.010   0.077   0.000   0.087
   19        0.001   0.015   0.000   0.017
   20        0.002   0.018   0.000   0.019
   21        0.010   0.077   0.000   0.087
   22        0.001   0.015   0.000   0.017
   23        0.002   0.018   0.000   0.019
   24        0.010   0.077   0.000   0.087
   25        0.001   0.015   0.000   0.017
   26        0.006   0.089   0.000   0.095
   27        0.012   0.090   0.000   0.101
   28        0.005   0.050   0.000   0.055
   29        0.003   0.030   0.000   0.034
   30        0.003   0.030   0.000   0.033
   31        0.004   0.034   0.000   0.039
   32        0.003   0.030   0.000   0.034
   33        0.003   0.030   0.000   0.033
   34        0.004   0.034   0.000   0.039
   35        0.003   0.030   0.000   0.034
   36        0.003   0.030   0.000   0.033
   37        0.004   0.034   0.000   0.039
   38        0.007   0.047   0.000   0.054
   39        0.011   0.090   0.000   0.101
   40        0.005   0.036  -0.000   0.041
--------------------------------------------------
tot           0.12    1.03    2.59    3.74
 

 total amount of memory used by VASP MPI-rank0    75820. kBytes
=======================================================================

   base      :      30000. kBytes
   nonlr-proj:      16118. kBytes
   fftplans  :       4025. kBytes
   grid      :      23111. kBytes
   one-center:        622. kBytes
   wavefun   :       1944. kBytes
 
  
  
 General timing and accounting informations for this job:
 ========================================================
  
                  Total CPU time used (sec):      204.094
                            User time (sec):      202.014
                          System time (sec):        2.080
                         Elapsed time (sec):      210.393
  
                   Maximum memory used (kb):      115656.
                   Average memory used (kb):           0.
  
                          Minor page faults:        29473
                          Major page faults:           49
                 Voluntary context switches:          898
