 vasp.5.4.4.18Apr17-6-g9f103f2a35 (build May 12 2020 05:39:39) gamma-only       
  
 MD_VERSION_INFO: Compiled 2020-05-12T12:39:39-UTC in devlin.sd.materialsdesign.
 com:/home/medea2/data/build/wwolf/vasp-gpu5.4.4/13047/x86_64/src/src/build/gam 
 from svn 13047
 
 This VASP executable licensed from Materials Design, Inc.
 
 executed on                        Lin64 date 2023.02.09  13:51:24
 running on   16 total cores
 distrk:  each k-point on   16 cores,    1 groups
 distr:  one band on NCORES_PER_BAND=   1 cores,   16 groups


--------------------------------------------------------------------------------------------------------


 INCAR:
 POTCAR:    PAW_PBE Li_sv 10Sep2004               
 POTCAR:    PAW_PBE Ni 02Aug2007                  
 POTCAR:    PAW_PBE O 08Apr2002                   

 ----------------------------------------------------------------------------- 
|                                                                             |
|           W    W    AA    RRRRR   N    N  II  N    N   GGGG   !!!           |
|           W    W   A  A   R    R  NN   N  II  NN   N  G    G  !!!           |
|           W    W  A    A  R    R  N N  N  II  N N  N  G       !!!           |
|           W WW W  AAAAAA  RRRRR   N  N N  II  N  N N  G  GGG   !            |
|           WW  WW  A    A  R   R   N   NN  II  N   NN  G    G                |
|           W    W  A    A  R    R  N    N  II  N    N   GGGG   !!!           |
|                                                                             |
|      For optimal performance we recommend to set                            |
|        NCORE= 4 - approx SQRT( number of cores)                             |
|      NCORE specifies how many cores store one orbital (NPAR=cpu/NCORE).     |
|      This setting can  greatly improve the performance of VASP for DFT.     |
|      The default,   NCORE=1            might be grossly inefficient         |
|      on modern multi-core architectures or massively parallel machines.     |
|      Do your own testing !!!!                                               |
|      Unfortunately you need to use the default for GW and RPA calculations. |
|      (for HF NCORE is supported but not extensively tested yet)             |
|                                                                             |
 ----------------------------------------------------------------------------- 

 POTCAR:    PAW_PBE Li_sv 10Sep2004               
  local pseudopotential read in
  atomic valenz-charges read in
  non local Contribution for L=           0  read in
    real space projection operators read in
  non local Contribution for L=           0  read in
    real space projection operators read in
  non local Contribution for L=           1  read in
    real space projection operators read in
    PAW grid and wavefunctions read in
 
   number of l-projection  operators is LMAX  =           3
   number of lm-projection operators is LMMAX =           5
 
 POTCAR:    PAW_PBE Ni 02Aug2007                  
  local pseudopotential read in
  partial core-charges read in
  partial kinetic energy density read in
  atomic valenz-charges read in
  non local Contribution for L=           2  read in
    real space projection operators read in
  non local Contribution for L=           2  read in
    real space projection operators read in
  non local Contribution for L=           0  read in
    real space projection operators read in
  non local Contribution for L=           0  read in
    real space projection operators read in
  non local Contribution for L=           1  read in
    real space projection operators read in
  non local Contribution for L=           1  read in
    real space projection operators read in
    PAW grid and wavefunctions read in
 
   number of l-projection  operators is LMAX  =           6
   number of lm-projection operators is LMMAX =          18
 
 POTCAR:    PAW_PBE O 08Apr2002                   
  local pseudopotential read in
  partial core-charges read in
  partial kinetic energy density read in
  kinetic energy density of atom read in
  atomic valenz-charges read in
  non local Contribution for L=           0  read in
    real space projection operators read in
  non local Contribution for L=           0  read in
    real space projection operators read in
  non local Contribution for L=           1  read in
    real space projection operators read in
  non local Contribution for L=           1  read in
    real space projection operators read in
    PAW grid and wavefunctions read in
 
   number of l-projection  operators is LMAX  =           4
   number of lm-projection operators is LMMAX =           8
 
 Optimization of the real space projectors (new method)

 maximal supplied QI-value         = 22.11
 optimisation between [QCUT,QGAM] = [ 11.28, 22.77] = [ 35.61,145.23] Ry 
 Optimized for a Real-space Cutoff    1.10 Angstroem

   l    n(q)    QCUT    max X(q) W(low)/X(q) W(high)/X(q)  e(spline) 
   0      7    11.276    10.506    0.54E-04    0.58E-04    0.16E-07
   0      7    11.276     8.367    0.11E-03    0.14E-03    0.35E-07
   1      7    11.276     8.983    0.23E-03    0.43E-03    0.86E-07
 Optimization of the real space projectors (new method)

 maximal supplied QI-value         = 16.25
 optimisation between [QCUT,QGAM] = [ 11.38, 22.75] = [ 36.24,144.96] Ry 
 Optimized for a Real-space Cutoff    1.47 Angstroem

   l    n(q)    QCUT    max X(q) W(low)/X(q) W(high)/X(q)  e(spline) 
   2      9    11.376    60.317    0.17E-03    0.16E-04    0.16E-06
   2      9    11.376    55.921    0.17E-03    0.16E-04    0.17E-06
   0     10    11.376    51.690    0.45E-04    0.60E-04    0.21E-06
   0     10    11.376    30.015    0.37E-04    0.55E-04    0.19E-06
   1     10    11.376    18.849    0.83E-04    0.11E-03    0.92E-07
   1     10    11.376    14.624    0.69E-04    0.92E-04    0.82E-07
 Optimization of the real space projectors (new method)

 maximal supplied QI-value         = 24.76
 optimisation between [QCUT,QGAM] = [ 11.39, 22.77] = [ 36.31,145.25] Ry 
 Optimized for a Real-space Cutoff    1.10 Angstroem

   l    n(q)    QCUT    max X(q) W(low)/X(q) W(high)/X(q)  e(spline) 
   0      7    11.387    20.381    0.22E-03    0.48E-03    0.18E-06
   0      7    11.387    15.268    0.22E-03    0.52E-03    0.19E-06
   1      7    11.387     5.964    0.22E-03    0.73E-03    0.24E-06
   1      7    11.387     5.382    0.19E-03    0.60E-03    0.21E-06

 ----------------------------------------------------------------------------- 
|                                                                             |
|  ADVICE TO THIS USER RUNNING 'VASP/VAMP'   (HEAR YOUR MASTER'S VOICE ...):  |
|                                                                             |
|      You enforced a specific xc-type in the INCAR file,                     |
|      a different type was found on the POTCAR file                          |
|          I HOPE YOU KNOW, WHAT YOU ARE  DOING                               |
|                                                                             |
 ----------------------------------------------------------------------------- 

  PAW_PBE Li_sv 10Sep2004               :
 energy of atom  1       EATOM= -202.7858
 kinetic energy error for atom=    0.0143 (will be added to EATOM!!)
  PAW_PBE Ni 02Aug2007                  :
 energy of atom  2       EATOM=-1077.6739
 kinetic energy error for atom=    0.0030 (will be added to EATOM!!)
  PAW_PBE O 08Apr2002                   :
 energy of atom  3       EATOM= -432.3788
 kinetic energy error for atom=    0.0224 (will be added to EATOM!!)
 
 
 POSCAR: ce189_1                                 
  positions in direct lattice
  No initial velocities read in
 exchange correlation table for  LEXCH =       14
   RHO(1)=    0.500       N(1)  =     2000
   RHO(2)=  100.500       N(2)  =     4000
 


--------------------------------------------------------------------------------------------------------


 ion  position               nearest neighbor table
   1  0.750  0.187  0.187-  52 1.91  49 1.91  43 1.93  39 1.93
   2  0.250  0.185  0.681-  44 1.90  40 1.90  50 1.93  51 1.96
   3  0.250  0.681  0.185-  45 1.90  41 1.90  54 1.93  47 1.96
   4  0.750  0.319  0.815-  28 1.90  24 1.90  36 1.93  32 1.96
   5  0.750  0.815  0.319-  29 1.90  25 1.90  33 1.93  37 1.96
   6  0.250  0.813  0.813-  38 1.91  34 1.91  30 1.93  26 1.93
   7  0.000  0.000  0.000-  37 1.85  51 1.85  47 1.85  32 1.85  30 1.92  43 1.92  11 2.81  11 2.81
                            20 2.84  15 2.84  17 2.84  19 2.84
   8  0.500  0.000  0.500-  31 1.84  48 1.84  38 1.85  52 1.85  29 1.91  44 1.91  12 2.81  12 2.81
                            20 2.82  19 2.82  18 2.84  16 2.84
   9  0.500  0.500  0.000-  35 1.84  53 1.84  49 1.85  34 1.85  28 1.91  45 1.91  13 2.81  13 2.81
                            17 2.82  15 2.82  22 2.84  21 2.84
  10  0.000  0.500  0.500-  36 1.85  54 1.85  50 1.85  33 1.85  27 1.91  46 1.91  14 2.81  14 2.81
                            22 2.83  16 2.83  18 2.83  21 2.83
  11  0.500  0.000  0.000-  37 1.85  51 1.85  47 1.85  32 1.85  26 1.92  39 1.92   7 2.81   7 2.81
                            20 2.84  15 2.84  17 2.84  19 2.84
  12  0.000  0.000  0.500-  31 1.84  48 1.84  38 1.85  52 1.85  25 1.91  40 1.91   8 2.81   8 2.81
                            20 2.82  19 2.82  18 2.84  16 2.84
  13  0.000  0.500  0.000-  35 1.84  53 1.84  49 1.85  34 1.85  24 1.91  41 1.91   9 2.81   9 2.81
                            17 2.82  15 2.82  22 2.84  21 2.84
  14  0.500  0.500  0.500-  36 1.85  54 1.85  50 1.85  33 1.85  23 1.91  42 1.91  10 2.81  10 2.81
                            22 2.83  16 2.83  18 2.83  21 2.83
  15  0.250  0.251  0.001-  24 1.86  28 1.86  39 1.87  43 1.87  35 1.95  51 1.98  19 2.77  22 2.78
                             9 2.82  13 2.82  11 2.84   7 2.84
  16  0.750  0.251  0.499-  23 1.86  27 1.86  40 1.88  44 1.88  36 1.96  52 1.96  21 2.75  20 2.78
                            10 2.83  14 2.83  12 2.84   8 2.84
  17  0.750  0.749  0.999-  41 1.86  45 1.86  26 1.87  30 1.87  53 1.95  37 1.98  20 2.77  21 2.78
                             9 2.82  13 2.82  11 2.84   7 2.84
  18  0.250  0.749  0.501-  42 1.86  46 1.86  25 1.88  29 1.88  54 1.96  38 1.96  22 2.75  19 2.78
                            10 2.83  14 2.83  12 2.84   8 2.84
  19  0.250  0.001  0.251-  29 1.86  25 1.86  43 1.87  39 1.87  31 1.95  47 1.98  15 2.77  18 2.78
                             8 2.82  12 2.82  11 2.84   7 2.84
  20  0.750  0.999  0.749-  44 1.86  40 1.86  30 1.87  26 1.87  48 1.95  32 1.98  17 2.77  16 2.78
                             8 2.82  12 2.82  11 2.84   7 2.84
  21  0.750  0.499  0.251-  27 1.86  23 1.86  45 1.88  41 1.88  33 1.96  49 1.96  16 2.75  17 2.78
                            10 2.83  14 2.83  13 2.84   9 2.84
  22  0.250  0.501  0.749-  46 1.86  42 1.86  28 1.88  24 1.88  50 1.96  34 1.96  18 2.75  15 2.78
                            10 2.83  14 2.83  13 2.84   9 2.84
  23  0.528  0.383  0.383-  16 1.86  21 1.86  14 1.91
  24  0.028  0.382  0.884-  15 1.86  22 1.88   4 1.90  13 1.91
  25  0.028  0.884  0.382-  19 1.86  18 1.88   5 1.90  12 1.91
  26  0.527  0.882  0.882-  17 1.87  20 1.87  11 1.92   6 1.93
  27  0.972  0.383  0.383-  21 1.86  16 1.86  10 1.91
  28  0.472  0.382  0.884-  15 1.86  22 1.88   4 1.90   9 1.91
  29  0.472  0.884  0.382-  19 1.86  18 1.88   5 1.90   8 1.91
  30  0.973  0.882  0.882-  20 1.87  17 1.87   7 1.92   6 1.93
  31  0.250  0.103  0.387-   8 1.84  12 1.84  19 1.95
  32  0.750  0.105  0.886-   7 1.85  11 1.85   4 1.96  20 1.98
  33  0.750  0.604  0.386-  10 1.85  14 1.85   5 1.93  21 1.96
  34  0.250  0.604  0.885-   9 1.85  13 1.85   6 1.91  22 1.96
  35  0.250  0.387  0.103-   9 1.84  13 1.84  15 1.95
  36  0.750  0.386  0.604-  14 1.85  10 1.85   4 1.93  16 1.96
  37  0.750  0.886  0.105-   7 1.85  11 1.85   5 1.96  17 1.98
  38  0.250  0.885  0.604-   8 1.85  12 1.85   6 1.91  18 1.96
  39  0.473  0.118  0.118-  15 1.87  19 1.87  11 1.92   1 1.93
  40  0.972  0.116  0.618-  20 1.86  16 1.88   2 1.90  12 1.91
  41  0.972  0.618  0.116-  17 1.86  21 1.88   3 1.90  13 1.91
  42  0.472  0.617  0.617-  18 1.86  22 1.86  14 1.91
  43  0.027  0.118  0.118-  19 1.87  15 1.87   7 1.92   1 1.93
  44  0.528  0.116  0.618-  20 1.86  16 1.88   2 1.90   8 1.91
  45  0.528  0.618  0.116-  17 1.86  21 1.88   3 1.90   9 1.91
  46  0.028  0.617  0.617-  22 1.86  18 1.86  10 1.91
  47  0.250  0.895  0.114-   7 1.85  11 1.85   3 1.96  19 1.98
  48  0.750  0.897  0.613-   8 1.84  12 1.84  20 1.95
  49  0.750  0.396  0.115-   9 1.85  13 1.85   1 1.91  21 1.96
  50  0.250  0.396  0.614-  10 1.85  14 1.85   2 1.93  22 1.96
  51  0.250  0.114  0.895-   7 1.85  11 1.85   2 1.96  15 1.98
  52  0.750  0.115  0.396-   8 1.85  12 1.85   1 1.91  16 1.96
  53  0.750  0.613  0.897-   9 1.84  13 1.84  17 1.95
  54  0.250  0.614  0.396-  14 1.85  10 1.85   3 1.93  18 1.96
 
  LATTYP: Found a base centered orthorhombic cell.
 ALAT       =    11.0793172794
 B/A-ratio  =     1.4694327058
 C/A-ratio  =     0.5065640358
  
  Lattice vectors:
  
 A1 = (   8.1401555844,  -3.9171301896,   3.9171301896)
 A2 = (  -8.1401555844,  -3.9171301896,   3.9171301896)
 A3 = (   0.0000000000,  -3.9685545551,  -3.9685545551)


Analysis of symmetry for initial positions (statically):
=====================================================================
 Subroutine PRICEL returns:
 Original cell was already a primitive cell.
 

 Routine SETGRP: Setting up the symmetry group for a 
 base centered orthorhombic supercell.


 Subroutine GETGRP returns: Found  8 space group operations
 (whereof  4 operations were pure point group operations)
 out of a pool of  8 trial point group operations.


The static configuration has the point symmetry C_2h.
 The point group associated with its full space group is D_2h.


Analysis of symmetry for dynamics (positions and initial velocities):
=====================================================================
 Subroutine PRICEL returns:
 Original cell was already a primitive cell.
 

 Routine SETGRP: Setting up the symmetry group for a 
 base centered orthorhombic supercell.


 Subroutine GETGRP returns: Found  8 space group operations
 (whereof  4 operations were pure point group operations)
 out of a pool of  8 trial point group operations.


The dynamic configuration has the point symmetry C_2h.
 The point group associated with its full space group is D_2h.


Analysis of structural, dynamic, and magnetic symmetry:
=====================================================================
 Subroutine PRICEL returns:
 Original cell was already a primitive cell.
 

 Routine SETGRP: Setting up the symmetry group for a 
 base centered orthorhombic supercell.


 Subroutine GETGRP returns: Found  8 space group operations
 (whereof  4 operations were pure point group operations)
 out of a pool of  8 trial point group operations.


The magnetic configuration has the point symmetry C_2h.
 The point group associated with its full space group is D_2h.


 Subroutine INISYM returns: Found  8 space group operations
 (whereof  4 operations are pure point group operations),
 and found     1 'primitive' translations

 
 
 KPOINTS: Automatic mesh                          

Automatic generation of k-mesh.
Space group operators:
 irot       det(A)        alpha          n_x          n_y          n_z        tau_x        tau_y        tau_z
    1     1.000000     0.000000     1.000000     0.000000     0.000000     0.000000     0.000000     0.000000
    2    -1.000000     0.000000     1.000000     0.000000     0.000000     0.000000     0.000000     0.000000
    3     1.000000   180.000000     0.000000    -0.707107     0.707107     0.000000     0.000000     0.000000
    4    -1.000000   180.000000     0.000000    -0.707107     0.707107     0.000000     0.000000     0.000000
    5     1.000000   180.000000     0.000000     0.707107     0.707107    -0.500000     0.000000     0.000000
    6    -1.000000   180.000000     0.000000     0.707107     0.707107    -0.500000     0.000000     0.000000
    7     1.000000   179.999999     1.000000     0.000000     0.000000    -0.500000     0.000000     0.000000
    8    -1.000000   179.999999     1.000000     0.000000     0.000000    -0.500000     0.000000     0.000000
 
 Subroutine IBZKPT returns following result:
 ===========================================
 
 Found      1 irreducible k-points:
 
 Following reciprocal coordinates:
            Coordinates               Weight
  0.000000  0.000000  0.000000      1.000000
 
 Following cartesian coordinates:
            Coordinates               Weight
  0.000000  0.000000  0.000000      1.000000
 


--------------------------------------------------------------------------------------------------------




 Dimension of arrays:
   k-points           NKPTS =      1   k-points in BZ     NKDIM =      1   number of bands    NBANDS=    256
   number of dos      NEDOS =    301   number of ions     NIONS =     54
   non local maximal  LDIM  =      6   non local SUM 2l+1 LMDIM =     18
   total plane-waves  NPLWV = 217728
   max r-space proj   IRMAX =   5825   max aug-charges    IRDMAX=  14141
   dimension x,y,z NGX =    42 NGY =   72 NGZ =   72
   dimension x,y,z NGXF=    84 NGYF=  144 NGZF=  144
   support grid    NGXF=    84 NGYF=  144 NGZF=  144
   ions per type =               6  16  32
   NGX,Y,Z   is equivalent  to a cutoff of  12.44, 12.16, 12.16 a.u.
   NGXF,Y,Z  is equivalent  to a cutoff of  24.88, 24.31, 24.31 a.u.

 SYSTEM =  unknown system                          
 POSCAR =  ce189_1                                 

 Startparameter for this run:
   NWRITE =      1    write-flag & timer
   PREC   = accura    normal or accurate (medium, high low for compatibility)
   ISTART =      0    job   : 0-new  1-cont  2-samecut
   ICHARG =      2    charge: 1-file 2-atom 10-const
   ISPIN  =      2    spin polarized calculation?
   LNONCOLLINEAR =      F non collinear calculations
   LSORBIT =      F    spin-orbit coupling
   INIWAV =      1    electr: 0-lowe 1-rand  2-diag
   LASPH  =      F    aspherical Exc in radial PAW
   METAGGA=      F    non-selfconsistent MetaGGA calc.

 Electronic Relaxation 1
   ENCUT  =  500.0 eV  36.75 Ry    6.06 a.u.  10.23 17.95 17.95*2*pi/ulx,y,z
   ENINI  =  500.0     initial cutoff
   ENAUG  =  628.9 eV  augmentation charge cutoff
   NELM   =     80;   NELMIN=  2; NELMDL= -5     # of ELM steps 
   EDIFF  = 0.1E-04   stopping-criterion for ELM
   LREAL  =      T    real-space projection
   NLSPLINE    = F    spline interpolate recip. space projectors
   LCOMPAT=      F    compatible to vasp.4.4
   GGA_COMPAT  = T    GGA compatible to vasp.4.4-vasp.4.6
   LMAXPAW     = -100 max onsite density
   LMAXMIX     =    2 max onsite mixed and CHGCAR
   VOSKOWN=      1    Vosko Wilk Nusair interpolation
   ROPT   =   -0.00025  -0.00025  -0.00025
 Ionic relaxation
   EDIFFG = -.2E-01   stopping-criterion for IOM
   NSW    =     20    number of steps for IOM
   NBLOCK =      1;   KBLOCK =     20    inner block; outer block 
   IBRION =      1    ionic relax: 0-MD 1-quasi-New 2-CG
   NFREE  =      0    steps in history (QN), initial steepest desc. (CG)
   ISIF   =      3    stress and relaxation
   IWAVPR =     11    prediction:  0-non 1-charg 2-wave 3-comb
   ISYM   =      2    0-nonsym 1-usesym 2-fastsym
   LCORR  =      T    Harris-Foulkes like correction to forces

   POTIM  = 0.5000    time-step for ionic-motion
   TEIN   =    0.0    initial temperature
   TEBEG  =    0.0;   TEEND  =   0.0 temperature during run
   SMASS  =  -3.00    Nose mass-parameter (am)
   estimated Nose-frequenzy (Omega)   =  0.10E-29 period in steps =****** mass=  -0.720E-27a.u.
   SCALEE = 1.0000    scale energy and forces
   NPACO  =    256;   APACO  = 16.0  distance and # of slots for P.C.
   PSTRESS=    0.0 pullay stress

  Mass of Ions in am
   POMASS =   7.01 58.69 16.00
  Ionic Valenz
   ZVAL   =   3.00 10.00  6.00
  Atomic Wigner-Seitz radii
   RWIGS  =   1.23  1.15  0.73
  virtual crystal weights 
   VCA    =   1.00  1.00  1.00
   NELECT =     370.0000    total number of electrons
   NUPDOWN=      -1.0000    fix difference up-down

 DOS related values:
   EMIN   =  10.00;   EMAX   =-10.00  energy-range for DOS
   EFERMI =   0.00
   ISMEAR =     0;   SIGMA  =   0.05  broadening in eV -4-tet -1-fermi 0-gaus

 Electronic relaxation 2 (details)
   IALGO  =     38    algorithm
   LDIAG  =      T    sub-space diagonalisation (order eigenvalues)
   LSUBROT=      F    optimize rotation matrix (better conditioning)
   TURBO    =      0    0=normal 1=particle mesh
   IRESTART =      0    0=no restart 2=restart with 2 vectors
   NREBOOT  =      0    no. of reboots
   NMIN     =      0    reboot dimension
   EREF     =   0.00    reference energy to select bands
   IMIX   =      4    mixing-type and parameters
     AMIX     =   0.40;   BMIX     =  1.00
     AMIX_MAG =   1.60;   BMIX_MAG =  1.00
     AMIN     =   0.10
     WC   =   100.;   INIMIX=   1;  MIXPRE=   1;  MAXMIX= -45

 Intra band minimization:
   WEIMIN = 0.0010     energy-eigenvalue tresh-hold
   EBREAK =  0.98E-08  absolut break condition
   DEPER  =   0.30     relativ break condition  

   TIME   =   0.40     timestep for ELM

  volume/ion in A,a.u.               =       9.37        63.26
  Fermi-wavevector in a.u.,A,eV,Ry     =   1.474725  2.786826 29.590140  2.174814
  Thomas-Fermi vector in A             =   2.589461
 
 Write flags
   LWAVE        =      F    write WAVECAR
   LDOWNSAMPLE  =      F    k-point downsampling of WAVECAR
   LCHARG       =      T    write CHGCAR
   LVTOT        =      F    write LOCPOT, total local potential
   LVHAR        =      F    write LOCPOT, Hartree potential only
   LELF         =      F    write electronic localiz. function (ELF)
   LORBIT       =      0    0 simple, 1 ext, 2 COOP (PROOUT), +10 PAW based schemes


 Dipole corrections
   LMONO  =      F    monopole corrections only (constant potential shift)
   LDIPOL =      F    correct potential (dipole corrections)
   IDIPOL =      0    1-x, 2-y, 3-z, 4-all directions 
   EPSILON=  1.0000000 bulk dielectric constant

 Exchange correlation treatment:
   GGA     =    PS    GGA type
   LEXCH   =    14    internal setting for exchange type
   VOSKOWN=      1    Vosko Wilk Nusair interpolation
   LHFCALC =     F    Hartree Fock is set to
   LHFONE  =     F    Hartree Fock one center treatment
   AEXX    =    0.0000 exact exchange contribution

 Linear response parameters
   LEPSILON=     F    determine dielectric tensor
   LRPA    =     F    only Hartree local field effects (RPA)
   LNABLA  =     F    use nabla operator in PAW spheres
   LVEL    =     F    velocity operator in full k-point grid
   LINTERFAST=   F  fast interpolation
   KINTER  =     0    interpolate to denser k-point grid
   CSHIFT  =0.1000    complex shift for real part using Kramers Kronig
   OMEGAMAX=  -1.0    maximum frequency
   DEG_THRESHOLD= 0.2000000E-02 threshold for treating states as degnerate
   RTIME   =   -0.100 relaxation time in fs
  (WPLASMAI=    0.000 imaginary part of plasma frequency in eV, 0.658/RTIME)
   DFIELD  = 0.0000000 0.0000000 0.0000000 field for delta impulse in time
 
 Orbital magnetization related:
   ORBITALMAG=     F  switch on orbital magnetization
   LCHIMAG   =     F  perturbation theory with respect to B field
   DQ        =  0.001000  dq finite difference perturbation B field
   LLRAUG    =     F  two centre corrections for induced B field



--------------------------------------------------------------------------------------------------------


 quasi-Newton-method for relaxation of ions
 charge density and potential will be updated during run
 spin polarized calculation
 Variant of blocked Davidson
 Davidson routine will perform the subspace rotation
 perform sub-space diagonalisation
    after iterative eigenvector-optimisation
 modified Broyden-mixing scheme, WC =      100.0
 initial mixing is a Kerker type mixing with AMIX =  0.4000 and BMIX =      1.0000
 Hartree-type preconditioning will be used
 using additional bands           71
 real space projection scheme for non local part
 use partial core corrections
 calculate Harris-corrections to forces 
   (improved forces if not selfconsistent)
 use gradient corrections 
 use of overlap-Matrix (Vanderbilt PP)
 Gauss-broadening in eV      SIGMA  =   0.05


--------------------------------------------------------------------------------------------------------


  energy-cutoff  :      500.00
  volume of cell :      506.17
      direct lattice vectors                 reciprocal lattice vectors
     0.000000000  3.968554555  3.968554555     0.000000000  0.125990456  0.125990456
     8.140155584 -3.917130190  3.917130190     0.061423887 -0.063822234  0.063822234
     8.140155584  3.917130190 -3.917130190     0.061423887  0.063822234 -0.063822234

  length of vectors
     5.612383675  9.846316610  9.846316610     0.178177412  0.109176229  0.109176229


 
 k-points in units of 2pi/SCALE and weight: Automatic mesh                          
   0.00000000  0.00000000  0.00000000       1.000
 
 k-points in reciprocal lattice and weights: Automatic mesh                          
   0.00000000  0.00000000  0.00000000       1.000
 
 position of ions in fractional coordinates (direct lattice) 
   0.75000000  0.18740320  0.18740320
   0.25000000  0.18503871  0.68142375
   0.25000000  0.68142375  0.18503871
   0.75000000  0.31857625  0.81496129
   0.75000000  0.81496129  0.31857625
   0.25000000  0.81259680  0.81259680
   0.00000000  0.00000000  0.00000000
   0.50000000  0.00000000  0.50000000
   0.50000000  0.50000000  0.00000000
   0.00000000  0.50000000  0.50000000
   0.50000000  0.00000000  0.00000000
   0.00000000  0.00000000  0.50000000
   0.00000000  0.50000000  0.00000000
   0.50000000  0.50000000  0.50000000
   0.25000000  0.25089960  0.00093577
   0.75000000  0.25124733  0.49922286
   0.75000000  0.74910040  0.99906423
   0.25000000  0.74875267  0.50077714
   0.25000000  0.00093577  0.25089960
   0.75000000  0.99906423  0.74910040
   0.75000000  0.49922286  0.25124733
   0.25000000  0.50077714  0.74875267
   0.52814219  0.38313873  0.38313873
   0.02760072  0.38228717  0.88403226
   0.02760072  0.88403226  0.38228717
   0.52685114  0.88247594  0.88247594
   0.97185781  0.38313873  0.38313872
   0.47239928  0.38228717  0.88403225
   0.47239928  0.88403226  0.38228716
   0.97314886  0.88247594  0.88247593
   0.25000000  0.10300600  0.38722431
   0.75000000  0.10474981  0.88626419
   0.75000000  0.60404342  0.38583280
   0.25000000  0.60381400  0.88543169
   0.25000000  0.38722432  0.10300600
   0.75000000  0.38583281  0.60404342
   0.75000000  0.88626420  0.10474981
   0.25000000  0.88543170  0.60381400
   0.47314886  0.11752406  0.11752406
   0.97239928  0.11596774  0.61771283
   0.97239928  0.61771283  0.11596774
   0.47185781  0.61686127  0.61686127
   0.02685114  0.11752406  0.11752407
   0.52760072  0.11596774  0.61771284
   0.52760072  0.61771283  0.11596775
   0.02814219  0.61686127  0.61686128
   0.25000000  0.89525019  0.11373581
   0.75000000  0.89699400  0.61277569
   0.75000000  0.39618600  0.11456831
   0.25000000  0.39595658  0.61416720
   0.25000000  0.11373580  0.89525019
   0.75000000  0.11456830  0.39618600
   0.75000000  0.61277568  0.89699400
   0.25000000  0.61416719  0.39595658
 
 position of ions in cartesian coordinates  (Angst):
   3.05098241  2.97641592  2.97641592
   7.05313923  2.93654346 -0.95226619
   7.05313923 -0.95226619  2.93654346
   9.22717194  4.92082074  1.03201109
   9.22717194  1.03201109  4.92082074
  13.22932876  0.99213864  0.99213864
   0.00000000  0.00000000  0.00000000
   4.07007779  3.94284237  0.02571218
   4.07007779  0.02571218  3.94284237
   8.14015558  0.00000000  0.00000000
   0.00000000  1.98427728  1.98427728
   4.07007779  1.95856509 -1.95856509
   4.07007779 -1.95856509  1.95856509
   8.14015558  1.98427728  1.98427728
   2.04997909  0.01299777  1.97127950
   6.10894411  3.94776835  2.00506348
  14.23033208  3.95555678  1.99727505
  10.17136706  0.02078620  1.96349107
   2.04997909  1.97127950  0.01299777
  14.23033208  1.99727505  3.95555678
   6.10894411  2.00506348  3.94776835
  10.17136706  1.96349107  0.02078620
   6.23761775  2.09596109  2.09596109
  10.30803718  2.07493580 -1.85586588
  10.30803718 -1.85586588  2.07493580
  14.36698290  2.09083749  2.09083749
   6.23761766  3.85687070  3.85687078
  10.30803710  3.84014311 -0.09065849
  10.30803710 -0.09065856  3.84014319
  14.36698282  3.86199430  3.86199438
   3.99055100  2.10545876 -0.12118148
   8.06700815  6.03770949 -0.08487766
   8.05774644  2.12165651  3.83117532
  12.12269162  2.09527179 -0.11099452
   3.99055108 -0.12118152  2.10545880
   8.05774652  3.83117528  2.12165655
   8.06700823 -0.08487769  6.03770953
  12.12269170 -0.11099456  2.09527183
   1.91332827  1.87771706  1.87771706
   5.97227399  5.82442043  1.89361875
   5.97227399  1.89361875  5.82442043
  10.04269342  1.87259346  1.87259346
   1.91332835  0.10656025  0.10656017
   5.97227407  4.05921312  0.12841136
   5.97227407  0.12841144  4.05921304
  10.04269350  0.11168386  0.11168378
   8.21330302 -2.06915493  4.05343221
  12.28976017  1.86309579  4.08973604
   4.15761955  1.87328276  4.07954907
   8.22256473  1.84689805  0.13737923
   8.21330294  4.05343225 -2.06915497
   4.15761947  4.07954911  1.87328272
  12.28976009  4.08973608  1.86309575
   8.22256465  0.13737927  1.84689801
 


--------------------------------------------------------------------------------------------------------


 use serial FFT for orbitals x direction half grid
 k-point  1 :   0.0000 0.0000 0.0000  plane waves:    6427

 maximum and minimum number of plane-waves per node :      6427     6427

 maximum number of plane-waves:      6427
 maximum index in each direction: 
   IXMAX=   10   IYMAX=   17   IZMAX=   17
   IXMIN=    0   IYMIN=  -17   IZMIN=  -17

 The following grids will avoid any aliasing or wrap around errors in the Hartre
 e energy
  - symmetry arguments have not been applied
  - exchange correlation energies might require even more grid points
  - we recommend to set PREC=Normal or Accurate and rely on VASP defaults
 NGX is ok and might be reduce to    42
 NGY is ok and might be reduce to    70
 NGZ is ok and might be reduce to    70

 serial   3D FFT for wavefunctions
 parallel 3D FFT for charge:
    minimum data exchange during FFTs selected (reduces bandwidth)


 total amount of memory used by VASP MPI-rank0    87888. kBytes
=======================================================================

   base      :      30000. kBytes
   nonlr-proj:      20030. kBytes
   fftplans  :       4991. kBytes
   grid      :      28588. kBytes
   one-center:        839. kBytes
   wavefun   :       3440. kBytes
 
     INWAV:  cpu time    0.0000: real time    0.0000
 Broyden mixing: mesh for mixing (old mesh)
   NGX = 21   NGY = 35   NGZ = 35
  (NGX  = 84   NGY  =144   NGZ  =144)
  gives a total of  25725 points

 initial charge density was supplied:
 charge density of overlapping atoms calculated
 number of electron     370.0000000 magnetization      40.0000000
 keeping initial charge density in first step


--------------------------------------------------------------------------------------------------------


 Maximum index for non-local projection operator         5638
 Maximum index for augmentation-charges         1330 (set IRDMAX)


--------------------------------------------------------------------------------------------------------


 First call to EWALD:  gamma=   0.222
 Maximum number of real-space cells 4x 2x 2
 Maximum number of reciprocal cells 2x 3x 3

    FEWALD:  cpu time    0.0030: real time    0.0030


--------------------------------------- Iteration      1(   1)  ---------------------------------------


    POTLOK:  cpu time    0.1671: real time    0.1688
    SETDIJ:  cpu time    0.0167: real time    0.0167
     EDDAV:  cpu time    1.6160: real time    1.6509
    --------------------------------------------
      LOOP:  cpu time    1.8002: real time    1.8369

 eigenvalue-minimisations  :  1024
 total energy-change (2. order) : 0.6458269E+04  (-0.1623163E+05)
 number of electron     370.0000000 magnetization      40.0000000
 augmentation part      370.0000000 magnetization      40.0000000

 Free energy of the ion-electron system (eV)
  ---------------------------------------------------
  alpha Z        PSCENC =      1171.85765051
  Ewald energy   TEWEN  =    -22279.33572342
  -Hartree energ DENC   =    -10837.20226476
  -exchange      EXHF   =         0.00000000
  -V(xc)+E(xc)   XCENC  =      1502.95038238
  PAW double counting   =     26942.36450242   -28149.39347092
  entropy T*S    EENTRO =        -0.00385310
  eigenvalues    EBANDS =      5887.25587147
  atomic energy  EATOM  =     32219.77639703
  Solvation  Ediel_sol  =         0.00000000
  ---------------------------------------------------
  free energy    TOTEN  =      6458.26949161 eV

  energy without entropy =     6458.27334471  energy(sigma->0) =     6458.27141816


--------------------------------------------------------------------------------------------------------




--------------------------------------- Iteration      1(   2)  ---------------------------------------


     EDDAV:  cpu time    1.5625: real time    1.5662
    --------------------------------------------
      LOOP:  cpu time    1.5624: real time    1.5661

 eigenvalue-minimisations  :  1072
 total energy-change (2. order) :-0.5248232E+04  (-0.4636680E+04)
 number of electron     370.0000000 magnetization      40.0000000
 augmentation part      370.0000000 magnetization      40.0000000

 Free energy of the ion-electron system (eV)
  ---------------------------------------------------
  alpha Z        PSCENC =      1171.85765051
  Ewald energy   TEWEN  =    -22279.33572342
  -Hartree energ DENC   =    -10837.20226476
  -exchange      EXHF   =         0.00000000
  -V(xc)+E(xc)   XCENC  =      1502.95038238
  PAW double counting   =     26942.36450242   -28149.39347092
  entropy T*S    EENTRO =        -0.02637446
  eigenvalues    EBANDS =       639.04633775
  atomic energy  EATOM  =     32219.77639703
  Solvation  Ediel_sol  =         0.00000000
  ---------------------------------------------------
  free energy    TOTEN  =      1210.03743652 eV

  energy without entropy =     1210.06381099  energy(sigma->0) =     1210.05062375


--------------------------------------------------------------------------------------------------------




--------------------------------------- Iteration      1(   3)  ---------------------------------------


     EDDAV:  cpu time    1.7941: real time    1.7984
    --------------------------------------------
      LOOP:  cpu time    1.7941: real time    1.7984

 eigenvalue-minimisations  :  1152
 total energy-change (2. order) :-0.1435547E+04  (-0.1179434E+04)
 number of electron     370.0000000 magnetization      40.0000000
 augmentation part      370.0000000 magnetization      40.0000000

 Free energy of the ion-electron system (eV)
  ---------------------------------------------------
  alpha Z        PSCENC =      1171.85765051
  Ewald energy   TEWEN  =    -22279.33572342
  -Hartree energ DENC   =    -10837.20226476
  -exchange      EXHF   =         0.00000000
  -V(xc)+E(xc)   XCENC  =      1502.95038238
  PAW double counting   =     26942.36450242   -28149.39347092
  entropy T*S    EENTRO =        -0.08774469
  eigenvalues    EBANDS =      -796.43940354
  atomic energy  EATOM  =     32219.77639703
  Solvation  Ediel_sol  =         0.00000000
  ---------------------------------------------------
  free energy    TOTEN  =      -225.50967499 eV

  energy without entropy =     -225.42193030  energy(sigma->0) =     -225.46580264


--------------------------------------------------------------------------------------------------------




--------------------------------------- Iteration      1(   4)  ---------------------------------------


     EDDAV:  cpu time    1.8386: real time    1.8429
    --------------------------------------------
      LOOP:  cpu time    1.8385: real time    1.8429

 eigenvalue-minimisations  :  1200
 total energy-change (2. order) :-0.2142659E+03  (-0.2074133E+03)
 number of electron     370.0000000 magnetization      40.0000000
 augmentation part      370.0000000 magnetization      40.0000000

 Free energy of the ion-electron system (eV)
  ---------------------------------------------------
  alpha Z        PSCENC =      1171.85765051
  Ewald energy   TEWEN  =    -22279.33572342
  -Hartree energ DENC   =    -10837.20226476
  -exchange      EXHF   =         0.00000000
  -V(xc)+E(xc)   XCENC  =      1502.95038238
  PAW double counting   =     26942.36450242   -28149.39347092
  entropy T*S    EENTRO =        -0.11000222
  eigenvalues    EBANDS =     -1010.68306117
  atomic energy  EATOM  =     32219.77639703
  Solvation  Ediel_sol  =         0.00000000
  ---------------------------------------------------
  free energy    TOTEN  =      -439.77559015 eV

  energy without entropy =     -439.66558793  energy(sigma->0) =     -439.72058904


--------------------------------------------------------------------------------------------------------




--------------------------------------- Iteration      1(   5)  ---------------------------------------


     EDDAV:  cpu time    2.1886: real time    2.1938
    CHARGE:  cpu time    0.1444: real time    0.1447
    MIXING:  cpu time    0.0037: real time    0.0038
    --------------------------------------------
      LOOP:  cpu time    2.3364: real time    2.3421

 eigenvalue-minimisations  :  1600
 total energy-change (2. order) :-0.9998807E+01  (-0.9906511E+01)
 number of electron     370.0000109 magnetization      39.0987798
 augmentation part      108.7776361 magnetization      30.1122950

 Broyden mixing:
  rms(total) = 0.11607E+02    rms(broyden)= 0.11605E+02
  rms(prec ) = 0.14395E+02
  weight for this iteration     100.00

 Free energy of the ion-electron system (eV)
  ---------------------------------------------------
  alpha Z        PSCENC =      1171.85765051
  Ewald energy   TEWEN  =    -22279.33572342
  -Hartree energ DENC   =    -10837.20226476
  -exchange      EXHF   =         0.00000000
  -V(xc)+E(xc)   XCENC  =      1502.95038238
  PAW double counting   =     26942.36450242   -28149.39347092
  entropy T*S    EENTRO =        -0.10786143
  eigenvalues    EBANDS =     -1020.68400897
  atomic energy  EATOM  =     32219.77639703
  Solvation  Ediel_sol  =         0.00000000
  ---------------------------------------------------
  free energy    TOTEN  =      -449.77439717 eV

  energy without entropy =     -449.66653573  energy(sigma->0) =     -449.72046645


--------------------------------------------------------------------------------------------------------




--------------------------------------- Iteration      1(   6)  ---------------------------------------


    POTLOK:  cpu time    0.1430: real time    0.1433
    SETDIJ:  cpu time    0.0211: real time    0.0212
     EDDAV:  cpu time    2.1006: real time    2.1056
    CHARGE:  cpu time    0.1162: real time    0.1165
    MIXING:  cpu time    0.0026: real time    0.0026
    --------------------------------------------
      LOOP:  cpu time    2.3836: real time    2.3892

 eigenvalue-minimisations  :  1456
 total energy-change (2. order) :-0.5278432E+02  (-0.1157348E+03)
 number of electron     370.0000149 magnetization      33.2091622
 augmentation part      141.6159193 magnetization      32.4164719

 Broyden mixing:
  rms(total) = 0.19779E+02    rms(broyden)= 0.19777E+02
  rms(prec ) = 0.21983E+02
  weight for this iteration     100.00

 eigenvalues of (default mixing * dielectric matrix)
  average eigenvalue GAMMA=   0.2122
  0.2122

 Free energy of the ion-electron system (eV)
  ---------------------------------------------------
  alpha Z        PSCENC =      1171.85765051
  Ewald energy   TEWEN  =    -22279.33572342
  -Hartree energ DENC   =    -10305.58771954
  -exchange      EXHF   =         0.00000000
  -V(xc)+E(xc)   XCENC  =      1508.32685124
  PAW double counting   =     29752.35325077   -30780.40183700
  entropy T*S    EENTRO =        -0.05809925
  eigenvalues    EBANDS =     -1789.48949013
  atomic energy  EATOM  =     32219.77639703
  Solvation  Ediel_sol  =         0.00000000
  ---------------------------------------------------
  free energy    TOTEN  =      -502.55871978 eV

  energy without entropy =     -502.50062054  energy(sigma->0) =     -502.52967016


--------------------------------------------------------------------------------------------------------




--------------------------------------- Iteration      1(   7)  ---------------------------------------


    POTLOK:  cpu time    0.1177: real time    0.1180
    SETDIJ:  cpu time    0.0247: real time    0.0247
     EDDAV:  cpu time    2.0090: real time    2.0138
    CHARGE:  cpu time    0.1408: real time    0.1412
    MIXING:  cpu time    0.0037: real time    0.0037
    --------------------------------------------
      LOOP:  cpu time    2.2959: real time    2.3014

 eigenvalue-minimisations  :  1424
 total energy-change (2. order) : 0.1521646E+03  (-0.2955034E+02)
 number of electron     370.0000129 magnetization      23.3345278
 augmentation part      128.6292142 magnetization      22.5591397

 Broyden mixing:
  rms(total) = 0.63025E+01    rms(broyden)= 0.63015E+01
  rms(prec ) = 0.74456E+01
  weight for this iteration     100.00

 eigenvalues of (default mixing * dielectric matrix)
  average eigenvalue GAMMA=   0.5690
  0.5690  0.5690

 Free energy of the ion-electron system (eV)
  ---------------------------------------------------
  alpha Z        PSCENC =      1171.85765051
  Ewald energy   TEWEN  =    -22279.33572342
  -Hartree energ DENC   =    -10517.26710572
  -exchange      EXHF   =         0.00000000
  -V(xc)+E(xc)   XCENC  =      1500.78840881
  PAW double counting   =     31070.09021258   -32229.01192581
  entropy T*S    EENTRO =        -0.03084140
  eigenvalues    EBANDS =     -1287.26117897
  atomic energy  EATOM  =     32219.77639703
  Solvation  Ediel_sol  =         0.00000000
  ---------------------------------------------------
  free energy    TOTEN  =      -350.39410639 eV

  energy without entropy =     -350.36326499  energy(sigma->0) =     -350.37868569


--------------------------------------------------------------------------------------------------------




--------------------------------------- Iteration      1(   8)  ---------------------------------------


    POTLOK:  cpu time    0.1368: real time    0.1372
    SETDIJ:  cpu time    0.0250: real time    0.0250
     EDDAV:  cpu time    2.1203: real time    2.1254
    CHARGE:  cpu time    0.1319: real time    0.1322
    MIXING:  cpu time    0.0031: real time    0.0031
    --------------------------------------------
      LOOP:  cpu time    2.4172: real time    2.4229

 eigenvalue-minimisations  :  1536
 total energy-change (2. order) : 0.9102817E+01  (-0.1101134E+02)
 number of electron     370.0000117 magnetization      18.5012796
 augmentation part      121.2337875 magnetization      17.1572747

 Broyden mixing:
  rms(total) = 0.46788E+01    rms(broyden)= 0.46771E+01
  rms(prec ) = 0.57878E+01
  weight for this iteration     100.00

 eigenvalues of (default mixing * dielectric matrix)
  average eigenvalue GAMMA=   0.5314
  0.6449  0.6449  0.3045

 Free energy of the ion-electron system (eV)
  ---------------------------------------------------
  alpha Z        PSCENC =      1171.85765051
  Ewald energy   TEWEN  =    -22279.33572342
  -Hartree energ DENC   =    -10551.48872480
  -exchange      EXHF   =         0.00000000
  -V(xc)+E(xc)   XCENC  =      1493.06968244
  PAW double counting   =     32334.12288503   -33557.48230624
  entropy T*S    EENTRO =        -0.05179312
  eigenvalues    EBANDS =     -1171.75935648
  atomic energy  EATOM  =     32219.77639703
  Solvation  Ediel_sol  =         0.00000000
  ---------------------------------------------------
  free energy    TOTEN  =      -341.29128906 eV

  energy without entropy =     -341.23949593  energy(sigma->0) =     -341.26539250


--------------------------------------------------------------------------------------------------------




--------------------------------------- Iteration      1(   9)  ---------------------------------------


    POTLOK:  cpu time    0.1168: real time    0.1170
    SETDIJ:  cpu time    0.0229: real time    0.0230
     EDDAV:  cpu time    2.0954: real time    2.1004
    CHARGE:  cpu time    0.1211: real time    0.1214
    MIXING:  cpu time    0.0029: real time    0.0029
    --------------------------------------------
      LOOP:  cpu time    2.3591: real time    2.3647

 eigenvalue-minimisations  :  1440
 total energy-change (2. order) : 0.1007711E+01  (-0.6762325E+01)
 number of electron     370.0000129 magnetization      13.6725485
 augmentation part      120.7674988 magnetization      12.4907905

 Broyden mixing:
  rms(total) = 0.40538E+01    rms(broyden)= 0.40522E+01
  rms(prec ) = 0.52411E+01
  weight for this iteration     100.00

 eigenvalues of (default mixing * dielectric matrix)
  average eigenvalue GAMMA=   0.5535
  0.8759  0.6962  0.3963  0.2454

 Free energy of the ion-electron system (eV)
  ---------------------------------------------------
  alpha Z        PSCENC =      1171.85765051
  Ewald energy   TEWEN  =    -22279.33572342
  -Hartree energ DENC   =    -10533.47424889
  -exchange      EXHF   =         0.00000000
  -V(xc)+E(xc)   XCENC  =      1491.08341181
  PAW double counting   =     33030.83902304   -34265.91116521
  entropy T*S    EENTRO =        -0.01584183
  eigenvalues    EBANDS =     -1175.10308128
  atomic energy  EATOM  =     32219.77639703
  Solvation  Ediel_sol  =         0.00000000
  ---------------------------------------------------
  free energy    TOTEN  =      -340.28357826 eV

  energy without entropy =     -340.26773643  energy(sigma->0) =     -340.27565734


--------------------------------------------------------------------------------------------------------




--------------------------------------- Iteration      1(  10)  ---------------------------------------


    POTLOK:  cpu time    0.1210: real time    0.1213
    SETDIJ:  cpu time    0.0250: real time    0.0250
     EDDAV:  cpu time    2.2584: real time    2.2637
    CHARGE:  cpu time    0.1415: real time    0.1418
    MIXING:  cpu time    0.0042: real time    0.0042
    --------------------------------------------
      LOOP:  cpu time    2.5500: real time    2.5561

 eigenvalue-minimisations  :  1536
 total energy-change (2. order) : 0.4421551E+01  (-0.3963872E+01)
 number of electron     370.0000120 magnetization       5.9066135
 augmentation part      122.0494596 magnetization       4.5415025

 Broyden mixing:
  rms(total) = 0.23439E+01    rms(broyden)= 0.23424E+01
  rms(prec ) = 0.28900E+01
  weight for this iteration     100.00

 eigenvalues of (default mixing * dielectric matrix)
  average eigenvalue GAMMA=   0.6800
  1.6896  0.5105  0.5105  0.5168  0.1728

 Free energy of the ion-electron system (eV)
  ---------------------------------------------------
  alpha Z        PSCENC =      1171.85765051
  Ewald energy   TEWEN  =    -22279.33572342
  -Hartree energ DENC   =    -10512.30095554
  -exchange      EXHF   =         0.00000000
  -V(xc)+E(xc)   XCENC  =      1489.97094165
  PAW double counting   =     33699.90845968   -34938.79557981
  entropy T*S    EENTRO =        -0.02994590
  eigenvalues    EBANDS =     -1186.91327134
  atomic energy  EATOM  =     32219.77639703
  Solvation  Ediel_sol  =         0.00000000
  ---------------------------------------------------
  free energy    TOTEN  =      -335.86202713 eV

  energy without entropy =     -335.83208123  energy(sigma->0) =     -335.84705418


--------------------------------------------------------------------------------------------------------




--------------------------------------- Iteration      1(  11)  ---------------------------------------


    POTLOK:  cpu time    0.1249: real time    0.1252
    SETDIJ:  cpu time    0.0185: real time    0.0186
     EDDAV:  cpu time    2.0918: real time    2.0968
    CHARGE:  cpu time    0.1305: real time    0.1309
    MIXING:  cpu time    0.0043: real time    0.0043
    --------------------------------------------
      LOOP:  cpu time    2.3701: real time    2.3757

 eigenvalue-minimisations  :  1504
 total energy-change (2. order) : 0.2221930E+00  (-0.1036738E+01)
 number of electron     370.0000118 magnetization       3.5122938
 augmentation part      122.3239369 magnetization       3.2267976

 Broyden mixing:
  rms(total) = 0.17130E+01    rms(broyden)= 0.17123E+01
  rms(prec ) = 0.21628E+01
  weight for this iteration     100.00

 eigenvalues of (default mixing * dielectric matrix)
  average eigenvalue GAMMA=   0.6575
  1.8882  0.5349  0.5349  0.4727  0.3396  0.1746

 Free energy of the ion-electron system (eV)
  ---------------------------------------------------
  alpha Z        PSCENC =      1171.85765051
  Ewald energy   TEWEN  =    -22279.33572342
  -Hartree energ DENC   =    -10519.27767590
  -exchange      EXHF   =         0.00000000
  -V(xc)+E(xc)   XCENC  =      1490.36914229
  PAW double counting   =     34842.15781843   -36096.55762254
  entropy T*S    EENTRO =        -0.00070504
  eigenvalues    EBANDS =     -1164.62911552
  atomic energy  EATOM  =     32219.77639703
  Solvation  Ediel_sol  =         0.00000000
  ---------------------------------------------------
  free energy    TOTEN  =      -335.63983416 eV

  energy without entropy =     -335.63912912  energy(sigma->0) =     -335.63948164


--------------------------------------------------------------------------------------------------------




--------------------------------------- Iteration      1(  12)  ---------------------------------------


    POTLOK:  cpu time    0.1303: real time    0.1306
    SETDIJ:  cpu time    0.0173: real time    0.0174
     EDDAV:  cpu time    1.9716: real time    1.9763
    CHARGE:  cpu time    0.1511: real time    0.1514
    MIXING:  cpu time    0.0044: real time    0.0044
    --------------------------------------------
      LOOP:  cpu time    2.2747: real time    2.2801

 eigenvalue-minimisations  :  1296
 total energy-change (2. order) :-0.3192306E+00  (-0.2046797E+01)
 number of electron     370.0000124 magnetization       1.3743821
 augmentation part      122.1710093 magnetization       1.0260372

 Broyden mixing:
  rms(total) = 0.15939E+01    rms(broyden)= 0.15928E+01
  rms(prec ) = 0.20907E+01
  weight for this iteration     100.00

 eigenvalues of (default mixing * dielectric matrix)
  average eigenvalue GAMMA=   0.6373
  1.9737  0.5701  0.5701  0.5090  0.5090  0.1793  0.1497

 Free energy of the ion-electron system (eV)
  ---------------------------------------------------
  alpha Z        PSCENC =      1171.85765051
  Ewald energy   TEWEN  =    -22279.33572342
  -Hartree energ DENC   =    -10524.14452502
  -exchange      EXHF   =         0.00000000
  -V(xc)+E(xc)   XCENC  =      1490.58407569
  PAW double counting   =     35172.59196487   -36432.37638994
  entropy T*S    EENTRO =        -0.00001953
  eigenvalues    EBANDS =     -1154.91249499
  atomic energy  EATOM  =     32219.77639703
  Solvation  Ediel_sol  =         0.00000000
  ---------------------------------------------------
  free energy    TOTEN  =      -335.95906481 eV

  energy without entropy =     -335.95904528  energy(sigma->0) =     -335.95905504


--------------------------------------------------------------------------------------------------------




--------------------------------------- Iteration      1(  13)  ---------------------------------------


    POTLOK:  cpu time    0.1243: real time    0.1246
    SETDIJ:  cpu time    0.0172: real time    0.0172
     EDDAV:  cpu time    1.7557: real time    1.7599
    CHARGE:  cpu time    0.1090: real time    0.1093
    MIXING:  cpu time    0.0036: real time    0.0036
    --------------------------------------------
      LOOP:  cpu time    2.0098: real time    2.0146

 eigenvalue-minimisations  :  1248
 total energy-change (2. order) : 0.5189663E+00  (-0.7564912E+00)
 number of electron     370.0000119 magnetization       0.6269969
 augmentation part      122.2177838 magnetization       0.3880282

 Broyden mixing:
  rms(total) = 0.10826E+01    rms(broyden)= 0.10816E+01
  rms(prec ) = 0.15432E+01
  weight for this iteration     100.00

 eigenvalues of (default mixing * dielectric matrix)
  average eigenvalue GAMMA=   0.6411
  2.1267  0.6940  0.6940  0.4674  0.4674  0.3751  0.1755  0.1284

 Free energy of the ion-electron system (eV)
  ---------------------------------------------------
  alpha Z        PSCENC =      1171.85765051
  Ewald energy   TEWEN  =    -22279.33572342
  -Hartree energ DENC   =    -10526.56020402
  -exchange      EXHF   =         0.00000000
  -V(xc)+E(xc)   XCENC  =      1490.66393500
  PAW double counting   =     35443.38098245   -36706.51711039
  entropy T*S    EENTRO =        -0.01878527
  eigenvalues    EBANDS =     -1148.68724039
  atomic energy  EATOM  =     32219.77639703
  Solvation  Ediel_sol  =         0.00000000
  ---------------------------------------------------
  free energy    TOTEN  =      -335.44009850 eV

  energy without entropy =     -335.42131323  energy(sigma->0) =     -335.43070586


--------------------------------------------------------------------------------------------------------




--------------------------------------- Iteration      1(  14)  ---------------------------------------


    POTLOK:  cpu time    0.1198: real time    0.1201
    SETDIJ:  cpu time    0.0194: real time    0.0195
     EDDAV:  cpu time    1.7933: real time    1.7975
    CHARGE:  cpu time    0.1516: real time    0.1519
    MIXING:  cpu time    0.0048: real time    0.0048
    --------------------------------------------
      LOOP:  cpu time    2.0889: real time    2.0938

 eigenvalue-minimisations  :  1216
 total energy-change (2. order) : 0.2573657E+00  (-0.5163973E+00)
 number of electron     370.0000121 magnetization       0.4107546
 augmentation part      122.0661454 magnetization       0.1972460

 Broyden mixing:
  rms(total) = 0.66764E+00    rms(broyden)= 0.66684E+00
  rms(prec ) = 0.91186E+00
  weight for this iteration     100.00

 eigenvalues of (default mixing * dielectric matrix)
  average eigenvalue GAMMA=   0.6488
  2.1129  0.9017  0.9017  0.5042  0.5042  0.4419  0.1914  0.1719  0.1090

 Free energy of the ion-electron system (eV)
  ---------------------------------------------------
  alpha Z        PSCENC =      1171.85765051
  Ewald energy   TEWEN  =    -22279.33572342
  -Hartree energ DENC   =    -10529.10941070
  -exchange      EXHF   =         0.00000000
  -V(xc)+E(xc)   XCENC  =      1490.69443453
  PAW double counting   =     35552.98814106   -36818.07513835
  entropy T*S    EENTRO =        -0.00762208
  eigenvalues    EBANDS =     -1143.97146140
  atomic energy  EATOM  =     32219.77639703
  Solvation  Ediel_sol  =         0.00000000
  ---------------------------------------------------
  free energy    TOTEN  =      -335.18273282 eV

  energy without entropy =     -335.17511074  energy(sigma->0) =     -335.17892178


--------------------------------------------------------------------------------------------------------




--------------------------------------- Iteration      1(  15)  ---------------------------------------


    POTLOK:  cpu time    0.1187: real time    0.1190
    SETDIJ:  cpu time    0.0213: real time    0.0214
     EDDAV:  cpu time    1.9921: real time    1.9968
    CHARGE:  cpu time    0.1236: real time    0.1239
    MIXING:  cpu time    0.0056: real time    0.0056
    --------------------------------------------
      LOOP:  cpu time    2.2613: real time    2.2666

 eigenvalue-minimisations  :  1456
 total energy-change (2. order) : 0.8017598E-01  (-0.1290758E+00)
 number of electron     370.0000120 magnetization      -0.1062986
 augmentation part      121.9391728 magnetization      -0.1729169

 Broyden mixing:
  rms(total) = 0.29261E+00    rms(broyden)= 0.29216E+00
  rms(prec ) = 0.40260E+00
  weight for this iteration     100.00

 eigenvalues of (default mixing * dielectric matrix)
  average eigenvalue GAMMA=   0.6923
  2.3369  1.0330  1.0330  0.5432  0.5432  0.4881  0.4881  0.1840  0.1674  0.1062

 Free energy of the ion-electron system (eV)
  ---------------------------------------------------
  alpha Z        PSCENC =      1171.85765051
  Ewald energy   TEWEN  =    -22279.33572342
  -Hartree energ DENC   =    -10529.88649263
  -exchange      EXHF   =         0.00000000
  -V(xc)+E(xc)   XCENC  =      1490.52726421
  PAW double counting   =     35594.40306978   -36859.21392518
  entropy T*S    EENTRO =        -0.01976665
  eigenvalues    EBANDS =     -1143.21103049
  atomic energy  EATOM  =     32219.77639703
  Solvation  Ediel_sol  =         0.00000000
  ---------------------------------------------------
  free energy    TOTEN  =      -335.10255684 eV

  energy without entropy =     -335.08279019  energy(sigma->0) =     -335.09267351


--------------------------------------------------------------------------------------------------------




--------------------------------------- Iteration      1(  16)  ---------------------------------------


    POTLOK:  cpu time    0.1353: real time    0.1356
    SETDIJ:  cpu time    0.0172: real time    0.0172
     EDDAV:  cpu time    1.9683: real time    1.9729
    CHARGE:  cpu time    0.1214: real time    0.1217
    MIXING:  cpu time    0.0052: real time    0.0052
    --------------------------------------------
      LOOP:  cpu time    2.2474: real time    2.2527

 eigenvalue-minimisations  :  1312
 total energy-change (2. order) : 0.1478450E-01  (-0.3457665E-01)
 number of electron     370.0000121 magnetization      -0.1860768
 augmentation part      122.0578713 magnetization      -0.1785853

 Broyden mixing:
  rms(total) = 0.20108E+00    rms(broyden)= 0.20091E+00
  rms(prec ) = 0.27310E+00
  weight for this iteration     100.00

 eigenvalues of (default mixing * dielectric matrix)
  average eigenvalue GAMMA=   0.6729
  2.3662  1.0396  1.0396  0.5701  0.5701  0.4922  0.4922  0.3749  0.1832  0.1676
  0.1060

 Free energy of the ion-electron system (eV)
  ---------------------------------------------------
  alpha Z        PSCENC =      1171.85765051
  Ewald energy   TEWEN  =    -22279.33572342
  -Hartree energ DENC   =    -10528.67134602
  -exchange      EXHF   =         0.00000000
  -V(xc)+E(xc)   XCENC  =      1490.46729797
  PAW double counting   =     35678.94923492   -36943.04429145
  entropy T*S    EENTRO =        -0.02346944
  eigenvalues    EBANDS =     -1145.06352245
  atomic energy  EATOM  =     32219.77639703
  Solvation  Ediel_sol  =         0.00000000
  ---------------------------------------------------
  free energy    TOTEN  =      -335.08777234 eV

  energy without entropy =     -335.06430290  energy(sigma->0) =     -335.07603762


--------------------------------------------------------------------------------------------------------




--------------------------------------- Iteration      1(  17)  ---------------------------------------


    POTLOK:  cpu time    0.1366: real time    0.1369
    SETDIJ:  cpu time    0.0250: real time    0.0250
     EDDAV:  cpu time    1.8586: real time    1.8630
    CHARGE:  cpu time    0.1119: real time    0.1122
    MIXING:  cpu time    0.0054: real time    0.0054
    --------------------------------------------
      LOOP:  cpu time    2.1374: real time    2.1425

 eigenvalue-minimisations  :  1248
 total energy-change (2. order) : 0.8929611E-02  (-0.1005357E-01)
 number of electron     370.0000121 magnetization      -0.1212272
 augmentation part      122.0529599 magnetization      -0.1045879

 Broyden mixing:
  rms(total) = 0.10296E+00    rms(broyden)= 0.10286E+00
  rms(prec ) = 0.12714E+00
  weight for this iteration     100.00

 eigenvalues of (default mixing * dielectric matrix)
  average eigenvalue GAMMA=   0.6684
  2.3208  1.1057  0.8190  0.8190  0.7816  0.5165  0.5165  0.4637  0.2215  0.1837
  0.1674  0.1060

 Free energy of the ion-electron system (eV)
  ---------------------------------------------------
  alpha Z        PSCENC =      1171.85765051
  Ewald energy   TEWEN  =    -22279.33572342
  -Hartree energ DENC   =    -10529.42789795
  -exchange      EXHF   =         0.00000000
  -V(xc)+E(xc)   XCENC  =      1490.48830162
  PAW double counting   =     35694.14063530   -36957.99057724
  entropy T*S    EENTRO =        -0.02109864
  eigenvalues    EBANDS =     -1144.56652994
  atomic energy  EATOM  =     32219.77639703
  Solvation  Ediel_sol  =         0.00000000
  ---------------------------------------------------
  free energy    TOTEN  =      -335.07884273 eV

  energy without entropy =     -335.05774409  energy(sigma->0) =     -335.06829341


--------------------------------------------------------------------------------------------------------




--------------------------------------- Iteration      1(  18)  ---------------------------------------


    POTLOK:  cpu time    0.1363: real time    0.1366
    SETDIJ:  cpu time    0.0257: real time    0.0257
     EDDAV:  cpu time    1.9561: real time    1.9608
    CHARGE:  cpu time    0.1492: real time    0.1496
    MIXING:  cpu time    0.0050: real time    0.0050
    --------------------------------------------
      LOOP:  cpu time    2.2723: real time    2.2777

 eigenvalue-minimisations  :  1328
 total energy-change (2. order) : 0.1536471E-02  (-0.3186301E-02)
 number of electron     370.0000121 magnetization      -0.1036714
 augmentation part      122.0406437 magnetization      -0.0678218

 Broyden mixing:
  rms(total) = 0.96571E-01    rms(broyden)= 0.96512E-01
  rms(prec ) = 0.99126E-01
  weight for this iteration     100.00

 eigenvalues of (default mixing * dielectric matrix)
  average eigenvalue GAMMA=   0.6655
  2.2829  1.2098  0.5082  0.9155  0.9155  0.5278  0.5278  0.5871  0.5048  0.1674
  0.1836  0.2150  0.1060

 Free energy of the ion-electron system (eV)
  ---------------------------------------------------
  alpha Z        PSCENC =      1171.85765051
  Ewald energy   TEWEN  =    -22279.33572342
  -Hartree energ DENC   =    -10530.96789298
  -exchange      EXHF   =         0.00000000
  -V(xc)+E(xc)   XCENC  =      1490.54654477
  PAW double counting   =     35691.34664613   -36954.65646715
  entropy T*S    EENTRO =        -0.02508033
  eigenvalues    EBANDS =     -1143.61938083
  atomic energy  EATOM  =     32219.77639703
  Solvation  Ediel_sol  =         0.00000000
  ---------------------------------------------------
  free energy    TOTEN  =      -335.07730626 eV

  energy without entropy =     -335.05222593  energy(sigma->0) =     -335.06476609


--------------------------------------------------------------------------------------------------------




--------------------------------------- Iteration      1(  19)  ---------------------------------------


    POTLOK:  cpu time    0.1143: real time    0.1145
    SETDIJ:  cpu time    0.0192: real time    0.0193
     EDDAV:  cpu time    1.6104: real time    1.6143
    CHARGE:  cpu time    0.1582: real time    0.1586
    MIXING:  cpu time    0.0076: real time    0.0076
    --------------------------------------------
      LOOP:  cpu time    1.9097: real time    1.9143

 eigenvalue-minimisations  :  1152
 total energy-change (2. order) : 0.6017610E-03  (-0.4657443E-03)
 number of electron     370.0000121 magnetization      -0.2211933
 augmentation part      122.0420451 magnetization      -0.1868495

 Broyden mixing:
  rms(total) = 0.11737E+00    rms(broyden)= 0.11736E+00
  rms(prec ) = 0.11921E+00
  weight for this iteration     100.00

 eigenvalues of (default mixing * dielectric matrix)
  average eigenvalue GAMMA=   0.7150
  2.4271  1.1871  1.1871  1.0102  0.7216  0.7216  0.5251  0.5251  0.5175  0.5175
  0.1674  0.1835  0.2135  0.1060

 Free energy of the ion-electron system (eV)
  ---------------------------------------------------
  alpha Z        PSCENC =      1171.85765051
  Ewald energy   TEWEN  =    -22279.33572342
  -Hartree energ DENC   =    -10530.87008804
  -exchange      EXHF   =         0.00000000
  -V(xc)+E(xc)   XCENC  =      1490.54010537
  PAW double counting   =     35688.54775148   -36951.86839243
  entropy T*S    EENTRO =        -0.02468381
  eigenvalues    EBANDS =     -1143.69972117
  atomic energy  EATOM  =     32219.77639703
  Solvation  Ediel_sol  =         0.00000000
  ---------------------------------------------------
  free energy    TOTEN  =      -335.07670450 eV

  energy without entropy =     -335.05202068  energy(sigma->0) =     -335.06436259


--------------------------------------------------------------------------------------------------------




--------------------------------------- Iteration      1(  20)  ---------------------------------------


    POTLOK:  cpu time    0.1337: real time    0.1341
    SETDIJ:  cpu time    0.0211: real time    0.0211
     EDDAV:  cpu time    1.9301: real time    1.9347
    CHARGE:  cpu time    0.1127: real time    0.1130
    MIXING:  cpu time    0.0060: real time    0.0060
    --------------------------------------------
      LOOP:  cpu time    2.2036: real time    2.2089

 eigenvalue-minimisations  :  1280
 total energy-change (2. order) :-0.1156000E-01  (-0.6130992E-02)
 number of electron     370.0000121 magnetization      -0.1970989
 augmentation part      122.0576810 magnetization      -0.1762507

 Broyden mixing:
  rms(total) = 0.17160E+00    rms(broyden)= 0.17151E+00
  rms(prec ) = 0.17770E+00
  weight for this iteration     100.00

 eigenvalues of (default mixing * dielectric matrix)
  average eigenvalue GAMMA=   0.7613
  2.3612  1.5491  1.5491  1.3175  0.8378  0.8378  0.5301  0.5301  0.5075  0.5075
  0.1060  0.1674  0.1834  0.2177  0.2177

 Free energy of the ion-electron system (eV)
  ---------------------------------------------------
  alpha Z        PSCENC =      1171.85765051
  Ewald energy   TEWEN  =    -22279.33572342
  -Hartree energ DENC   =    -10531.86391964
  -exchange      EXHF   =         0.00000000
  -V(xc)+E(xc)   XCENC  =      1490.58955847
  PAW double counting   =     35706.81356940   -36969.63873067
  entropy T*S    EENTRO =        -0.01984185
  eigenvalues    EBANDS =     -1143.26722433
  atomic energy  EATOM  =     32219.77639703
  Solvation  Ediel_sol  =         0.00000000
  ---------------------------------------------------
  free energy    TOTEN  =      -335.08826449 eV

  energy without entropy =     -335.06842264  energy(sigma->0) =     -335.07834357


--------------------------------------------------------------------------------------------------------




--------------------------------------- Iteration      1(  21)  ---------------------------------------


    POTLOK:  cpu time    0.1287: real time    0.1290
    SETDIJ:  cpu time    0.0171: real time    0.0172
     EDDAV:  cpu time    2.2656: real time    2.2710
    CHARGE:  cpu time    0.1414: real time    0.1417
    MIXING:  cpu time    0.0050: real time    0.0050
    --------------------------------------------
      LOOP:  cpu time    2.5578: real time    2.5639

 eigenvalue-minimisations  :  1584
 total energy-change (2. order) :-0.1477774E-01  (-0.4928545E-02)
 number of electron     370.0000121 magnetization      -0.1747159
 augmentation part      122.0510324 magnetization      -0.1694901

 Broyden mixing:
  rms(total) = 0.23900E+00    rms(broyden)= 0.23893E+00
  rms(prec ) = 0.24502E+00
  weight for this iteration     100.00

 eigenvalues of (default mixing * dielectric matrix)
  average eigenvalue GAMMA=   0.7415
  2.3204  1.4978  1.2777  1.2777  0.7678  0.8493  0.8493  0.5290  0.5290  0.4984
  0.4984  0.2957  0.1674  0.1834  0.2165  0.1060

 Free energy of the ion-electron system (eV)
  ---------------------------------------------------
  alpha Z        PSCENC =      1171.85765051
  Ewald energy   TEWEN  =    -22279.33572342
  -Hartree energ DENC   =    -10532.11811158
  -exchange      EXHF   =         0.00000000
  -V(xc)+E(xc)   XCENC  =      1490.59494869
  PAW double counting   =     35702.75875187   -36965.36690608
  entropy T*S    EENTRO =        -0.01589407
  eigenvalues    EBANDS =     -1143.25415518
  atomic energy  EATOM  =     32219.77639703
  Solvation  Ediel_sol  =         0.00000000
  ---------------------------------------------------
  free energy    TOTEN  =      -335.10304224 eV

  energy without entropy =     -335.08714817  energy(sigma->0) =     -335.09509520


--------------------------------------------------------------------------------------------------------




--------------------------------------- Iteration      1(  22)  ---------------------------------------


    POTLOK:  cpu time    0.1120: real time    0.1122
    SETDIJ:  cpu time    0.0253: real time    0.0253
     EDDAV:  cpu time    1.9476: real time    1.9522
    CHARGE:  cpu time    0.1122: real time    0.1125
    MIXING:  cpu time    0.0053: real time    0.0053
    --------------------------------------------
      LOOP:  cpu time    2.2024: real time    2.2076

 eigenvalue-minimisations  :  1376
 total energy-change (2. order) : 0.1373984E-01  (-0.5312403E-03)
 number of electron     370.0000121 magnetization      -0.1804718
 augmentation part      122.0474671 magnetization      -0.1670401

 Broyden mixing:
  rms(total) = 0.25888E+00    rms(broyden)= 0.25888E+00
  rms(prec ) = 0.26166E+00
  weight for this iteration     100.00

 eigenvalues of (default mixing * dielectric matrix)
  average eigenvalue GAMMA=   0.7344
  2.3382  1.3144  1.3144  1.1054  1.1054  0.7702  0.7702  0.7183  0.5288  0.5288
  0.4940  0.4940  0.3293  0.1060  0.1674  0.1835  0.2159

 Free energy of the ion-electron system (eV)
  ---------------------------------------------------
  alpha Z        PSCENC =      1171.85765051
  Ewald energy   TEWEN  =    -22279.33572342
  -Hartree energ DENC   =    -10532.16732044
  -exchange      EXHF   =         0.00000000
  -V(xc)+E(xc)   XCENC  =      1490.59485990
  PAW double counting   =     35701.25483111   -36963.86398302
  entropy T*S    EENTRO =        -0.01788569
  eigenvalues    EBANDS =     -1143.18812839
  atomic energy  EATOM  =     32219.77639703
  Solvation  Ediel_sol  =         0.00000000
  ---------------------------------------------------
  free energy    TOTEN  =      -335.08930240 eV

  energy without entropy =     -335.07141671  energy(sigma->0) =     -335.08035956


--------------------------------------------------------------------------------------------------------




--------------------------------------- Iteration      1(  23)  ---------------------------------------


    POTLOK:  cpu time    0.1097: real time    0.1099
    SETDIJ:  cpu time    0.0172: real time    0.0172
     EDDAV:  cpu time    1.6107: real time    1.6145
    CHARGE:  cpu time    0.1123: real time    0.1125
    MIXING:  cpu time    0.0055: real time    0.0055
    --------------------------------------------
      LOOP:  cpu time    1.8553: real time    1.8597

 eigenvalue-minimisations  :  1248
 total energy-change (2. order) :-0.1748152E-01  (-0.2136977E-02)
 number of electron     370.0000121 magnetization      -0.1720867
 augmentation part      122.0491290 magnetization      -0.1738218

 Broyden mixing:
  rms(total) = 0.26603E+00    rms(broyden)= 0.26602E+00
  rms(prec ) = 0.27096E+00
  weight for this iteration     100.00

 eigenvalues of (default mixing * dielectric matrix)
  average eigenvalue GAMMA=   0.7734
  2.3385  1.4585  1.4585  1.3148  1.3148  1.0354  1.0354  0.6826  0.5299  0.5299
  0.4977  0.4977  0.1060  0.1674  0.1835  0.2778  0.2778  0.2149

 Free energy of the ion-electron system (eV)
  ---------------------------------------------------
  alpha Z        PSCENC =      1171.85765051
  Ewald energy   TEWEN  =    -22279.33572342
  -Hartree energ DENC   =    -10532.20279586
  -exchange      EXHF   =         0.00000000
  -V(xc)+E(xc)   XCENC  =      1490.60027535
  PAW double counting   =     35701.97453042   -36964.56418123
  entropy T*S    EENTRO =        -0.01478777
  eigenvalues    EBANDS =     -1143.19814894
  atomic energy  EATOM  =     32219.77639703
  Solvation  Ediel_sol  =         0.00000000
  ---------------------------------------------------
  free energy    TOTEN  =      -335.10678392 eV

  energy without entropy =     -335.09199615  energy(sigma->0) =     -335.09939004


--------------------------------------------------------------------------------------------------------




--------------------------------------- Iteration      1(  24)  ---------------------------------------


    POTLOK:  cpu time    0.1103: real time    0.1105
    SETDIJ:  cpu time    0.0174: real time    0.0174
     EDDAV:  cpu time    1.9142: real time    1.9187
    CHARGE:  cpu time    0.1116: real time    0.1118
    MIXING:  cpu time    0.0059: real time    0.0060
    --------------------------------------------
      LOOP:  cpu time    2.1593: real time    2.1644

 eigenvalue-minimisations  :  1552
 total energy-change (2. order) :-0.1090016E-01  (-0.1567592E-02)
 number of electron     370.0000121 magnetization      -0.1973080
 augmentation part      122.0486117 magnetization      -0.2057194

 Broyden mixing:
  rms(total) = 0.28477E+00    rms(broyden)= 0.28475E+00
  rms(prec ) = 0.28916E+00
  weight for this iteration     100.00

 eigenvalues of (default mixing * dielectric matrix)
  average eigenvalue GAMMA=   0.7574
  2.2681  1.0556  1.3939  1.3939  1.0641  1.0641  1.0423  1.0423  0.6982  0.5299
  0.5299  0.4978  0.4978  0.3206  0.3206  0.1060  0.2155  0.1835  0.1674

 Free energy of the ion-electron system (eV)
  ---------------------------------------------------
  alpha Z        PSCENC =      1171.85765051
  Ewald energy   TEWEN  =    -22279.33572342
  -Hartree energ DENC   =    -10532.26354306
  -exchange      EXHF   =         0.00000000
  -V(xc)+E(xc)   XCENC  =      1490.60817143
  PAW double counting   =     35702.32454814   -36964.91149170
  entropy T*S    EENTRO =        -0.01251851
  eigenvalues    EBANDS =     -1143.16117450
  atomic energy  EATOM  =     32219.77639703
  Solvation  Ediel_sol  =         0.00000000
  ---------------------------------------------------
  free energy    TOTEN  =      -335.11768408 eV

  energy without entropy =     -335.10516557  energy(sigma->0) =     -335.11142482


--------------------------------------------------------------------------------------------------------




--------------------------------------- Iteration      1(  25)  ---------------------------------------


    POTLOK:  cpu time    0.1107: real time    0.1109
    SETDIJ:  cpu time    0.0173: real time    0.0174
     EDDAV:  cpu time    1.7050: real time    1.7090
    CHARGE:  cpu time    0.1134: real time    0.1137
    MIXING:  cpu time    0.0061: real time    0.0061
    --------------------------------------------
      LOOP:  cpu time    1.9525: real time    1.9572

 eigenvalue-minimisations  :  1344
 total energy-change (2. order) : 0.3071649E-01  (-0.3418939E-02)
 number of electron     370.0000121 magnetization      -0.3046146
 augmentation part      122.0481708 magnetization      -0.3004932

 Broyden mixing:
  rms(total) = 0.29476E+00    rms(broyden)= 0.29475E+00
  rms(prec ) = 0.29852E+00
  weight for this iteration     100.00

 eigenvalues of (default mixing * dielectric matrix)
  average eigenvalue GAMMA=   1.1235
  7.6785  2.3014  1.8268  1.8268  1.3509  1.3509  0.8623  0.8623  0.6072  0.5312
  0.5312  0.5008  0.5008  0.3510  0.3510  0.3650  0.1060  0.1674  0.1835  0.2156

 Free energy of the ion-electron system (eV)
  ---------------------------------------------------
  alpha Z        PSCENC =      1171.85765051
  Ewald energy   TEWEN  =    -22279.33572342
  -Hartree energ DENC   =    -10532.12725876
  -exchange      EXHF   =         0.00000000
  -V(xc)+E(xc)   XCENC  =      1490.58889673
  PAW double counting   =     35701.54347705   -36964.03749390
  entropy T*S    EENTRO =        -0.01525008
  eigenvalues    EBANDS =     -1143.33766275
  atomic energy  EATOM  =     32219.77639703
  Solvation  Ediel_sol  =         0.00000000
  ---------------------------------------------------
  free energy    TOTEN  =      -335.08696758 eV

  energy without entropy =     -335.07171750  energy(sigma->0) =     -335.07934254


--------------------------------------------------------------------------------------------------------




--------------------------------------- Iteration      1(  26)  ---------------------------------------


    POTLOK:  cpu time    0.1101: real time    0.1104
    SETDIJ:  cpu time    0.0172: real time    0.0172
     EDDAV:  cpu time    1.7656: real time    1.7698
    CHARGE:  cpu time    0.1353: real time    0.1356
    MIXING:  cpu time    0.0063: real time    0.0063
    --------------------------------------------
      LOOP:  cpu time    2.0345: real time    2.0393

 eigenvalue-minimisations  :  1392
 total energy-change (2. order) : 0.6141926E-01  (-0.7208783E-01)
 number of electron     370.0000121 magnetization      -0.2977833
 augmentation part      122.0391320 magnetization      -0.2555788

 Broyden mixing:
  rms(total) = 0.10520E+00    rms(broyden)= 0.10333E+00
  rms(prec ) = 0.11427E+00
  weight for this iteration     100.00

 eigenvalues of (default mixing * dielectric matrix)
  average eigenvalue GAMMA=   1.0484
  7.4723  2.3388  1.6635  1.6635  1.3314  1.3314  0.8396  0.8396  0.5313  0.5313
  0.5861  0.5010  0.5010  0.3330  0.3330  0.3168  0.1060  0.1674  0.1835  0.2155
  0.2295

 Free energy of the ion-electron system (eV)
  ---------------------------------------------------
  alpha Z        PSCENC =      1171.85765051
  Ewald energy   TEWEN  =    -22279.33572342
  -Hartree energ DENC   =    -10531.51181905
  -exchange      EXHF   =         0.00000000
  -V(xc)+E(xc)   XCENC  =      1490.55445802
  PAW double counting   =     35702.74621380   -36965.16277006
  entropy T*S    EENTRO =        -0.01952992
  eigenvalues    EBANDS =     -1143.93042523
  atomic energy  EATOM  =     32219.77639703
  Solvation  Ediel_sol  =         0.00000000
  ---------------------------------------------------
  free energy    TOTEN  =      -335.02554832 eV

  energy without entropy =     -335.00601840  energy(sigma->0) =     -335.01578336


--------------------------------------------------------------------------------------------------------




--------------------------------------- Iteration      1(  27)  ---------------------------------------


    POTLOK:  cpu time    0.1225: real time    0.1228
    SETDIJ:  cpu time    0.0248: real time    0.0249
     EDDAV:  cpu time    2.0547: real time    2.0596
    CHARGE:  cpu time    0.1392: real time    0.1395
    MIXING:  cpu time    0.0079: real time    0.0079
    --------------------------------------------
      LOOP:  cpu time    2.3492: real time    2.3547

 eigenvalue-minimisations  :  1376
 total energy-change (2. order) :-0.6533434E-01  (-0.2108191E-01)
 number of electron     370.0000121 magnetization      -0.2884481
 augmentation part      122.0377227 magnetization      -0.2631909

 Broyden mixing:
  rms(total) = 0.21042E+00    rms(broyden)= 0.20996E+00
  rms(prec ) = 0.21680E+00
  weight for this iteration     100.00

 eigenvalues of (default mixing * dielectric matrix)
  average eigenvalue GAMMA=   0.9934
  7.1284  2.3755  1.5879  1.5879  1.2812  1.2812  0.8376  0.8376  0.5320  0.5320
  0.5836  0.5037  0.5037  0.3809  0.3575  0.3575  0.1060  0.1674  0.1835  0.2156
  0.2567  0.2567

 Free energy of the ion-electron system (eV)
  ---------------------------------------------------
  alpha Z        PSCENC =      1171.85765051
[...]

  length of vectors
     5.610854274  9.848229689  9.848229689     0.178225980  0.109172973  0.109172973


 FORCES acting on ions
    electron-ion (+dipol)            ewald-force                    non-local-force                 convergence-correction
 -----------------------------------------------------------------------------------------------
   -.965E+01 0.988E-06 -.281E-06   0.979E+01 -.692E-05 0.288E-07   -.152E+00 0.000E+00 0.000E+00   -.299E-02 -.965E-10 0.252E-09
   -.435E+01 0.380E+01 -.380E+01   0.408E+01 -.382E+01 0.382E+01   0.265E+00 0.691E-02 -.691E-02   -.110E-02 0.286E-02 -.286E-02
   -.435E+01 -.380E+01 0.380E+01   0.408E+01 0.382E+01 -.382E+01   0.265E+00 -.691E-02 0.691E-02   -.110E-02 -.286E-02 0.286E-02
   0.435E+01 0.380E+01 -.380E+01   -.408E+01 -.382E+01 0.382E+01   -.265E+00 0.691E-02 -.691E-02   0.110E-02 0.286E-02 -.286E-02
   0.435E+01 -.380E+01 0.380E+01   -.408E+01 0.382E+01 -.382E+01   -.265E+00 -.691E-02 0.691E-02   0.110E-02 -.286E-02 0.286E-02
   0.965E+01 -.988E-06 0.281E-06   -.979E+01 0.692E-05 -.288E-07   0.152E+00 0.000E+00 0.000E+00   0.299E-02 0.963E-10 -.252E-09
   -.445E-13 0.505E-13 0.119E-12   -.194E-13 -.462E-13 -.746E-13   0.000E+00 0.103E-24 -.103E-24   0.197E-11 -.324E-11 -.755E-12
   0.881E-12 -.751E-12 0.125E-11   -.156E-12 0.173E-12 0.666E-13   -.103E-24 -.517E-25 0.517E-25   -.708E-12 0.465E-12 -.210E-11
   -.134E-11 -.446E-11 0.564E-11   0.711E-13 0.483E-13 0.617E-13   0.000E+00 0.000E+00 0.000E+00   -.103E-11 -.909E-12 -.789E-12
   0.257E-11 -.288E-12 -.858E-13   0.124E-12 0.870E-13 -.568E-13   0.000E+00 0.103E-24 -.103E-24   0.163E-12 -.570E-12 -.750E-12
   -.132E-10 -.119E-10 0.490E-11   -.133E-12 -.604E-13 -.711E-14   0.000E+00 -.207E-24 0.207E-24   0.242E-11 0.837E-12 0.299E-11
   0.128E-11 0.751E-12 -.680E-12   -.121E-12 0.204E-13 0.190E-13   0.103E-24 0.000E+00 0.000E+00   -.134E-11 0.239E-11 -.706E-12
   0.136E-11 -.829E-12 0.874E-12   -.888E-13 -.324E-13 0.892E-13   0.000E+00 0.000E+00 0.000E+00   -.102E-11 0.101E-11 0.842E-12
   0.119E-11 -.583E-11 0.495E-11   -.551E-13 0.142E-12 -.888E-14   0.000E+00 -.103E-24 0.103E-24   0.118E-11 0.293E-12 0.529E-12
   -.164E+02 -.721E+01 0.721E+01   0.169E+02 0.731E+01 -.731E+01   -.459E+00 -.105E+00 0.105E+00   -.443E-02 0.430E-02 -.430E-02
   0.176E+02 0.611E+01 -.611E+01   -.182E+02 -.619E+01 0.619E+01   0.536E+00 0.823E-01 -.823E-01   -.103E-01 0.712E-03 -.712E-03
   0.164E+02 0.721E+01 -.721E+01   -.169E+02 -.731E+01 0.731E+01   0.459E+00 0.105E+00 -.105E+00   0.443E-02 -.430E-02 0.430E-02
   -.176E+02 -.611E+01 0.611E+01   0.182E+02 0.619E+01 -.619E+01   -.536E+00 -.823E-01 0.823E-01   0.103E-01 -.712E-03 0.712E-03
   -.164E+02 0.721E+01 -.721E+01   0.169E+02 -.731E+01 0.731E+01   -.459E+00 0.105E+00 -.105E+00   -.443E-02 -.430E-02 0.430E-02
   0.164E+02 -.721E+01 0.721E+01   -.169E+02 0.731E+01 -.731E+01   0.459E+00 -.105E+00 0.105E+00   0.443E-02 0.430E-02 -.430E-02
   0.176E+02 -.611E+01 0.611E+01   -.182E+02 0.619E+01 -.619E+01   0.536E+00 -.823E-01 0.823E-01   -.103E-01 -.712E-03 0.712E-03
   -.176E+02 0.611E+01 -.611E+01   0.182E+02 -.619E+01 0.619E+01   -.536E+00 0.823E-01 -.823E-01   0.103E-01 0.712E-03 -.712E-03
   0.202E+03 0.209E+03 0.209E+03   -.215E+03 -.225E+03 -.225E+03   0.136E+02 0.161E+02 0.161E+02   -.129E-01 -.477E-02 -.477E-02
   0.163E+03 0.188E+03 0.168E+03   -.172E+03 -.200E+03 -.178E+03   0.893E+01 0.114E+02 0.103E+02   0.598E-02 -.864E-03 -.637E-02
   0.163E+03 0.168E+03 0.188E+03   -.172E+03 -.178E+03 -.200E+03   0.893E+01 0.103E+02 0.114E+02   0.598E-02 -.637E-02 -.864E-03
   0.180E+03 0.174E+03 0.174E+03   -.189E+03 -.185E+03 -.185E+03   0.894E+01 0.111E+02 0.111E+02   0.114E-01 -.357E-02 -.357E-02
   0.202E+03 -.209E+03 -.209E+03   -.215E+03 0.225E+03 0.225E+03   0.136E+02 -.161E+02 -.161E+02   -.129E-01 0.477E-02 0.477E-02
   0.163E+03 -.168E+03 -.188E+03   -.172E+03 0.178E+03 0.200E+03   0.893E+01 -.103E+02 -.114E+02   0.598E-02 0.637E-02 0.864E-03
   0.163E+03 -.188E+03 -.168E+03   -.172E+03 0.200E+03 0.178E+03   0.893E+01 -.114E+02 -.103E+02   0.598E-02 0.864E-03 0.637E-02
   0.180E+03 -.174E+03 -.174E+03   -.189E+03 0.185E+03 0.185E+03   0.894E+01 -.111E+02 -.111E+02   0.114E-01 0.357E-02 0.357E-02
   -.194E+03 0.220E+03 -.220E+03   0.207E+03 -.235E+03 0.235E+03   -.127E+02 0.151E+02 -.151E+02   0.222E-02 0.462E-02 -.462E-02
   -.154E+03 0.192E+03 -.192E+03   0.161E+03 -.203E+03 0.203E+03   -.696E+01 0.110E+02 -.110E+02   0.362E-02 0.129E-01 -.129E-01
   -.165E+03 0.183E+03 -.183E+03   0.173E+03 -.194E+03 0.194E+03   -.803E+01 0.110E+02 -.110E+02   0.316E-02 -.828E-02 0.828E-02
   -.149E+03 0.193E+03 -.193E+03   0.157E+03 -.204E+03 0.204E+03   -.747E+01 0.109E+02 -.109E+02   0.556E-02 0.524E-02 -.524E-02
   -.194E+03 -.220E+03 0.220E+03   0.207E+03 0.235E+03 -.235E+03   -.127E+02 -.151E+02 0.151E+02   0.222E-02 -.462E-02 0.462E-02
   -.165E+03 -.183E+03 0.183E+03   0.173E+03 0.194E+03 -.194E+03   -.803E+01 -.110E+02 0.110E+02   0.316E-02 0.828E-02 -.828E-02
   -.154E+03 -.192E+03 0.192E+03   0.161E+03 0.203E+03 -.203E+03   -.696E+01 -.110E+02 0.110E+02   0.362E-02 -.129E-01 0.129E-01
   -.149E+03 -.193E+03 0.193E+03   0.157E+03 0.204E+03 -.204E+03   -.747E+01 -.109E+02 0.109E+02   0.556E-02 -.524E-02 0.524E-02
   -.180E+03 -.174E+03 -.174E+03   0.189E+03 0.185E+03 0.185E+03   -.894E+01 -.111E+02 -.111E+02   -.114E-01 0.357E-02 0.357E-02
   -.163E+03 -.168E+03 -.188E+03   0.172E+03 0.178E+03 0.200E+03   -.893E+01 -.103E+02 -.114E+02   -.598E-02 0.637E-02 0.864E-03
   -.163E+03 -.188E+03 -.168E+03   0.172E+03 0.200E+03 0.178E+03   -.893E+01 -.114E+02 -.103E+02   -.598E-02 0.864E-03 0.637E-02
   -.202E+03 -.209E+03 -.209E+03   0.215E+03 0.225E+03 0.225E+03   -.136E+02 -.161E+02 -.161E+02   0.129E-01 0.477E-02 0.477E-02
   -.180E+03 0.174E+03 0.174E+03   0.189E+03 -.185E+03 -.185E+03   -.894E+01 0.111E+02 0.111E+02   -.114E-01 -.357E-02 -.357E-02
   -.163E+03 0.188E+03 0.168E+03   0.172E+03 -.200E+03 -.178E+03   -.893E+01 0.114E+02 0.103E+02   -.598E-02 -.864E-03 -.637E-02
   -.163E+03 0.168E+03 0.188E+03   0.172E+03 -.178E+03 -.200E+03   -.893E+01 0.103E+02 0.114E+02   -.598E-02 -.637E-02 -.864E-03
   -.202E+03 0.209E+03 0.209E+03   0.215E+03 -.225E+03 -.225E+03   -.136E+02 0.161E+02 0.161E+02   0.129E-01 -.477E-02 -.477E-02
   0.154E+03 -.192E+03 0.192E+03   -.161E+03 0.203E+03 -.203E+03   0.696E+01 -.110E+02 0.110E+02   -.362E-02 -.129E-01 0.129E-01
   0.194E+03 -.220E+03 0.220E+03   -.207E+03 0.235E+03 -.235E+03   0.127E+02 -.151E+02 0.151E+02   -.222E-02 -.462E-02 0.462E-02
   0.149E+03 -.193E+03 0.193E+03   -.157E+03 0.204E+03 -.204E+03   0.747E+01 -.109E+02 0.109E+02   -.556E-02 -.524E-02 0.524E-02
   0.165E+03 -.183E+03 0.183E+03   -.173E+03 0.194E+03 -.194E+03   0.803E+01 -.110E+02 0.110E+02   -.316E-02 0.828E-02 -.828E-02
   0.154E+03 0.192E+03 -.192E+03   -.161E+03 -.203E+03 0.203E+03   0.696E+01 0.110E+02 -.110E+02   -.362E-02 0.129E-01 -.129E-01
   0.149E+03 0.193E+03 -.193E+03   -.157E+03 -.204E+03 0.204E+03   0.747E+01 0.109E+02 -.109E+02   -.556E-02 0.524E-02 -.524E-02
   0.194E+03 0.220E+03 -.220E+03   -.207E+03 -.235E+03 0.235E+03   0.127E+02 0.151E+02 -.151E+02   -.222E-02 0.462E-02 -.462E-02
   0.165E+03 0.183E+03 -.183E+03   -.173E+03 -.194E+03 0.194E+03   0.803E+01 0.110E+02 -.110E+02   -.316E-02 -.828E-02 0.828E-02
 -----------------------------------------------------------------------------------------------
   -.134E-10 -.271E-10 0.508E-10   -.540E-12 0.199E-12 0.284E-12   0.355E-14 0.107E-13 0.533E-14   0.864E-11 -.326E-12 -.124E-11
 
 
 POSITION                                       TOTAL-FORCE (eV/Angst)
 -----------------------------------------------------------------------------------
      3.05082      2.97560      2.97560        -0.012406     -0.000000     -0.000000
      7.05645      2.93525     -0.95151        -0.004646     -0.004743      0.004743
      7.05645     -0.95151      2.93525        -0.004646      0.004743     -0.004743
      9.22933      4.91899      1.03222         0.004646     -0.004743      0.004743
      9.22933      1.03222      4.91899         0.004646      0.004743     -0.004743
     13.23497      0.99187      0.99187         0.012406     -0.000000     -0.000000
     -0.00000     -0.00000     -0.00000        -0.000000     -0.000000     -0.000000
      4.07145      3.94208      0.02539        -0.000000     -0.000000     -0.000000
      4.07145      0.02539      3.94208        -0.000000     -0.000000     -0.000000
      8.14289      0.00000      0.00000        -0.000000     -0.000000     -0.000000
     -0.00000      1.98374      1.98374        -0.000000     -0.000000     -0.000000
      4.07145      1.95835     -1.95835        -0.000000     -0.000000     -0.000000
      4.07145     -1.95835      1.95835        -0.000000     -0.000000     -0.000000
      8.14289      1.98374      1.98374        -0.000000     -0.000000     -0.000000
      2.05069      0.01244      1.97130        -0.001777     -0.001000      0.001000
      6.11085      3.94641      2.00480        -0.001078      0.000980     -0.000980
     14.23509      3.95504      1.99617         0.001777      0.001000     -0.001000
     10.17494      0.02106      1.96268         0.001078     -0.000980      0.000980
      2.05069      1.97130      0.01244        -0.001777      0.001000     -0.001000
     14.23509      1.99617      3.95504         0.001777     -0.001000      0.001000
      6.11085      2.00480      3.94641        -0.001078     -0.000980      0.000980
     10.17494      1.96268      0.02106         0.001078      0.000980     -0.000980
      6.24050      2.09521      2.09521         0.003330     -0.000642     -0.000642
     10.31247      2.07385     -1.85546         0.002017     -0.003641      0.002377
     10.31247     -1.85546      2.07385         0.002017      0.002377     -0.003641
     14.37213      2.09022      2.09022        -0.000172      0.000734      0.000734
      6.24050      3.85600      3.85600         0.003330      0.000642      0.000642
     10.31247      3.83920     -0.09012         0.002017     -0.002377      0.003641
     10.31247     -0.09012      3.83920         0.002017      0.003641     -0.002377
     14.37213      3.86099      3.86099        -0.000172     -0.000734     -0.000734
      3.99131      2.10489     -0.12115        -0.009322     -0.001153      0.001153
      8.06919      6.03618     -0.08498        -0.005461     -0.003163      0.003163
      8.06075      2.12087      3.83034        -0.004444     -0.001736      0.001736
     12.12778      2.09471     -0.11097        -0.001644     -0.002491      0.002491
      3.99131     -0.12115      2.10489        -0.009322      0.001153     -0.001153
      8.06075      3.83034      2.12087        -0.004444      0.001736     -0.001736
      8.06919     -0.08498      6.03618        -0.005461      0.003163     -0.003163
     12.12778     -0.11097      2.09471        -0.001644      0.002491     -0.002491
      1.91365      1.87725      1.87725         0.000172     -0.000734     -0.000734
      5.97331      5.82293      1.89362        -0.002017     -0.002377      0.003641
      5.97331      1.89362      5.82293        -0.002017      0.003641     -0.002377
     10.04528      1.87227      1.87227        -0.003330      0.000642      0.000642
      1.91365      0.10648      0.10648         0.000172      0.000734      0.000734
      5.97331      4.05759      0.12828        -0.002017     -0.003641      0.002377
      5.97331      0.12828      4.05759        -0.002017      0.002377     -0.003641
     10.04528      0.11147      0.11147        -0.003330     -0.000642     -0.000642
      8.21659     -2.06871      4.05245         0.005461      0.003163     -0.003163
     12.29447      1.86258      4.08863         0.009322      0.001153     -0.001153
      4.15800      1.87277      4.07844         0.001644      0.002491     -0.002491
      8.22503      1.84660      0.13713         0.004444      0.001736     -0.001736
      8.21659      4.05245     -2.06871         0.005461     -0.003163      0.003163
      4.15800      4.07844      1.87277         0.001644     -0.002491      0.002491
     12.29447      4.08863      1.86258         0.009322     -0.001153      0.001153
      8.22503      0.13713      1.84660         0.004444     -0.001736      0.001736
 -----------------------------------------------------------------------------------
    total drift:                               -0.000000     -0.000000      0.000000


--------------------------------------------------------------------------------------------------------



  FREE ENERGIE OF THE ION-ELECTRON SYSTEM (eV)
  ---------------------------------------------------
  free  energy   TOTEN  =      -335.2316494791 eV

  energy  without entropy=     -335.2314050031  energy(sigma->0) =     -335.23152724
 
 d Force = 0.2951139E-03[ 0.203E-04, 0.570E-03]  d Energy = 0.4794154E-03-0.184E-03
 d Force = 0.3482089E+01[ 0.348E+01, 0.349E+01]  d Ewald  =-0.1508883E+01 0.499E+01


--------------------------------------------------------------------------------------------------------


    POTLOK:  cpu time    0.1644: real time    0.1648


--------------------------------------------------------------------------------------------------------


 Quasi-Newton relaxation of ions (Broydens 2nd method)
  g(Force)  = 0.755E-04   g(Stress)= 0.238E-04

 retain information from N=  2 steps
 eigenvalues of (default step * inverse Hessian matrix)
  average eigenvalue of G=   1.2286
 eigenvalue spectrum of G is  1.2286  1.2286


--------------------------------------------------------------------------------------------------------


  
 reached required accuracy - stopping structural energy minimisation
     LOOP+:  cpu time   18.6282: real time   18.7379
    4ORBIT:  cpu time    0.0000: real time    0.0000

volume of typ            1:     9.2 %

volume of typ            2:    20.1 %

volume of typ            3:    10.3 %
 
total charge     
 
# of ion       s       p       d       tot
------------------------------------------
    1        2.113   0.331   0.126   2.569
    2        2.112   0.331   0.125   2.568
    3        2.112   0.331   0.125   2.568
    4        2.112   0.331   0.125   2.568
    5        2.112   0.331   0.125   2.568
    6        2.113   0.331   0.126   2.569
    7        0.290   0.405   7.830   8.526
    8        0.294   0.414   7.828   8.537
    9        0.294   0.414   7.828   8.537
   10        0.293   0.410   7.830   8.534
   11        0.290   0.405   7.830   8.526
   12        0.294   0.414   7.828   8.537
   13        0.294   0.414   7.828   8.537
   14        0.293   0.410   7.830   8.534
   15        0.281   0.379   7.840   8.500
   16        0.280   0.377   7.840   8.498
   17        0.281   0.379   7.840   8.500
   18        0.280   0.377   7.840   8.498
   19        0.281   0.379   7.840   8.500
   20        0.281   0.379   7.840   8.500
   21        0.280   0.377   7.840   8.498
   22        0.280   0.377   7.840   8.498
   23        1.282   2.726   0.008   4.017
   24        1.264   2.783   0.007   4.053
   25        1.264   2.783   0.007   4.053
   26        1.264   2.778   0.007   4.049
   27        1.282   2.726   0.008   4.017
   28        1.264   2.783   0.007   4.053
   29        1.264   2.783   0.007   4.053
   30        1.264   2.778   0.007   4.049
   31        1.284   2.724   0.008   4.016
   32        1.268   2.770   0.007   4.045
   33        1.268   2.773   0.007   4.047
   34        1.269   2.772   0.007   4.047
   35        1.284   2.724   0.008   4.016
   36        1.268   2.773   0.007   4.047
   37        1.268   2.770   0.007   4.045
   38        1.269   2.772   0.007   4.047
   39        1.264   2.778   0.007   4.049
   40        1.264   2.783   0.007   4.053
   41        1.264   2.783   0.007   4.053
   42        1.282   2.726   0.008   4.017
   43        1.264   2.778   0.007   4.049
   44        1.264   2.783   0.007   4.053
   45        1.264   2.783   0.007   4.053
   46        1.282   2.726   0.008   4.017
   47        1.268   2.770   0.007   4.045
   48        1.284   2.724   0.008   4.016
   49        1.269   2.772   0.007   4.047
   50        1.268   2.773   0.007   4.047
   51        1.268   2.770   0.007   4.045
   52        1.269   2.772   0.007   4.047
   53        1.284   2.724   0.008   4.016
   54        1.268   2.773   0.007   4.047
--------------------------------------------------
tot          57.91   96.73  126.34  280.98
 
magnetization (x)
 
# of ion       s       p       d       tot
------------------------------------------
    1       -0.000   0.000   0.000   0.000
    2       -0.000  -0.000   0.000  -0.000
    3       -0.000  -0.000   0.000  -0.000
    4       -0.000  -0.000   0.000  -0.000
    5       -0.000  -0.000   0.000  -0.000
    6       -0.000   0.000   0.000   0.000
    7        0.000  -0.000   0.016   0.016
    8       -0.000   0.000   0.007   0.007
    9       -0.000   0.000   0.007   0.007
   10       -0.000   0.000  -0.022  -0.022
   11        0.000  -0.000   0.016   0.016
   12       -0.000   0.000   0.007   0.007
   13       -0.000   0.000   0.007   0.007
   14       -0.000   0.000  -0.022  -0.022
   15       -0.000   0.000  -0.323  -0.323
   16        0.001  -0.000   0.326   0.327
   17       -0.000   0.000  -0.323  -0.323
   18        0.001  -0.000   0.326   0.327
   19       -0.000   0.000  -0.323  -0.323
   20       -0.000   0.000  -0.323  -0.323
   21        0.001  -0.000   0.326   0.327
   22        0.001  -0.000   0.326   0.327
   23        0.001   0.003   0.000   0.005
   24       -0.000  -0.000  -0.000  -0.000
   25       -0.000  -0.000  -0.000  -0.000
   26       -0.001  -0.003  -0.000  -0.005
   27        0.001   0.003   0.000   0.005
   28       -0.000  -0.000  -0.000  -0.000
   29       -0.000  -0.000  -0.000  -0.000
   30       -0.001  -0.003  -0.000  -0.005
   31       -0.003  -0.037  -0.000  -0.040
   32       -0.003  -0.029  -0.000  -0.032
   33        0.003   0.031   0.000   0.035
   34        0.003   0.030   0.000   0.033
   35       -0.003  -0.037  -0.000  -0.040
   36        0.003   0.031   0.000   0.035
   37       -0.003  -0.029  -0.000  -0.032
   38        0.003   0.030   0.000   0.033
   39       -0.001  -0.003  -0.000  -0.005
   40       -0.000  -0.000  -0.000  -0.000
   41       -0.000  -0.000  -0.000  -0.000
   42        0.001   0.003   0.000   0.005
   43       -0.001  -0.003  -0.000  -0.005
   44       -0.000  -0.000  -0.000  -0.000
   45       -0.000  -0.000  -0.000  -0.000
   46        0.001   0.003   0.000   0.005
   47       -0.003  -0.029  -0.000  -0.032
   48       -0.003  -0.037  -0.000  -0.040
   49        0.003   0.030   0.000   0.033
   50        0.003   0.031   0.000   0.035
   51       -0.003  -0.029  -0.000  -0.032
   52        0.003   0.030   0.000   0.033
   53       -0.003  -0.037  -0.000  -0.040
   54        0.003   0.031   0.000   0.035
--------------------------------------------------
tot           0.00   -0.02    0.03    0.01
 

 total amount of memory used by VASP MPI-rank0    87888. kBytes
=======================================================================

   base      :      30000. kBytes
   nonlr-proj:      20030. kBytes
   fftplans  :       4991. kBytes
   grid      :      28588. kBytes
   one-center:        839. kBytes
   wavefun   :       3440. kBytes
 
  
  
 General timing and accounting informations for this job:
 ========================================================
  
                  Total CPU time used (sec):      353.983
                            User time (sec):      351.640
                          System time (sec):        2.343
                         Elapsed time (sec):      359.855
  
                   Maximum memory used (kb):      129780.
                   Average memory used (kb):           0.
  
                          Minor page faults:        32014
                          Major page faults:           46
                 Voluntary context switches:          872
