 vasp.5.4.4.18Apr17-6-g9f103f2a35 (build May 12 2020 05:39:39) gamma-only       
  
 MD_VERSION_INFO: Compiled 2020-05-12T12:39:39-UTC in devlin.sd.materialsdesign.
 com:/home/medea2/data/build/wwolf/vasp-gpu5.4.4/13047/x86_64/src/src/build/gam 
 from svn 13047
 
 This VASP executable licensed from Materials Design, Inc.
 
 executed on                        Lin64 date 2023.03.07  00:20:55
 running on   16 total cores
 distrk:  each k-point on   16 cores,    1 groups
 distr:  one band on NCORES_PER_BAND=   1 cores,   16 groups


--------------------------------------------------------------------------------------------------------


 INCAR:
 POTCAR:    PAW_PBE Li_sv 10Sep2004               
 POTCAR:    PAW_PBE Ni 02Aug2007                  
 POTCAR:    PAW_PBE O 08Apr2002                   

 ----------------------------------------------------------------------------- 
|                                                                             |
|           W    W    AA    RRRRR   N    N  II  N    N   GGGG   !!!           |
|           W    W   A  A   R    R  NN   N  II  NN   N  G    G  !!!           |
|           W    W  A    A  R    R  N N  N  II  N N  N  G       !!!           |
|           W WW W  AAAAAA  RRRRR   N  N N  II  N  N N  G  GGG   !            |
|           WW  WW  A    A  R   R   N   NN  II  N   NN  G    G                |
|           W    W  A    A  R    R  N    N  II  N    N   GGGG   !!!           |
|                                                                             |
|      For optimal performance we recommend to set                            |
|        NCORE= 4 - approx SQRT( number of cores)                             |
|      NCORE specifies how many cores store one orbital (NPAR=cpu/NCORE).     |
|      This setting can  greatly improve the performance of VASP for DFT.     |
|      The default,   NCORE=1            might be grossly inefficient         |
|      on modern multi-core architectures or massively parallel machines.     |
|      Do your own testing !!!!                                               |
|      Unfortunately you need to use the default for GW and RPA calculations. |
|      (for HF NCORE is supported but not extensively tested yet)             |
|                                                                             |
 ----------------------------------------------------------------------------- 

 POTCAR:    PAW_PBE Li_sv 10Sep2004               
  local pseudopotential read in
  atomic valenz-charges read in
  non local Contribution for L=           0  read in
    real space projection operators read in
  non local Contribution for L=           0  read in
    real space projection operators read in
  non local Contribution for L=           1  read in
    real space projection operators read in
    PAW grid and wavefunctions read in
 
   number of l-projection  operators is LMAX  =           3
   number of lm-projection operators is LMMAX =           5
 
 POTCAR:    PAW_PBE Ni 02Aug2007                  
  local pseudopotential read in
  partial core-charges read in
  partial kinetic energy density read in
  atomic valenz-charges read in
  non local Contribution for L=           2  read in
    real space projection operators read in
  non local Contribution for L=           2  read in
    real space projection operators read in
  non local Contribution for L=           0  read in
    real space projection operators read in
  non local Contribution for L=           0  read in
    real space projection operators read in
  non local Contribution for L=           1  read in
    real space projection operators read in
  non local Contribution for L=           1  read in
    real space projection operators read in
    PAW grid and wavefunctions read in
 
   number of l-projection  operators is LMAX  =           6
   number of lm-projection operators is LMMAX =          18
 
 POTCAR:    PAW_PBE O 08Apr2002                   
  local pseudopotential read in
  partial core-charges read in
  partial kinetic energy density read in
  kinetic energy density of atom read in
  atomic valenz-charges read in
  non local Contribution for L=           0  read in
    real space projection operators read in
  non local Contribution for L=           0  read in
    real space projection operators read in
  non local Contribution for L=           1  read in
    real space projection operators read in
  non local Contribution for L=           1  read in
    real space projection operators read in
    PAW grid and wavefunctions read in
 
   number of l-projection  operators is LMAX  =           4
   number of lm-projection operators is LMMAX =           8
 
 Optimization of the real space projectors (new method)

 maximal supplied QI-value         = 22.11
 optimisation between [QCUT,QGAM] = [ 11.28, 22.77] = [ 35.61,145.23] Ry 
 Optimized for a Real-space Cutoff    1.10 Angstroem

   l    n(q)    QCUT    max X(q) W(low)/X(q) W(high)/X(q)  e(spline) 
   0      7    11.276    10.506    0.54E-04    0.58E-04    0.16E-07
   0      7    11.276     8.367    0.11E-03    0.14E-03    0.35E-07
   1      7    11.276     8.983    0.23E-03    0.43E-03    0.86E-07
 Optimization of the real space projectors (new method)

 maximal supplied QI-value         = 16.25
 optimisation between [QCUT,QGAM] = [ 11.38, 22.75] = [ 36.24,144.96] Ry 
 Optimized for a Real-space Cutoff    1.47 Angstroem

   l    n(q)    QCUT    max X(q) W(low)/X(q) W(high)/X(q)  e(spline) 
   2      9    11.376    60.317    0.17E-03    0.16E-04    0.16E-06
   2      9    11.376    55.921    0.17E-03    0.16E-04    0.17E-06
   0     10    11.376    51.690    0.45E-04    0.60E-04    0.21E-06
   0     10    11.376    30.015    0.37E-04    0.55E-04    0.19E-06
   1     10    11.376    18.849    0.83E-04    0.11E-03    0.92E-07
   1     10    11.376    14.624    0.69E-04    0.92E-04    0.82E-07
 Optimization of the real space projectors (new method)

 maximal supplied QI-value         = 24.76
 optimisation between [QCUT,QGAM] = [ 11.39, 22.77] = [ 36.31,145.25] Ry 
 Optimized for a Real-space Cutoff    1.10 Angstroem

   l    n(q)    QCUT    max X(q) W(low)/X(q) W(high)/X(q)  e(spline) 
   0      7    11.387    20.381    0.22E-03    0.48E-03    0.18E-06
   0      7    11.387    15.268    0.22E-03    0.52E-03    0.19E-06
   1      7    11.387     5.964    0.22E-03    0.73E-03    0.24E-06
   1      7    11.387     5.382    0.19E-03    0.60E-03    0.21E-06

 ----------------------------------------------------------------------------- 
|                                                                             |
|  ADVICE TO THIS USER RUNNING 'VASP/VAMP'   (HEAR YOUR MASTER'S VOICE ...):  |
|                                                                             |
|      You enforced a specific xc-type in the INCAR file,                     |
|      a different type was found on the POTCAR file                          |
|          I HOPE YOU KNOW, WHAT YOU ARE  DOING                               |
|                                                                             |
 ----------------------------------------------------------------------------- 

  PAW_PBE Li_sv 10Sep2004               :
 energy of atom  1       EATOM= -202.7858
 kinetic energy error for atom=    0.0143 (will be added to EATOM!!)
  PAW_PBE Ni 02Aug2007                  :
 energy of atom  2       EATOM=-1077.6739
 kinetic energy error for atom=    0.0030 (will be added to EATOM!!)
  PAW_PBE O 08Apr2002                   :
 energy of atom  3       EATOM= -432.3788
 kinetic energy error for atom=    0.0224 (will be added to EATOM!!)
 
 
 POSCAR: ce13121_1                               
  positions in direct lattice
  No initial velocities read in
 exchange correlation table for  LEXCH =       14
   RHO(1)=    0.500       N(1)  =     2000
   RHO(2)=  100.500       N(2)  =     4000
 


--------------------------------------------------------------------------------------------------------


 ion  position               nearest neighbor table
   1  0.245  0.252  0.493-  33 2.08  51 2.09  45 2.10  31 2.13  43 2.14  55 2.18  16 2.79  23 2.82

   2  0.245  0.748  0.507-  34 2.08  52 2.09  46 2.10  32 2.13  44 2.14  56 2.18  17 2.79  23 2.82

   3  0.755  0.748  0.507-  34 2.08  53 2.09  46 2.10  32 2.13  44 2.14  57 2.18  18 2.79  23 2.82

   4  0.755  0.252  0.493-  33 2.08  54 2.09  45 2.10  31 2.13  43 2.14  58 2.18  19 2.79  23 2.82

   5  0.500  0.250  0.251-  59 2.06  45 2.10  54 2.13  51 2.13  39 2.13  42 2.13  28 2.82  20 2.84

   6  0.500  0.750  0.749-  60 2.06  46 2.10  53 2.13  52 2.13  40 2.13  41 2.13  28 2.82  20 2.84

   7  0.000  0.248  0.749-  31 2.04  55 2.10  58 2.10  49 2.13  38 2.14  35 2.14  21 2.81  29 2.84

   8  0.000  0.752  0.251-  32 2.04  56 2.10  57 2.10  50 2.13  37 2.14  36 2.14  21 2.81  29 2.84

   9  0.245  0.249  0.010-  39 2.05  47 2.07  59 2.11  49 2.12  61 2.17  35 2.20  25 2.78  15 2.82

  10  0.245  0.751  0.990-  40 2.05  48 2.07  60 2.11  50 2.12  62 2.17  36 2.20  24 2.78  15 2.82

  11  0.755  0.751  0.990-  41 2.05  48 2.07  60 2.11  50 2.12  62 2.17  37 2.20  27 2.78  15 2.82

  12  0.755  0.249  0.010-  42 2.05  47 2.07  59 2.11  49 2.12  61 2.17  38 2.20  26 2.78  15 2.82

  13  0.500  0.249  0.749-  61 2.09  43 2.10  58 2.10  55 2.10  35 2.10  38 2.10  22 2.82  30 2.83

  14  0.500  0.751  0.251-  62 2.09  44 2.10  57 2.10  56 2.10  36 2.10  37 2.10  22 2.82  30 2.83

  15  0.000  0.000  0.000-  39 1.88  40 1.88  41 1.88  42 1.88  49 2.01  50 2.01  20 2.82  20 2.82
                            11 2.82  12 2.82   9 2.82  10 2.82  16 2.87  17 2.87  18 2.87  19 2.87
  16  0.250  0.001  0.250-  33 1.89  62 1.89  45 1.89  50 1.90  39 2.01  56 2.05   1 2.79  19 2.81
                            19 2.82  21 2.87  15 2.87  22 2.88  20 2.88
  17  0.250  0.999  0.750-  34 1.89  61 1.89  46 1.89  49 1.90  40 2.01  55 2.05   2 2.79  18 2.81
                            18 2.82  21 2.87  15 2.87  22 2.88  20 2.88
  18  0.750  0.999  0.750-  34 1.89  61 1.89  46 1.89  49 1.90  41 2.01  58 2.05   3 2.79  17 2.81
                            17 2.82  21 2.87  15 2.87  22 2.88  20 2.88
  19  0.750  0.001  0.250-  33 1.89  62 1.89  45 1.89  50 1.90  42 2.01  57 2.05   4 2.79  16 2.81
                            16 2.82  21 2.87  15 2.87  22 2.88  20 2.88
  20  0.500  0.000  0.000-  39 1.86  40 1.86  41 1.86  42 1.86  61 2.06  62 2.06  15 2.82  15 2.82
                             5 2.84   6 2.84  19 2.88  16 2.88  17 2.88  18 2.88
  21  0.000  0.000  0.500-  55 1.90  56 1.90  57 1.90  58 1.90  33 1.93  34 1.93   7 2.81   8 2.81
                            22 2.82  22 2.82  16 2.87  17 2.87  18 2.87  19 2.87
  22  0.500  0.000  0.500-  55 1.89  56 1.89  57 1.89  58 1.89  45 2.04  46 2.04  21 2.82  21 2.82
                            13 2.82  14 2.82  16 2.88  17 2.88  18 2.88  19 2.88
  23  0.000  0.500  0.500-  51 1.87  52 1.87  53 1.87  54 1.87  31 2.12  32 2.12  28 2.82  28 2.82
                             1 2.82   2 2.82   3 2.82   4 2.82  24 2.87  25 2.87  26 2.87  27 2.87
  24  0.249  0.500  0.750-  31 1.88  60 1.88  48 1.90  43 1.90  52 2.00  35 2.05  10 2.78  27 2.81
                            27 2.82  23 2.87  28 2.87  29 2.88  30 2.88
  25  0.249  0.500  0.250-  32 1.88  59 1.88  47 1.90  44 1.90  51 2.00  36 2.05   9 2.78  26 2.81
                            26 2.82  23 2.87  28 2.87  29 2.88  30 2.88
  26  0.751  0.500  0.250-  32 1.88  59 1.88  47 1.90  44 1.90  54 2.00  37 2.05  12 2.78  25 2.81
                            25 2.82  23 2.87  28 2.87  29 2.88  30 2.88
  27  0.751  0.500  0.750-  31 1.88  60 1.88  48 1.90  43 1.90  53 2.00  38 2.05  11 2.78  24 2.81
                            24 2.82  23 2.87  28 2.87  29 2.88  30 2.88
  28  0.500  0.500  0.500-  51 1.86  52 1.86  53 1.86  54 1.86  43 2.06  44 2.06   5 2.82   6 2.82
                            23 2.82  23 2.82  27 2.87  24 2.87  25 2.87  26 2.87
  29  0.000  0.500  0.000-  35 1.90  36 1.90  37 1.90  38 1.90  47 1.92  48 1.92  30 2.82  30 2.82
                             7 2.84   8 2.84  24 2.88  25 2.88  26 2.88  27 2.88
  30  0.500  0.500  0.000-  35 1.87  36 1.87  37 1.87  38 1.87  59 2.10  60 2.10  29 2.82  29 2.82
                            13 2.83  14 2.83  24 2.88  25 2.88  26 2.88  27 2.88
  31  0.000  0.387  0.642-  24 1.88  27 1.88   7 2.04  23 2.12   1 2.13   4 2.13
  32  0.000  0.613  0.358-  25 1.88  26 1.88   8 2.04  23 2.12   2 2.13   3 2.13
  33  0.000  0.102  0.370-  16 1.89  19 1.89  21 1.93   4 2.08   1 2.08
  34  0.000  0.898  0.630-  17 1.89  18 1.89  21 1.93   3 2.08   2 2.08
  35  0.254  0.391  0.887-  30 1.87  29 1.90  24 2.05  13 2.10   7 2.14   9 2.20
  36  0.254  0.609  0.113-  30 1.87  29 1.90  25 2.05  14 2.10   8 2.14  10 2.20
  37  0.746  0.609  0.113-  30 1.87  29 1.90  26 2.05  14 2.10   8 2.14  11 2.20
  38  0.746  0.391  0.887-  30 1.87  29 1.90  27 2.05  13 2.10   7 2.14  12 2.20
  39  0.253  0.105  0.112-  20 1.86  15 1.88  16 2.01   9 2.05   5 2.13
  40  0.253  0.895  0.888-  20 1.86  15 1.88  17 2.01  10 2.05   6 2.13
  41  0.747  0.895  0.888-  20 1.86  15 1.88  18 2.01  11 2.05   6 2.13
  42  0.747  0.105  0.112-  20 1.86  15 1.88  19 2.01  12 2.05   5 2.13
  43  0.500  0.389  0.636-  24 1.90  27 1.90  28 2.06  13 2.10   1 2.14   4 2.14
  44  0.500  0.611  0.364-  25 1.90  26 1.90  28 2.06  14 2.10   2 2.14   3 2.14
  45  0.500  0.110  0.364-  16 1.89  19 1.89  22 2.04   4 2.10   1 2.10   5 2.10
  46  0.500  0.890  0.636-  17 1.89  18 1.89  22 2.04   3 2.10   2 2.10   6 2.10
  47  0.000  0.398  0.129-  25 1.90  26 1.90  29 1.92  12 2.07   9 2.07
  48  0.000  0.602  0.871-  24 1.90  27 1.90  29 1.92  11 2.07  10 2.07
  49  0.000  0.108  0.865-  17 1.90  18 1.90  15 2.01  12 2.12   9 2.12   7 2.13
  50  0.000  0.892  0.135-  16 1.90  19 1.90  15 2.01  11 2.12  10 2.12   8 2.13
  51  0.251  0.397  0.387-  28 1.86  23 1.87  25 2.00   1 2.09   5 2.13
  52  0.251  0.603  0.613-  28 1.86  23 1.87  24 2.00   2 2.09   6 2.13
  53  0.749  0.603  0.613-  28 1.86  23 1.87  27 2.00   3 2.09   6 2.13
  54  0.749  0.397  0.387-  28 1.86  23 1.87  26 2.00   4 2.09   5 2.13
  55  0.251  0.109  0.613-  22 1.89  21 1.90  17 2.05  13 2.10   7 2.10   1 2.18
  56  0.251  0.891  0.387-  22 1.89  21 1.90  16 2.05  14 2.10   8 2.10   2 2.18
  57  0.749  0.891  0.387-  22 1.89  21 1.90  19 2.05  14 2.10   8 2.10   3 2.18
  58  0.749  0.109  0.613-  22 1.89  21 1.90  18 2.05  13 2.10   7 2.10   4 2.18
  59  0.500  0.389  0.142-  25 1.88  26 1.88   5 2.06  30 2.10   9 2.11  12 2.11
  60  0.500  0.611  0.858-  24 1.88  27 1.88   6 2.06  30 2.10  10 2.11  11 2.11
  61  0.500  0.109  0.862-  17 1.89  18 1.89  20 2.06  13 2.09   9 2.17  12 2.17
  62  0.500  0.891  0.138-  16 1.89  19 1.89  20 2.06  14 2.09  10 2.17  11 2.17
 
  LATTYP: Found a simple monoclinic cell.
 ALAT       =    11.3058010727
 B/A-ratio  =     0.4985120677
 C/A-ratio  =     1.6691746652
 COS(beta)  =    -0.8986199658
  
  Lattice vectors:
  
 A1 = (  -6.3483447812,   0.0000000000,  -9.3551940886)
 A2 = (   0.0000000000,  -5.6360782698,   0.0000000000)
 A3 = (   2.6712884714,   0.0000000000,  18.6813362036)


Analysis of symmetry for initial positions (statically):
=====================================================================
 Subroutine PRICEL returns:
 Original cell was already a primitive cell.
 

 Routine SETGRP: Setting up the symmetry group for a 
 simple monoclinic supercell.


 Subroutine GETGRP returns: Found  4 space group operations
 (whereof  4 operations were pure point group operations)
 out of a pool of  4 trial point group operations.


The static configuration has the point symmetry C_2h.


Analysis of symmetry for dynamics (positions and initial velocities):
=====================================================================
 Subroutine PRICEL returns:
 Original cell was already a primitive cell.
 

 Routine SETGRP: Setting up the symmetry group for a 
 simple monoclinic supercell.


 Subroutine GETGRP returns: Found  4 space group operations
 (whereof  4 operations were pure point group operations)
 out of a pool of  4 trial point group operations.


The dynamic configuration has the point symmetry C_2h.


Analysis of structural, dynamic, and magnetic symmetry:
=====================================================================
 Subroutine PRICEL returns:
 Original cell was already a primitive cell.
 

 Routine SETGRP: Setting up the symmetry group for a 
 simple monoclinic supercell.


 Subroutine GETGRP returns: Found  4 space group operations
 (whereof  4 operations were pure point group operations)
 out of a pool of  4 trial point group operations.


The magnetic configuration has the point symmetry C_2h.


 Subroutine INISYM returns: Found  4 space group operations
 (whereof  4 operations are pure point group operations),
 and found     1 'primitive' translations

 
 
 KPOINTS: Automatic mesh                          

Automatic generation of k-mesh.
Space group operators:
 irot       det(A)        alpha          n_x          n_y          n_z        tau_x        tau_y        tau_z
    1     1.000000     0.000001     1.000000     0.000000     0.000000     0.000000     0.000000     0.000000
    2    -1.000000     0.000001     1.000000     0.000000     0.000000     0.000000     0.000000     0.000000
    3     1.000000   180.000000     0.000000     1.000000     0.000000     0.000000     0.000000     0.000000
    4    -1.000000   180.000000     0.000000     1.000000     0.000000     0.000000     0.000000     0.000000
 
 Subroutine IBZKPT returns following result:
 ===========================================
 
 Found      1 irreducible k-points:
 
 Following reciprocal coordinates:
            Coordinates               Weight
  0.000000  0.000000  0.000000      1.000000
 
 Following cartesian coordinates:
            Coordinates               Weight
  0.000000  0.000000  0.000000      1.000000
 


--------------------------------------------------------------------------------------------------------




 Dimension of arrays:
   k-points           NKPTS =      1   k-points in BZ     NKDIM =      1   number of bands    NBANDS=    256
   number of dos      NEDOS =    301   number of ions     NIONS =     62
   non local maximal  LDIM  =      6   non local SUM 2l+1 LMDIM =     18
   total plane-waves  NPLWV = 268800
   max r-space proj   IRMAX =   6890   max aug-charges    IRDMAX=  16713
   dimension x,y,z NGX =    42 NGY =   80 NGZ =   80
   dimension x,y,z NGXF=    84 NGYF=  160 NGZF=  160
   support grid    NGXF=    84 NGYF=  160 NGZF=  160
   ions per type =              14  16  32
   NGX,Y,Z   is equivalent  to a cutoff of  12.39, 13.27, 13.27 a.u.
   NGXF,Y,Z  is equivalent  to a cutoff of  24.78, 26.53, 26.53 a.u.

 SYSTEM =  unknown system                          
 POSCAR =  ce13121_1                               

 Startparameter for this run:
   NWRITE =      1    write-flag & timer
   PREC   = accura    normal or accurate (medium, high low for compatibility)
   ISTART =      0    job   : 0-new  1-cont  2-samecut
   ICHARG =      2    charge: 1-file 2-atom 10-const
   ISPIN  =      2    spin polarized calculation?
   LNONCOLLINEAR =      F non collinear calculations
   LSORBIT =      F    spin-orbit coupling
   INIWAV =      1    electr: 0-lowe 1-rand  2-diag
   LASPH  =      F    aspherical Exc in radial PAW
   METAGGA=      F    non-selfconsistent MetaGGA calc.

 Electronic Relaxation 1
   ENCUT  =  500.0 eV  36.75 Ry    6.06 a.u.  10.28 18.28 18.28*2*pi/ulx,y,z
   ENINI  =  500.0     initial cutoff
   ENAUG  =  628.9 eV  augmentation charge cutoff
   NELM   =     80;   NELMIN=  2; NELMDL= -5     # of ELM steps 
   EDIFF  = 0.1E-04   stopping-criterion for ELM
   LREAL  =      T    real-space projection
   NLSPLINE    = F    spline interpolate recip. space projectors
   LCOMPAT=      F    compatible to vasp.4.4
   GGA_COMPAT  = T    GGA compatible to vasp.4.4-vasp.4.6
   LMAXPAW     = -100 max onsite density
   LMAXMIX     =    2 max onsite mixed and CHGCAR
   VOSKOWN=      1    Vosko Wilk Nusair interpolation
   ROPT   =   -0.00025  -0.00025  -0.00025
 Ionic relaxation
   EDIFFG = -.2E-01   stopping-criterion for IOM
   NSW    =     20    number of steps for IOM
   NBLOCK =      1;   KBLOCK =     20    inner block; outer block 
   IBRION =      1    ionic relax: 0-MD 1-quasi-New 2-CG
   NFREE  =      0    steps in history (QN), initial steepest desc. (CG)
   ISIF   =      3    stress and relaxation
   IWAVPR =     11    prediction:  0-non 1-charg 2-wave 3-comb
   ISYM   =      2    0-nonsym 1-usesym 2-fastsym
   LCORR  =      T    Harris-Foulkes like correction to forces

   POTIM  = 0.5000    time-step for ionic-motion
   TEIN   =    0.0    initial temperature
   TEBEG  =    0.0;   TEEND  =   0.0 temperature during run
   SMASS  =  -3.00    Nose mass-parameter (am)
   estimated Nose-frequenzy (Omega)   =  0.10E-29 period in steps =****** mass=  -0.726E-27a.u.
   SCALEE = 1.0000    scale energy and forces
   NPACO  =    256;   APACO  = 16.0  distance and # of slots for P.C.
   PSTRESS=    0.0 pullay stress

  Mass of Ions in am
   POMASS =   7.01 58.69 16.00
  Ionic Valenz
   ZVAL   =   3.00 10.00  6.00
  Atomic Wigner-Seitz radii
   RWIGS  =   1.23  1.15  0.73
  virtual crystal weights 
   VCA    =   1.00  1.00  1.00
   NELECT =     394.0000    total number of electrons
   NUPDOWN=      -1.0000    fix difference up-down

 DOS related values:
   EMIN   =  10.00;   EMAX   =-10.00  energy-range for DOS
   EFERMI =   0.00
   ISMEAR =     0;   SIGMA  =   0.05  broadening in eV -4-tet -1-fermi 0-gaus

 Electronic relaxation 2 (details)
   IALGO  =     38    algorithm
   LDIAG  =      T    sub-space diagonalisation (order eigenvalues)
   LSUBROT=      F    optimize rotation matrix (better conditioning)
   TURBO    =      0    0=normal 1=particle mesh
   IRESTART =      0    0=no restart 2=restart with 2 vectors
   NREBOOT  =      0    no. of reboots
   NMIN     =      0    reboot dimension
   EREF     =   0.00    reference energy to select bands
   IMIX   =      4    mixing-type and parameters
     AMIX     =   0.40;   BMIX     =  1.00
     AMIX_MAG =   1.60;   BMIX_MAG =  1.00
     AMIN     =   0.10
     WC   =   100.;   INIMIX=   1;  MIXPRE=   1;  MAXMIX= -45

 Intra band minimization:
   WEIMIN = 0.0010     energy-eigenvalue tresh-hold
   EBREAK =  0.98E-08  absolut break condition
   DEPER  =   0.30     relativ break condition  

   TIME   =   0.40     timestep for ELM

  volume/ion in A,a.u.               =       8.51        57.42
  Fermi-wavevector in a.u.,A,eV,Ry     =   1.485302  2.806813 30.016099  2.206121
  Thomas-Fermi vector in A             =   2.598730
 
 Write flags
   LWAVE        =      F    write WAVECAR
   LDOWNSAMPLE  =      F    k-point downsampling of WAVECAR
   LCHARG       =      T    write CHGCAR
   LVTOT        =      F    write LOCPOT, total local potential
   LVHAR        =      F    write LOCPOT, Hartree potential only
   LELF         =      F    write electronic localiz. function (ELF)
   LORBIT       =      0    0 simple, 1 ext, 2 COOP (PROOUT), +10 PAW based schemes


 Dipole corrections
   LMONO  =      F    monopole corrections only (constant potential shift)
   LDIPOL =      F    correct potential (dipole corrections)
   IDIPOL =      0    1-x, 2-y, 3-z, 4-all directions 
   EPSILON=  1.0000000 bulk dielectric constant

 Exchange correlation treatment:
   GGA     =    PS    GGA type
   LEXCH   =    14    internal setting for exchange type
   VOSKOWN=      1    Vosko Wilk Nusair interpolation
   LHFCALC =     F    Hartree Fock is set to
   LHFONE  =     F    Hartree Fock one center treatment
   AEXX    =    0.0000 exact exchange contribution

 Linear response parameters
   LEPSILON=     F    determine dielectric tensor
   LRPA    =     F    only Hartree local field effects (RPA)
   LNABLA  =     F    use nabla operator in PAW spheres
   LVEL    =     F    velocity operator in full k-point grid
   LINTERFAST=   F  fast interpolation
   KINTER  =     0    interpolate to denser k-point grid
   CSHIFT  =0.1000    complex shift for real part using Kramers Kronig
   OMEGAMAX=  -1.0    maximum frequency
   DEG_THRESHOLD= 0.2000000E-02 threshold for treating states as degnerate
   RTIME   =   -0.100 relaxation time in fs
  (WPLASMAI=    0.000 imaginary part of plasma frequency in eV, 0.658/RTIME)
   DFIELD  = 0.0000000 0.0000000 0.0000000 field for delta impulse in time
 
 Orbital magnetization related:
   ORBITALMAG=     F  switch on orbital magnetization
   LCHIMAG   =     F  perturbation theory with respect to B field
   DQ        =  0.001000  dq finite difference perturbation B field
   LLRAUG    =     F  two centre corrections for induced B field



--------------------------------------------------------------------------------------------------------


 quasi-Newton-method for relaxation of ions
 charge density and potential will be updated during run
 spin polarized calculation
 Variant of blocked Davidson
 Davidson routine will perform the subspace rotation
 perform sub-space diagonalisation
    after iterative eigenvector-optimisation
 modified Broyden-mixing scheme, WC =      100.0
 initial mixing is a Kerker type mixing with AMIX =  0.4000 and BMIX =      1.0000
 Hartree-type preconditioning will be used
 using additional bands           59
 real space projection scheme for non local part
 use partial core corrections
 calculate Harris-corrections to forces 
   (improved forces if not selfconsistent)
 use gradient corrections 
 use of overlap-Matrix (Vanderbilt PP)
 Gauss-broadening in eV      SIGMA  =   0.05


--------------------------------------------------------------------------------------------------------


  energy-cutoff  :      500.00
  volume of cell :      527.57
      direct lattice vectors                 reciprocal lattice vectors
     0.000000000  5.636078270  0.000000000     0.000000000  0.177428338  0.000000000
    -3.677056310  0.000000000  9.326142115    -0.000310367  0.000000000  0.107103103
    10.025401091  0.000000000  0.029051974     0.099632798  0.000000000  0.039282632

  length of vectors
     5.636078270 10.024852610 10.025443185     0.177428338  0.107103553  0.107097244


 
 k-points in units of 2pi/SCALE and weight: Automatic mesh                          
   0.00000000  0.00000000  0.00000000       1.000
 
 k-points in reciprocal lattice and weights: Automatic mesh                          
   0.00000000  0.00000000  0.00000000       1.000
 
 position of ions in fractional coordinates (direct lattice) 
   0.24455703  0.25153594  0.49259178
   0.24455703  0.74846406  0.50740822
   0.75544297  0.74846406  0.50740822
   0.75544297  0.25153594  0.49259178
   0.50000000  0.25039472  0.25133877
   0.50000000  0.74960528  0.74866123
   0.00000000  0.24839243  0.74891668
   0.00000000  0.75160757  0.25108332
   0.24501201  0.24881716  0.00969599
   0.24501201  0.75118284  0.99030401
   0.75498799  0.75118284  0.99030401
   0.75498799  0.24881716  0.00969599
   0.50000000  0.24928574  0.74949824
   0.50000000  0.75071426  0.25050176
   0.00000000  0.00000000  0.00000000
   0.24962996  0.00098536  0.25038167
   0.24962996  0.99901464  0.74961833
   0.75037004  0.99901464  0.74961833
   0.75037004  0.00098536  0.25038167
   0.50000000  0.00000000  0.00000000
   0.00000000  0.00000000  0.50000000
   0.50000000  0.00000000  0.50000000
   0.00000000  0.50000000  0.50000000
   0.24943014  0.49980944  0.74971852
   0.24943014  0.50019056  0.25028148
   0.75056986  0.50019056  0.25028148
   0.75056986  0.49980944  0.74971852
   0.50000000  0.50000000  0.50000000
   0.00000000  0.50000000  0.00000000
   0.50000000  0.50000000  0.00000000
   0.00000000  0.38745748  0.64227584
   0.00000000  0.61254252  0.35772416
   0.00000000  0.10215704  0.36972333
   0.00000000  0.89784296  0.63027667
   0.25390664  0.39121193  0.88732406
   0.25390664  0.60878807  0.11267594
   0.74609336  0.60878807  0.11267594
   0.74609336  0.39121193  0.88732406
   0.25306688  0.10469734  0.11201456
   0.25306688  0.89530266  0.88798544
   0.74693312  0.89530266  0.88798544
   0.74693312  0.10469734  0.11201456
   0.50000000  0.38850031  0.63626485
   0.50000000  0.61149969  0.36373515
   0.50000000  0.11025337  0.36415668
   0.50000000  0.88974663  0.63584332
   0.00000000  0.39824839  0.12906412
   0.00000000  0.60175161  0.87093588
   0.00000000  0.10764118  0.86544481
   0.00000000  0.89235882  0.13455519
   0.25149224  0.39694522  0.38712562
   0.25149224  0.60305478  0.61287438
   0.74850776  0.60305478  0.61287438
   0.74850776  0.39694522  0.38712562
   0.25112402  0.10941653  0.61347139
   0.25112402  0.89058347  0.38652861
   0.74887598  0.89058347  0.38652861
   0.74887598  0.10941653  0.61347139
   0.50000000  0.38884765  0.14211961
   0.50000000  0.61115235  0.85788039
   0.50000000  0.10917027  0.86152766
   0.50000000  0.89082973  0.13847234
 
 position of ions in cartesian coordinates  (Angst):
   4.01351835  1.37834256  2.36017069
   2.33482643  1.37834256  6.99502340
   2.33482643  4.25773571  6.99502340
   4.01351835  4.25773571  2.36017069
   1.59905649  2.81803913  2.34251863
   4.74928829  2.81803913  7.01267546
   6.59483715  0.00000000  2.33830061
  -0.24649237  0.00000000  7.01689348
  -0.81770852  1.38090687  2.32078588
   7.16605330  1.38090687  7.03440821
   7.16605330  4.25517140  7.03440821
  -0.81770852  4.25517140  2.32078588
   6.59738277  2.81803913  2.34664864
  -0.24903799  2.81803913  7.00854545
   0.00000000  0.00000000  0.00000000
   2.50655344  1.40693399  0.01646369
   3.84179134  1.40693399  9.33873040
   3.84179134  4.22914428  9.33873040
   2.50655344  4.22914428  0.01646369
   0.00000000  2.81803913  0.00000000
   5.01270055  0.00000000  0.01452599
   5.01270055  2.81803913  0.01452599
   3.17417239  0.00000000  4.67759704
   5.67840141  1.40580779  4.68307467
   0.66994337  1.40580779  4.67211942
   0.66994337  4.23027048  4.67211942
   5.67840141  4.23027048  4.68307467
   3.17417239  2.81803913  4.67759704
  -1.83852815  0.00000000  4.66307106
  -1.83852815  2.81803913  4.66307106
   5.01436994  0.00000000  3.63214290
   1.33397485  0.00000000  5.72305119
   3.33098749  0.00000000  0.96347227
   3.01735729  0.00000000  8.39172182
   7.45727130  1.43103770  3.67427657
  -1.10892652  1.43103770  5.68091752
  -1.10892652  4.20504057  5.68091752
   7.45727130  4.20504057  3.67427657
   0.73801288  1.42630474  0.97967652
   5.61033190  1.42630474  8.37551757
   5.61033190  4.20977353  8.37551757
   0.73801288  4.20977353  0.97967652
   4.95027281  2.81803913  3.64169385
   1.39807198  2.81803913  5.71350024
   3.24540893  2.81803913  1.03881807
   3.10293585  2.81803913  8.31637602
  -0.17046219  0.00000000  3.71787065
   6.51880697  0.00000000  5.63732344
   8.28062866  0.00000000  1.02901982
  -1.93228388  0.00000000  8.32617427
   2.42149969  1.41742995  3.71321430
   3.92684509  1.41742995  5.64197979
   3.92684509  4.21864832  5.64197979
   2.42149969  4.21864832  3.71321430
   5.74796600  1.41535463  1.03825666
   0.60037878  1.41535463  8.31693743
   0.60037878  4.22072364  8.31693743
   5.74796600  4.22072364  1.03825666
  -0.00500861  2.81803913  3.63057730
   6.35335339  2.81803913  5.72461679
   8.23573511  2.81803913  1.04316653
  -1.88739033  2.81803913  8.31202756
 


--------------------------------------------------------------------------------------------------------


 use serial FFT for orbitals x direction half grid
 k-point  1 :   0.0000 0.0000 0.0000  plane waves:    6682

 maximum and minimum number of plane-waves per node :      6682     6682

 maximum number of plane-waves:      6682
 maximum index in each direction: 
   IXMAX=   10   IYMAX=   18   IZMAX=   18
   IXMIN=    0   IYMIN=  -18   IZMIN=  -18

 The following grids will avoid any aliasing or wrap around errors in the Hartre
 e energy
  - symmetry arguments have not been applied
  - exchange correlation energies might require even more grid points
  - we recommend to set PREC=Normal or Accurate and rely on VASP defaults
 NGX is ok and might be reduce to    42
 NGY is ok and might be reduce to    80
 NGZ is ok and might be reduce to    80

 serial   3D FFT for wavefunctions
 parallel 3D FFT for charge:
    minimum data exchange during FFTs selected (reduces bandwidth)


 total amount of memory used by VASP MPI-rank0   100640. kBytes
=======================================================================

   base      :      30000. kBytes
   nonlr-proj:      24677. kBytes
   fftplans  :       6149. kBytes
   grid      :      35266. kBytes
   one-center:        964. kBytes
   wavefun   :       3584. kBytes
 
     INWAV:  cpu time    0.0000: real time    0.0000
 Broyden mixing: mesh for mixing (old mesh)
   NGX = 21   NGY = 37   NGZ = 37
  (NGX  = 84   NGY  =160   NGZ  =160)
  gives a total of  28749 points

 initial charge density was supplied:
 charge density of overlapping atoms calculated
 number of electron     394.0000000 magnetization      40.0000000
 keeping initial charge density in first step


--------------------------------------------------------------------------------------------------------


 Maximum index for non-local projection operator         6643
 Maximum index for augmentation-charges         1582 (set IRDMAX)


--------------------------------------------------------------------------------------------------------


 First call to EWALD:  gamma=   0.219
 Maximum number of real-space cells 4x 2x 2
 Maximum number of reciprocal cells 2x 3x 3

    FEWALD:  cpu time    0.0039: real time    0.0039


--------------------------------------- Iteration      1(   1)  ---------------------------------------


    POTLOK:  cpu time    0.1745: real time    0.1796
    SETDIJ:  cpu time    0.0222: real time    0.0222
     EDDAV:  cpu time    1.9482: real time    1.9734
    --------------------------------------------
      LOOP:  cpu time    2.1454: real time    2.1758

 eigenvalue-minimisations  :  1056
 total energy-change (2. order) : 0.6981438E+04  (-0.1757116E+05)
 number of electron     394.0000000 magnetization      40.0000000
 augmentation part      394.0000000 magnetization      40.0000000

 Free energy of the ion-electron system (eV)
  ---------------------------------------------------
  alpha Z        PSCENC =      1243.09726314
  Ewald energy   TEWEN  =    -24552.25658513
  -Hartree energ DENC   =    -10039.91223160
  -exchange      EXHF   =         0.00000000
  -V(xc)+E(xc)   XCENC  =      1610.00983010
  PAW double counting   =     27580.31459258   -28909.17264459
  entropy T*S    EENTRO =        -0.00000005
  eigenvalues    EBANDS =      6221.44222663
  atomic energy  EATOM  =     33827.91512128
  Solvation  Ediel_sol  =         0.00000000
  ---------------------------------------------------
  free energy    TOTEN  =      6981.43757236 eV

  energy without entropy =     6981.43757241  energy(sigma->0) =     6981.43757238


--------------------------------------------------------------------------------------------------------




--------------------------------------- Iteration      1(   2)  ---------------------------------------


     EDDAV:  cpu time    1.9161: real time    1.9207
    --------------------------------------------
      LOOP:  cpu time    1.9160: real time    1.9206

 eigenvalue-minimisations  :  1040
 total energy-change (2. order) :-0.5589525E+04  (-0.5139953E+04)
 number of electron     394.0000000 magnetization      40.0000000
 augmentation part      394.0000000 magnetization      40.0000000

 Free energy of the ion-electron system (eV)
  ---------------------------------------------------
  alpha Z        PSCENC =      1243.09726314
  Ewald energy   TEWEN  =    -24552.25658513
  -Hartree energ DENC   =    -10039.91223160
  -exchange      EXHF   =         0.00000000
  -V(xc)+E(xc)   XCENC  =      1610.00983010
  PAW double counting   =     27580.31459258   -28909.17264459
  entropy T*S    EENTRO =        -0.00134361
  eigenvalues    EBANDS =       631.91879271
  atomic energy  EATOM  =     33827.91512128
  Solvation  Ediel_sol  =         0.00000000
  ---------------------------------------------------
  free energy    TOTEN  =      1391.91279488 eV

  energy without entropy =     1391.91413849  energy(sigma->0) =     1391.91346669


--------------------------------------------------------------------------------------------------------




--------------------------------------- Iteration      1(   3)  ---------------------------------------


     EDDAV:  cpu time    1.9107: real time    1.9152
    --------------------------------------------
      LOOP:  cpu time    1.9107: real time    1.9153

 eigenvalue-minimisations  :  1200
 total energy-change (2. order) :-0.1593183E+04  (-0.1319486E+04)
 number of electron     394.0000000 magnetization      40.0000000
 augmentation part      394.0000000 magnetization      40.0000000

 Free energy of the ion-electron system (eV)
  ---------------------------------------------------
  alpha Z        PSCENC =      1243.09726314
  Ewald energy   TEWEN  =    -24552.25658513
  -Hartree energ DENC   =    -10039.91223160
  -exchange      EXHF   =         0.00000000
  -V(xc)+E(xc)   XCENC  =      1610.00983010
  PAW double counting   =     27580.31459258   -28909.17264459
  entropy T*S    EENTRO =        -0.05590489
  eigenvalues    EBANDS =      -961.20948179
  atomic energy  EATOM  =     33827.91512128
  Solvation  Ediel_sol  =         0.00000000
  ---------------------------------------------------
  free energy    TOTEN  =      -201.27004091 eV

  energy without entropy =     -201.21413602  energy(sigma->0) =     -201.24208846


--------------------------------------------------------------------------------------------------------




--------------------------------------- Iteration      1(   4)  ---------------------------------------


     EDDAV:  cpu time    1.9374: real time    1.9420
    --------------------------------------------
      LOOP:  cpu time    1.9374: real time    1.9420

 eigenvalue-minimisations  :  1296
 total energy-change (2. order) :-0.2661728E+03  (-0.2589958E+03)
 number of electron     394.0000000 magnetization      40.0000000
 augmentation part      394.0000000 magnetization      40.0000000

 Free energy of the ion-electron system (eV)
  ---------------------------------------------------
  alpha Z        PSCENC =      1243.09726314
  Ewald energy   TEWEN  =    -24552.25658513
  -Hartree energ DENC   =    -10039.91223160
  -exchange      EXHF   =         0.00000000
  -V(xc)+E(xc)   XCENC  =      1610.00983010
  PAW double counting   =     27580.31459258   -28909.17264459
  entropy T*S    EENTRO =        -0.09174357
  eigenvalues    EBANDS =     -1227.34641503
  atomic energy  EATOM  =     33827.91512128
  Solvation  Ediel_sol  =         0.00000000
  ---------------------------------------------------
  free energy    TOTEN  =      -467.44281283 eV

  energy without entropy =     -467.35106926  energy(sigma->0) =     -467.39694104


--------------------------------------------------------------------------------------------------------




--------------------------------------- Iteration      1(   5)  ---------------------------------------


     EDDAV:  cpu time    2.8362: real time    2.8429
    CHARGE:  cpu time    0.1568: real time    0.1572
    MIXING:  cpu time    0.0038: real time    0.0072
    --------------------------------------------
      LOOP:  cpu time    2.9965: real time    3.0070

 eigenvalue-minimisations  :  1808
 total energy-change (2. order) :-0.1486956E+02  (-0.1475462E+02)
 number of electron     393.9999800 magnetization      42.4545402
 augmentation part      120.1116328 magnetization      31.6998098

 Broyden mixing:
  rms(total) = 0.10726E+02    rms(broyden)= 0.10725E+02
  rms(prec ) = 0.13249E+02
  weight for this iteration     100.00

 Free energy of the ion-electron system (eV)
  ---------------------------------------------------
  alpha Z        PSCENC =      1243.09726314
  Ewald energy   TEWEN  =    -24552.25658513
  -Hartree energ DENC   =    -10039.91223160
  -exchange      EXHF   =         0.00000000
  -V(xc)+E(xc)   XCENC  =      1610.00983010
  PAW double counting   =     27580.31459258   -28909.17264459
  entropy T*S    EENTRO =        -0.08993876
  eigenvalues    EBANDS =     -1242.21777953
  atomic energy  EATOM  =     33827.91512128
  Solvation  Ediel_sol  =         0.00000000
  ---------------------------------------------------
  free energy    TOTEN  =      -482.31237251 eV

  energy without entropy =     -482.22243376  energy(sigma->0) =     -482.26740313


--------------------------------------------------------------------------------------------------------




--------------------------------------- Iteration      1(   6)  ---------------------------------------


    POTLOK:  cpu time    0.1588: real time    0.1591
    SETDIJ:  cpu time    0.0230: real time    0.0230
     EDDAV:  cpu time    2.5097: real time    2.5156
    CHARGE:  cpu time    0.1547: real time    0.1551
    MIXING:  cpu time    0.0037: real time    0.0037
    --------------------------------------------
      LOOP:  cpu time    2.8498: real time    2.8565

 eigenvalue-minimisations  :  1472
 total energy-change (2. order) :-0.8315123E+00  (-0.1054415E+03)
 number of electron     393.9999787 magnetization      36.4631414
 augmentation part      148.0270973 magnetization      33.9625176

 Broyden mixing:
  rms(total) = 0.17768E+02    rms(broyden)= 0.17767E+02
  rms(prec ) = 0.19568E+02
  weight for this iteration     100.00

 eigenvalues of (default mixing * dielectric matrix)
  average eigenvalue GAMMA=   0.2523
  0.2523

 Free energy of the ion-electron system (eV)
  ---------------------------------------------------
  alpha Z        PSCENC =      1243.09726314
  Ewald energy   TEWEN  =    -24552.25658513
  -Hartree energ DENC   =     -9586.82471087
  -exchange      EXHF   =         0.00000000
  -V(xc)+E(xc)   XCENC  =      1624.35663399
  PAW double counting   =     30212.44272050   -31379.78659977
  entropy T*S    EENTRO =        -0.04590794
  eigenvalues    EBANDS =     -1872.04182002
  atomic energy  EATOM  =     33827.91512128
  Solvation  Ediel_sol  =         0.00000000
  ---------------------------------------------------
  free energy    TOTEN  =      -483.14388482 eV

  energy without entropy =     -483.09797688  energy(sigma->0) =     -483.12093085


--------------------------------------------------------------------------------------------------------




--------------------------------------- Iteration      1(   7)  ---------------------------------------


    POTLOK:  cpu time    0.1573: real time    0.1577
    SETDIJ:  cpu time    0.0227: real time    0.0228
     EDDAV:  cpu time    2.3366: real time    2.3422
    CHARGE:  cpu time    0.1522: real time    0.1526
    MIXING:  cpu time    0.0036: real time    0.0037
    --------------------------------------------
      LOOP:  cpu time    2.6726: real time    2.6790

 eigenvalue-minimisations  :  1344
 total energy-change (2. order) : 0.1037120E+03  (-0.2478698E+02)
 number of electron     393.9999776 magnetization      27.7271717
 augmentation part      135.6723985 magnetization      24.7174953

 Broyden mixing:
  rms(total) = 0.56503E+01    rms(broyden)= 0.56498E+01
  rms(prec ) = 0.63860E+01
  weight for this iteration     100.00

 eigenvalues of (default mixing * dielectric matrix)
  average eigenvalue GAMMA=   0.5711
  0.5711  0.5711

 Free energy of the ion-electron system (eV)
  ---------------------------------------------------
  alpha Z        PSCENC =      1243.09726314
  Ewald energy   TEWEN  =    -24552.25658513
  -Hartree energ DENC   =     -9772.80657933
  -exchange      EXHF   =         0.00000000
  -V(xc)+E(xc)   XCENC  =      1611.25906901
  PAW double counting   =     31461.10039009   -32749.63662918
  entropy T*S    EENTRO =        -0.01980710
  eigenvalues    EBANDS =     -1448.08416396
  atomic energy  EATOM  =     33827.91512128
  Solvation  Ediel_sol  =         0.00000000
  ---------------------------------------------------
  free energy    TOTEN  =      -379.43192118 eV

  energy without entropy =     -379.41211408  energy(sigma->0) =     -379.42201763


--------------------------------------------------------------------------------------------------------




--------------------------------------- Iteration      1(   8)  ---------------------------------------


    POTLOK:  cpu time    0.1581: real time    0.1584
    SETDIJ:  cpu time    0.0229: real time    0.0230
     EDDAV:  cpu time    2.4306: real time    2.4364
    CHARGE:  cpu time    0.1584: real time    0.1587
    MIXING:  cpu time    0.0038: real time    0.0038
    --------------------------------------------
      LOOP:  cpu time    2.7738: real time    2.7804

 eigenvalue-minimisations  :  1408
 total energy-change (2. order) :-0.9878448E+01  (-0.9786639E+01)
 number of electron     393.9999780 magnetization      25.2544557
 augmentation part      129.7805601 magnetization      21.7794639

 Broyden mixing:
  rms(total) = 0.84945E+01    rms(broyden)= 0.84941E+01
  rms(prec ) = 0.11771E+02
  weight for this iteration     100.00

 eigenvalues of (default mixing * dielectric matrix)
  average eigenvalue GAMMA=   0.4878
  0.6315  0.6315  0.2004

 Free energy of the ion-electron system (eV)
  ---------------------------------------------------
  alpha Z        PSCENC =      1243.09726314
  Ewald energy   TEWEN  =    -24552.25658513
  -Hartree energ DENC   =     -9768.56354389
  -exchange      EXHF   =         0.00000000
  -V(xc)+E(xc)   XCENC  =      1601.87441083
  PAW double counting   =     32767.42376097   -34109.26098296
  entropy T*S    EENTRO =        -0.05094594
  eigenvalues    EBANDS =     -1399.48886719
  atomic energy  EATOM  =     33827.91512128
  Solvation  Ediel_sol  =         0.00000000
  ---------------------------------------------------
  free energy    TOTEN  =      -389.31036890 eV

  energy without entropy =     -389.25942296  energy(sigma->0) =     -389.28489593


--------------------------------------------------------------------------------------------------------




--------------------------------------- Iteration      1(   9)  ---------------------------------------


    POTLOK:  cpu time    0.1576: real time    0.1579
    SETDIJ:  cpu time    0.0230: real time    0.0230
     EDDAV:  cpu time    2.4423: real time    2.4481
    CHARGE:  cpu time    0.1572: real time    0.1576
    MIXING:  cpu time    0.0039: real time    0.0040
    --------------------------------------------
      LOOP:  cpu time    2.7840: real time    2.7906

 eigenvalue-minimisations  :  1424
 total energy-change (2. order) : 0.7368489E+01  (-0.6379179E+01)
 number of electron     393.9999764 magnetization      18.6562656
 augmentation part      130.7629217 magnetization      15.8166422

 Broyden mixing:
  rms(total) = 0.40783E+01    rms(broyden)= 0.40776E+01
  rms(prec ) = 0.52824E+01
  weight for this iteration     100.00

 eigenvalues of (default mixing * dielectric matrix)
  average eigenvalue GAMMA=   0.5344
  0.8885  0.7234  0.3954  0.1304

 Free energy of the ion-electron system (eV)
  ---------------------------------------------------
  alpha Z        PSCENC =      1243.09726314
  Ewald energy   TEWEN  =    -24552.25658513
  -Hartree energ DENC   =     -9756.08573916
  -exchange      EXHF   =         0.00000000
  -V(xc)+E(xc)   XCENC  =      1600.34631139
  PAW double counting   =     33162.21456686   -34511.66750596
  entropy T*S    EENTRO =        -0.01679342
  eigenvalues    EBANDS =     -1395.48851845
  atomic energy  EATOM  =     33827.91512128
  Solvation  Ediel_sol  =         0.00000000
  ---------------------------------------------------
  free energy    TOTEN  =      -381.94187944 eV

  energy without entropy =     -381.92508602  energy(sigma->0) =     -381.93348273


--------------------------------------------------------------------------------------------------------




--------------------------------------- Iteration      1(  10)  ---------------------------------------


    POTLOK:  cpu time    0.1599: real time    0.1603
    SETDIJ:  cpu time    0.0231: real time    0.0231
     EDDAV:  cpu time    2.2935: real time    2.2990
    CHARGE:  cpu time    0.1551: real time    0.1555
    MIXING:  cpu time    0.0040: real time    0.0040
    --------------------------------------------
      LOOP:  cpu time    2.6356: real time    2.6419

 eigenvalue-minimisations  :  1312
 total energy-change (2. order) : 0.3951387E+01  (-0.4291524E+01)
 number of electron     393.9999767 magnetization      14.9117989
 augmentation part      131.7679198 magnetization      13.4079351

 Broyden mixing:
  rms(total) = 0.43524E+01    rms(broyden)= 0.43517E+01
  rms(prec ) = 0.56372E+01
  weight for this iteration     100.00

 eigenvalues of (default mixing * dielectric matrix)
  average eigenvalue GAMMA=   0.5536
  1.3435  0.6519  0.4254  0.2173  0.1301

 Free energy of the ion-electron system (eV)
  ---------------------------------------------------
  alpha Z        PSCENC =      1243.09726314
  Ewald energy   TEWEN  =    -24552.25658513
  -Hartree energ DENC   =     -9724.51158620
  -exchange      EXHF   =         0.00000000
  -V(xc)+E(xc)   XCENC  =      1598.38469782
  PAW double counting   =     34160.81765005   -35521.51720843
  entropy T*S    EENTRO =        -0.03169373
  eigenvalues    EBANDS =     -1409.88815097
  atomic energy  EATOM  =     33827.91512128
  Solvation  Ediel_sol  =         0.00000000
  ---------------------------------------------------
  free energy    TOTEN  =      -377.99049216 eV

  energy without entropy =     -377.95879843  energy(sigma->0) =     -377.97464530


--------------------------------------------------------------------------------------------------------




--------------------------------------- Iteration      1(  11)  ---------------------------------------


    POTLOK:  cpu time    0.1587: real time    0.1591
    SETDIJ:  cpu time    0.0234: real time    0.0234
     EDDAV:  cpu time    2.4723: real time    2.4782
    CHARGE:  cpu time    0.1562: real time    0.1566
    MIXING:  cpu time    0.0042: real time    0.0042
    --------------------------------------------
      LOOP:  cpu time    2.8149: real time    2.8217

 eigenvalue-minimisations  :  1424
 total energy-change (2. order) : 0.3011676E+01  (-0.4678360E+01)
 number of electron     393.9999765 magnetization      11.0223668
 augmentation part      132.2502896 magnetization       7.9209190

 Broyden mixing:
  rms(total) = 0.23974E+01    rms(broyden)= 0.23965E+01
  rms(prec ) = 0.33525E+01
  weight for this iteration     100.00

 eigenvalues of (default mixing * dielectric matrix)
  average eigenvalue GAMMA=   0.5666
  1.6391  0.5967  0.4439  0.4439  0.1380  0.1380

 Free energy of the ion-electron system (eV)
  ---------------------------------------------------
  alpha Z        PSCENC =      1243.09726314
  Ewald energy   TEWEN  =    -24552.25658513
  -Hartree energ DENC   =     -9719.95869323
  -exchange      EXHF   =         0.00000000
  -V(xc)+E(xc)   XCENC  =      1597.91387604
  PAW double counting   =     34679.35463216   -36047.16755365
  entropy T*S    EENTRO =        -0.00864791
  eigenvalues    EBANDS =     -1403.86822878
  atomic energy  EATOM  =     33827.91512128
  Solvation  Ediel_sol  =         0.00000000
  ---------------------------------------------------
  free energy    TOTEN  =      -374.97881608 eV

  energy without entropy =     -374.97016817  energy(sigma->0) =     -374.97449213


--------------------------------------------------------------------------------------------------------




--------------------------------------- Iteration      1(  12)  ---------------------------------------


    POTLOK:  cpu time    0.1576: real time    0.1580
    SETDIJ:  cpu time    0.0229: real time    0.0229
     EDDAV:  cpu time    2.3553: real time    2.3609
    CHARGE:  cpu time    0.1446: real time    0.1450
    MIXING:  cpu time    0.0041: real time    0.0041
    --------------------------------------------
      LOOP:  cpu time    2.6845: real time    2.6909

 eigenvalue-minimisations  :  1360
 total energy-change (2. order) : 0.1041682E+01  (-0.1910883E+01)
 number of electron     393.9999763 magnetization      10.3411433
 augmentation part      131.5066228 magnetization       7.4510943

 Broyden mixing:
  rms(total) = 0.18686E+01    rms(broyden)= 0.18680E+01
  rms(prec ) = 0.24358E+01
  weight for this iteration     100.00

 eigenvalues of (default mixing * dielectric matrix)
  average eigenvalue GAMMA=   0.5561
  1.7442  0.5526  0.5526  0.3918  0.3918  0.1347  0.1248

 Free energy of the ion-electron system (eV)
  ---------------------------------------------------
  alpha Z        PSCENC =      1243.09726314
  Ewald energy   TEWEN  =    -24552.25658513
  -Hartree energ DENC   =     -9737.76286067
  -exchange      EXHF   =         0.00000000
  -V(xc)+E(xc)   XCENC  =      1598.30942154
  PAW double counting   =     35273.46128603   -36655.12693300
  entropy T*S    EENTRO =        -0.06379138
  eigenvalues    EBANDS =     -1371.51005618
  atomic energy  EATOM  =     33827.91512128
  Solvation  Ediel_sol  =         0.00000000
  ---------------------------------------------------
  free energy    TOTEN  =      -373.93713438 eV

  energy without entropy =     -373.87334299  energy(sigma->0) =     -373.90523869


--------------------------------------------------------------------------------------------------------




--------------------------------------- Iteration      1(  13)  ---------------------------------------


    POTLOK:  cpu time    0.1478: real time    0.1481
    SETDIJ:  cpu time    0.0225: real time    0.0225
     EDDAV:  cpu time    1.9879: real time    1.9926
    CHARGE:  cpu time    0.1402: real time    0.1406
    MIXING:  cpu time    0.0043: real time    0.0043
    --------------------------------------------
      LOOP:  cpu time    2.3026: real time    2.3082

 eigenvalue-minimisations  :  1344
 total energy-change (2. order) : 0.1862098E-02  (-0.1482091E+01)
 number of electron     393.9999764 magnetization       9.2644118
 augmentation part      131.2818833 magnetization       6.4661010

 Broyden mixing:
  rms(total) = 0.18901E+01    rms(broyden)= 0.18895E+01
  rms(prec ) = 0.24751E+01
  weight for this iteration     100.00

 eigenvalues of (default mixing * dielectric matrix)
  average eigenvalue GAMMA=   0.5707
  1.9539  0.6530  0.6530  0.4489  0.4489  0.1559  0.1304  0.1217

 Free energy of the ion-electron system (eV)
  ---------------------------------------------------
  alpha Z        PSCENC =      1243.09726314
  Ewald energy   TEWEN  =    -24552.25658513
  -Hartree energ DENC   =     -9743.73720062
  -exchange      EXHF   =         0.00000000
  -V(xc)+E(xc)   XCENC  =      1598.54838966
  PAW double counting   =     35418.44964813   -36803.34580920
  entropy T*S    EENTRO =        -0.04062372
  eigenvalues    EBANDS =     -1362.56547581
  atomic energy  EATOM  =     33827.91512128
  Solvation  Ediel_sol  =         0.00000000
  ---------------------------------------------------
  free energy    TOTEN  =      -373.93527228 eV

  energy without entropy =     -373.89464856  energy(sigma->0) =     -373.91496042


--------------------------------------------------------------------------------------------------------




--------------------------------------- Iteration      1(  14)  ---------------------------------------


    POTLOK:  cpu time    0.1481: real time    0.1484
    SETDIJ:  cpu time    0.0222: real time    0.0222
     EDDAV:  cpu time    2.0970: real time    2.1021
    CHARGE:  cpu time    0.1551: real time    0.1554
    MIXING:  cpu time    0.0050: real time    0.0050
    --------------------------------------------
      LOOP:  cpu time    2.4273: real time    2.4332

 eigenvalue-minimisations  :  1328
 total energy-change (2. order) : 0.3015477E+00  (-0.7789740E+00)
 number of electron     393.9999763 magnetization       8.9522603
 augmentation part      131.1341865 magnetization       5.9406729

 Broyden mixing:
  rms(total) = 0.12716E+01    rms(broyden)= 0.12709E+01
  rms(prec ) = 0.17126E+01
  weight for this iteration     100.00

 eigenvalues of (default mixing * dielectric matrix)
  average eigenvalue GAMMA=   0.5650
  2.0338  0.7356  0.7356  0.4573  0.4573  0.2850  0.1347  0.1322  0.1132

 Free energy of the ion-electron system (eV)
  ---------------------------------------------------
  alpha Z        PSCENC =      1243.09726314
  Ewald energy   TEWEN  =    -24552.25658513
  -Hartree energ DENC   =     -9747.68728349
  -exchange      EXHF   =         0.00000000
  -V(xc)+E(xc)   XCENC  =      1598.75944983
  PAW double counting   =     35659.99784901   -37048.27651747
  entropy T*S    EENTRO =        -0.04768875
  eigenvalues    EBANDS =     -1355.13533295
  atomic energy  EATOM  =     33827.91512128
  Solvation  Ediel_sol  =         0.00000000
  ---------------------------------------------------
  free energy    TOTEN  =      -373.63372454 eV

  energy without entropy =     -373.58603579  energy(sigma->0) =     -373.60988017


--------------------------------------------------------------------------------------------------------




--------------------------------------- Iteration      1(  15)  ---------------------------------------


    POTLOK:  cpu time    0.1613: real time    0.1616
    SETDIJ:  cpu time    0.0231: real time    0.0231
     EDDAV:  cpu time    2.3001: real time    2.3056
    CHARGE:  cpu time    0.1556: real time    0.1560
    MIXING:  cpu time    0.0050: real time    0.0050
    --------------------------------------------
      LOOP:  cpu time    2.6450: real time    2.6513

 eigenvalue-minimisations  :  1312
 total energy-change (2. order) : 0.1375061E+00  (-0.4260656E+00)
 number of electron     393.9999764 magnetization       9.0835097
 augmentation part      131.1392418 magnetization       5.9069716

 Broyden mixing:
  rms(total) = 0.10381E+01    rms(broyden)= 0.10379E+01
  rms(prec ) = 0.12991E+01
  weight for this iteration     100.00

 eigenvalues of (default mixing * dielectric matrix)
  average eigenvalue GAMMA=   0.5531
  2.0495  0.8062  0.8062  0.4798  0.4798  0.3772  0.1468  0.1468  0.1242  0.1146

 Free energy of the ion-electron system (eV)
  ---------------------------------------------------
  alpha Z        PSCENC =      1243.09726314
  Ewald energy   TEWEN  =    -24552.25658513
  -Hartree energ DENC   =     -9749.00035268
  -exchange      EXHF   =         0.00000000
  -V(xc)+E(xc)   XCENC  =      1598.93593167
  PAW double counting   =     35770.75198829   -37159.78265940
  entropy T*S    EENTRO =        -0.03644771
  eigenvalues    EBANDS =     -1353.12047793
  atomic energy  EATOM  =     33827.91512128
  Solvation  Ediel_sol  =         0.00000000
  ---------------------------------------------------
  free energy    TOTEN  =      -373.49621849 eV

  energy without entropy =     -373.45977077  energy(sigma->0) =     -373.47799463


--------------------------------------------------------------------------------------------------------




--------------------------------------- Iteration      1(  16)  ---------------------------------------


    POTLOK:  cpu time    0.1580: real time    0.1583
    SETDIJ:  cpu time    0.0230: real time    0.0230
     EDDAV:  cpu time    2.4015: real time    2.4072
    CHARGE:  cpu time    0.1561: real time    0.1565
    MIXING:  cpu time    0.0054: real time    0.0054
    --------------------------------------------
      LOOP:  cpu time    2.7439: real time    2.7504

 eigenvalue-minimisations  :  1392
 total energy-change (2. order) : 0.1594908E+00  (-0.1379570E+00)
 number of electron     393.9999764 magnetization       9.2689138
 augmentation part      131.1161186 magnetization       6.1516689

 Broyden mixing:
  rms(total) = 0.66172E+00    rms(broyden)= 0.66161E+00
  rms(prec ) = 0.78740E+00
  weight for this iteration     100.00

 eigenvalues of (default mixing * dielectric matrix)
  average eigenvalue GAMMA=   0.5451
  2.0702  0.8537  0.8537  0.4951  0.4951  0.3402  0.3402  0.1744  0.1339  0.1273
  0.1121

 Free energy of the ion-electron system (eV)
  ---------------------------------------------------
  alpha Z        PSCENC =      1243.09726314
  Ewald energy   TEWEN  =    -24552.25658513
  -Hartree energ DENC   =     -9751.08753919
  -exchange      EXHF   =         0.00000000
  -V(xc)+E(xc)   XCENC  =      1599.21805136
  PAW double counting   =     35853.67856081   -37242.58866877
  entropy T*S    EENTRO =        -0.03834447
  eigenvalues    EBANDS =     -1351.27458675
  atomic energy  EATOM  =     33827.91512128
  Solvation  Ediel_sol  =         0.00000000
  ---------------------------------------------------
  free energy    TOTEN  =      -373.33672771 eV

  energy without entropy =     -373.29838324  energy(sigma->0) =     -373.31755548


--------------------------------------------------------------------------------------------------------




--------------------------------------- Iteration      1(  17)  ---------------------------------------


    POTLOK:  cpu time    0.1576: real time    0.1580
    SETDIJ:  cpu time    0.0232: real time    0.0232
     EDDAV:  cpu time    2.3333: real time    2.3388
    CHARGE:  cpu time    0.1575: real time    0.1579
    MIXING:  cpu time    0.0054: real time    0.0055
    --------------------------------------------
      LOOP:  cpu time    2.6770: real time    2.6834

 eigenvalue-minimisations  :  1344
 total energy-change (2. order) :-0.1132793E+00  (-0.4877036E-01)
 number of electron     393.9999765 magnetization       9.4743276
 augmentation part      131.0912158 magnetization       6.4490992

 Broyden mixing:
  rms(total) = 0.73367E+00    rms(broyden)= 0.73354E+00
  rms(prec ) = 0.86446E+00
  weight for this iteration     100.00

 eigenvalues of (default mixing * dielectric matrix)
  average eigenvalue GAMMA=   0.5112
  2.0712  0.8652  0.8652  0.4972  0.4972  0.3528  0.3528  0.1827  0.1304  0.1304
  0.1117  0.0779

 Free energy of the ion-electron system (eV)
  ---------------------------------------------------
  alpha Z        PSCENC =      1243.09726314
  Ewald energy   TEWEN  =    -24552.25658513
  -Hartree energ DENC   =     -9751.90315826
  -exchange      EXHF   =         0.00000000
  -V(xc)+E(xc)   XCENC  =      1599.39621495
  PAW double counting   =     35890.30494323   -37278.95112588
  entropy T*S    EENTRO =        -0.01901910
  eigenvalues    EBANDS =     -1351.03366122
  atomic energy  EATOM  =     33827.91512128
  Solvation  Ediel_sol  =         0.00000000
  ---------------------------------------------------
  free energy    TOTEN  =      -373.45000700 eV

  energy without entropy =     -373.43098790  energy(sigma->0) =     -373.44049745


--------------------------------------------------------------------------------------------------------




--------------------------------------- Iteration      1(  18)  ---------------------------------------


    POTLOK:  cpu time    0.1569: real time    0.1573
    SETDIJ:  cpu time    0.0230: real time    0.0230
     EDDAV:  cpu time    2.3777: real time    2.3834
    CHARGE:  cpu time    0.1563: real time    0.1566
    MIXING:  cpu time    0.0057: real time    0.0057
    --------------------------------------------
      LOOP:  cpu time    2.7196: real time    2.7261

 eigenvalue-minimisations  :  1376
 total energy-change (2. order) : 0.1673718E-01  (-0.2392629E-01)
 number of electron     393.9999765 magnetization       9.4154046
 augmentation part      131.0935973 magnetization       6.4428213

 Broyden mixing:
  rms(total) = 0.52221E+00    rms(broyden)= 0.52216E+00
  rms(prec ) = 0.57633E+00
  weight for this iteration     100.00

 eigenvalues of (default mixing * dielectric matrix)
  average eigenvalue GAMMA=   0.5279
  2.0985  0.7889  0.7889  0.5832  0.5832  0.4691  0.4691  0.3751  0.1770  0.1562
  0.1368  0.1246  0.1123

 Free energy of the ion-electron system (eV)
  ---------------------------------------------------
  alpha Z        PSCENC =      1243.09726314
  Ewald energy   TEWEN  =    -24552.25658513
  -Hartree energ DENC   =     -9752.38743913
  -exchange      EXHF   =         0.00000000
  -V(xc)+E(xc)   XCENC  =      1599.58101732
  PAW double counting   =     35914.95718441   -37303.13293234
  entropy T*S    EENTRO =        -0.01102799
  eigenvalues    EBANDS =     -1351.19587137
  atomic energy  EATOM  =     33827.91512128
  Solvation  Ediel_sol  =         0.00000000
  ---------------------------------------------------
  free energy    TOTEN  =      -373.43326982 eV

  energy without entropy =     -373.42224183  energy(sigma->0) =     -373.42775582


--------------------------------------------------------------------------------------------------------




--------------------------------------- Iteration      1(  19)  ---------------------------------------


    POTLOK:  cpu time    0.1570: real time    0.1574
    SETDIJ:  cpu time    0.0231: real time    0.0232
     EDDAV:  cpu time    2.4052: real time    2.4109
    CHARGE:  cpu time    0.1564: real time    0.1568
    MIXING:  cpu time    0.0059: real time    0.0059
    --------------------------------------------
      LOOP:  cpu time    2.7476: real time    2.7541

 eigenvalue-minimisations  :  1392
 total energy-change (2. order) :-0.5733425E-01  (-0.1311284E-01)
 number of electron     393.9999765 magnetization       9.3723086
 augmentation part      131.1041747 magnetization       6.4287499

 Broyden mixing:
  rms(total) = 0.56226E+00    rms(broyden)= 0.56223E+00
  rms(prec ) = 0.65889E+00
  weight for this iteration     100.00

 eigenvalues of (default mixing * dielectric matrix)
  average eigenvalue GAMMA=   0.5978
  2.1196  1.1823  1.1823  0.7655  0.7655  0.4845  0.4845  0.4408  0.2663  0.1715
  0.1121  0.1221  0.1361  0.1361

 Free energy of the ion-electron system (eV)
  ---------------------------------------------------
  alpha Z        PSCENC =      1243.09726314
  Ewald energy   TEWEN  =    -24552.25658513
  -Hartree energ DENC   =     -9752.60871672
  -exchange      EXHF   =         0.00000000
  -V(xc)+E(xc)   XCENC  =      1599.67672874
  PAW double counting   =     35949.75464873   -37337.92921805
  entropy T*S    EENTRO =        -0.00824440
  eigenvalues    EBANDS =     -1351.13160165
  atomic energy  EATOM  =     33827.91512128
  Solvation  Ediel_sol  =         0.00000000
  ---------------------------------------------------
  free energy    TOTEN  =      -373.49060407 eV

  energy without entropy =     -373.48235966  energy(sigma->0) =     -373.48648186


--------------------------------------------------------------------------------------------------------




--------------------------------------- Iteration      1(  20)  ---------------------------------------


    POTLOK:  cpu time    0.1571: real time    0.1575
    SETDIJ:  cpu time    0.0230: real time    0.0231
     EDDAV:  cpu time    2.3112: real time    2.3167
    CHARGE:  cpu time    0.1565: real time    0.1569
    MIXING:  cpu time    0.0061: real time    0.0061
    --------------------------------------------
      LOOP:  cpu time    2.6540: real time    2.6603

 eigenvalue-minimisations  :  1328
 total energy-change (2. order) :-0.5392413E-01  (-0.2082529E-01)
 number of electron     393.9999766 magnetization       9.6979230
 augmentation part      131.1553322 magnetization       6.7180846

 Broyden mixing:
  rms(total) = 0.51821E+00    rms(broyden)= 0.51817E+00
  rms(prec ) = 0.62435E+00
  weight for this iteration     100.00

 eigenvalues of (default mixing * dielectric matrix)
  average eigenvalue GAMMA=   0.6331
  2.1316  1.4919  1.4919  0.7958  0.7958  0.5146  0.5146  0.4547  0.4547  0.1761
  0.1633  0.1378  0.1378  0.1122  0.1230

 Free energy of the ion-electron system (eV)
  ---------------------------------------------------
  alpha Z        PSCENC =      1243.09726314
  Ewald energy   TEWEN  =    -24552.25658513
  -Hartree energ DENC   =     -9752.02633620
  -exchange      EXHF   =         0.00000000
  -V(xc)+E(xc)   XCENC  =      1599.84227329
  PAW double counting   =     35997.64279509   -37385.32087832
  entropy T*S    EENTRO =        -0.00455829
  eigenvalues    EBANDS =     -1352.43362306
  atomic energy  EATOM  =     33827.91512128
  Solvation  Ediel_sol  =         0.00000000
  ---------------------------------------------------
  free energy    TOTEN  =      -373.54452820 eV

  energy without entropy =     -373.53996991  energy(sigma->0) =     -373.54224905


--------------------------------------------------------------------------------------------------------




--------------------------------------- Iteration      1(  21)  ---------------------------------------


    POTLOK:  cpu time    0.1580: real time    0.1584
    SETDIJ:  cpu time    0.0230: real time    0.0231
     EDDAV:  cpu time    2.3536: real time    2.3592
    CHARGE:  cpu time    0.1558: real time    0.1562
    MIXING:  cpu time    0.0062: real time    0.0062
    --------------------------------------------
      LOOP:  cpu time    2.6968: real time    2.7032

 eigenvalue-minimisations  :  1360
 total energy-change (2. order) : 0.7301933E-03  (-0.1774287E-01)
 number of electron     393.9999766 magnetization       9.8315463
 augmentation part      131.1985609 magnetization       6.8861117

 Broyden mixing:
  rms(total) = 0.42273E+00    rms(broyden)= 0.42266E+00
  rms(prec ) = 0.51878E+00
  weight for this iteration     100.00

 eigenvalues of (default mixing * dielectric matrix)
  average eigenvalue GAMMA=   0.6173
  2.3558  1.3746  1.3746  0.8280  0.8280  0.5379  0.5379  0.4346  0.4346  0.3167
  0.1781  0.1673  0.1370  0.1370  0.1122  0.1227

 Free energy of the ion-electron system (eV)
  ---------------------------------------------------
  alpha Z        PSCENC =      1243.09726314
  Ewald energy   TEWEN  =    -24552.25658513
  -Hartree energ DENC   =     -9752.29392303
  -exchange      EXHF   =         0.00000000
  -V(xc)+E(xc)   XCENC  =      1600.18840598
  PAW double counting   =     36036.12206015   -37422.82102635
  entropy T*S    EENTRO =        -0.00435657
  eigenvalues    EBANDS =     -1353.49075746
  atomic energy  EATOM  =     33827.91512128
  Solvation  Ediel_sol  =         0.00000000
  ---------------------------------------------------
  free energy    TOTEN  =      -373.54379801 eV

  energy without entropy =     -373.53944143  energy(sigma->0) =     -373.54161972


--------------------------------------------------------------------------------------------------------




--------------------------------------- Iteration      1(  22)  ---------------------------------------


    POTLOK:  cpu time    0.1580: real time    0.1584
    SETDIJ:  cpu time    0.0229: real time    0.0230
     EDDAV:  cpu time    2.1648: real time    2.1700
    CHARGE:  cpu time    0.1416: real time    0.1420
    MIXING:  cpu time    0.0059: real time    0.0059
    --------------------------------------------
      LOOP:  cpu time    2.4932: real time    2.4992

 eigenvalue-minimisations  :  1360
 total energy-change (2. order) : 0.4496181E-01  (-0.1724227E-01)
 number of electron     393.9999766 magnetization       9.9069583
 augmentation part      131.1922893 magnetization       7.0203503

 Broyden mixing:
  rms(total) = 0.22295E+00    rms(broyden)= 0.22289E+00
  rms(prec ) = 0.26630E+00
  weight for this iteration     100.00

 eigenvalues of (default mixing * dielectric matrix)
  average eigenvalue GAMMA=   0.6030
  2.2881  1.1742  1.0201  1.0201  0.7906  0.7906  0.5796  0.5414  0.4911  0.4911
  0.2194  0.1751  0.1122  0.1595  0.1228  0.1373  0.1373

 Free energy of the ion-electron system (eV)
  ---------------------------------------------------
  alpha Z        PSCENC =      1243.09726314
  Ewald energy   TEWEN  =    -24552.25658513
  -Hartree energ DENC   =     -9753.31098616
  -exchange      EXHF   =         0.00000000
  -V(xc)+E(xc)   XCENC  =      1600.34394712
  PAW double counting   =     36068.54027258   -37455.19385554
  entropy T*S    EENTRO =        -0.00673110
  eigenvalues    EBANDS =     -1352.62728239
  atomic energy  EATOM  =     33827.91512128
  Solvation  Ediel_sol  =         0.00000000
  ---------------------------------------------------
  free energy    TOTEN  =      -373.49883620 eV

  energy without entropy =     -373.49210510  energy(sigma->0) =     -373.49547065


--------------------------------------------------------------------------------------------------------




--------------------------------------- Iteration      1(  23)  ---------------------------------------


    POTLOK:  cpu time    0.1425: real time    0.1429
    SETDIJ:  cpu time    0.0212: real time    0.0212
     EDDAV:  cpu time    2.1146: real time    2.1197
    CHARGE:  cpu time    0.1404: real time    0.1407
    MIXING:  cpu time    0.0064: real time    0.0064
    --------------------------------------------
      LOOP:  cpu time    2.4251: real time    2.4309

 eigenvalue-minimisations  :  1456
 total energy-change (2. order) :-0.2583021E-02  (-0.4804671E-02)
 number of electron     393.9999766 magnetization       9.8961382
 augmentation part      131.2025615 magnetization       7.0231102

 Broyden mixing:
  rms(total) = 0.16873E+00    rms(broyden)= 0.16871E+00
  rms(prec ) = 0.20806E+00
  weight for this iteration     100.00

 eigenvalues of (default mixing * dielectric matrix)
  average eigenvalue GAMMA=   0.6156
  2.4194  1.4016  1.1051  1.1051  0.7767  0.7767  0.5515  0.5515  0.4926  0.4926
  0.3252  0.2339  0.1754  0.1632  0.1373  0.1373  0.1122  0.1228

 Free energy of the ion-electron system (eV)
  ---------------------------------------------------
  alpha Z        PSCENC =      1243.09726314
  Ewald energy   TEWEN  =    -24552.25658513
  -Hartree energ DENC   =     -9753.51753372
  -exchange      EXHF   =         0.00000000
  -V(xc)+E(xc)   XCENC  =      1600.29837204
  PAW double counting   =     36067.24610724   -37453.77958005
  entropy T*S    EENTRO =        -0.00575313
  eigenvalues    EBANDS =     -1352.49883089
  atomic energy  EATOM  =     33827.91512128
  Solvation  Ediel_sol  =         0.00000000
  ---------------------------------------------------
  free energy    TOTEN  =      -373.50141922 eV

  energy without entropy =     -373.49566609  energy(sigma->0) =     -373.49854266


--------------------------------------------------------------------------------------------------------




--------------------------------------- Iteration      1(  24)  ---------------------------------------


    POTLOK:  cpu time    0.1470: real time    0.1474
    SETDIJ:  cpu time    0.0226: real time    0.0226
     EDDAV:  cpu time    2.2315: real time    2.2368
    CHARGE:  cpu time    0.1564: real time    0.1568
    MIXING:  cpu time    0.0070: real time    0.0070
    --------------------------------------------
      LOOP:  cpu time    2.5645: real time    2.5706

 eigenvalue-minimisations  :  1296
 total energy-change (2. order) : 0.3905493E-03  (-0.4354342E-02)
 number of electron     393.9999766 magnetization       9.9771310
 augmentation part      131.1940002 magnetization       7.1118252

 Broyden mixing:
  rms(total) = 0.14824E+00    rms(broyden)= 0.14822E+00
  rms(prec ) = 0.18391E+00
  weight for this iteration     100.00

 eigenvalues of (default mixing * dielectric matrix)
  average eigenvalue GAMMA=   0.6351
  2.3396  1.6076  1.1630  1.1630  0.8969  0.8969  0.6397  0.6397  0.5381  0.4596
  0.4596  0.2352  0.1122  0.1228  0.1373  0.1373  0.1846  0.1733  0.1597

 Free energy of the ion-electron system (eV)
  ---------------------------------------------------
  alpha Z        PSCENC =      1243.09726314
  Ewald energy   TEWEN  =    -24552.25658513
  -Hartree energ DENC   =     -9753.87631367
  -exchange      EXHF   =         0.00000000
  -V(xc)+E(xc)   XCENC  =      1600.27865520
  PAW double counting   =     36077.56653324   -37464.27788053
  entropy T*S    EENTRO =        -0.00575084
  eigenvalues    EBANDS =     -1351.94207136
  atomic energy  EATOM  =     33827.91512128
  Solvation  Ediel_sol  =         0.00000000
  ---------------------------------------------------
  free energy    TOTEN  =      -373.50102867 eV

  energy without entropy =     -373.49527783  energy(sigma->0) =     -373.49815325


--------------------------------------------------------------------------------------------------------




--------------------------------------- Iteration      1(  25)  ---------------------------------------


    POTLOK:  cpu time    0.1577: real time    0.1580
    SETDIJ:  cpu time    0.0231: real time    0.0232
     EDDAV:  cpu time    2.5127: real time    2.5187
    CHARGE:  cpu time    0.1569: real time    0.1572
    MIXING:  cpu time    0.0074: real time    0.0074
    --------------------------------------------
      LOOP:  cpu time    2.8577: real time    2.8645

 eigenvalue-minimisations  :  1472
 total energy-change (2. order) : 0.5539219E-02  (-0.1258974E-02)
 number of electron     393.9999766 magnetization       9.9863496
 augmentation part      131.1809730 magnetization       7.1170102

 Broyden mixing:
  rms(total) = 0.79263E-01    rms(broyden)= 0.79253E-01
  rms(prec ) = 0.98042E-01
  weight for this iteration     100.00

 eigenvalues of (default mixing * dielectric matrix)
  average eigenvalue GAMMA=   0.6592
  2.5155  1.8116  1.0526  1.0526  1.0712  1.0712  0.6726  0.6726  0.5253  0.5253
  0.4738  0.4738  0.2299  0.1122  0.1228  0.1373  0.1373  0.1912  0.1738  0.1613

 Free energy of the ion-electron system (eV)
  ---------------------------------------------------
  alpha Z        PSCENC =      1243.09726314
  Ewald energy   TEWEN  =    -24552.25658513
  -Hartree energ DENC   =     -9753.95904699
  -exchange      EXHF   =         0.00000000
  -V(xc)+E(xc)   XCENC  =      1600.25025173
  PAW double counting   =     36076.20397710   -37462.83686975
  entropy T*S    EENTRO =        -0.00609031
  eigenvalues    EBANDS =     -1351.90351052
  atomic energy  EATOM  =     33827.91512128
  Solvation  Ediel_sol  =         0.00000000
  ---------------------------------------------------
  free energy    TOTEN  =      -373.49548945 eV

  energy without entropy =     -373.48939914  energy(sigma->0) =     -373.49244430


--------------------------------------------------------------------------------------------------------




--------------------------------------- Iteration      1(  26)  ---------------------------------------


    POTLOK:  cpu time    0.1580: real time    0.1584
    SETDIJ:  cpu time    0.0229: real time    0.0229
     EDDAV:  cpu time    2.5613: real time    2.5674
    CHARGE:  cpu time    0.1584: real time    0.1587
    MIXING:  cpu time    0.0074: real time    0.0074
    --------------------------------------------
      LOOP:  cpu time    2.9079: real time    2.9148

 eigenvalue-minimisations  :  1504
 total energy-change (2. order) : 0.5525970E-03  (-0.6208685E-03)
 number of electron     393.9999766 magnetization       9.9930622
 augmentation part      131.1808184 magnetization       7.1183964

 Broyden mixing:
  rms(total) = 0.58568E-01    rms(broyden)= 0.58563E-01
  rms(prec ) = 0.71116E-01
  weight for this iteration     100.00

 eigenvalues of (default mixing * dielectric matrix)
  average eigenvalue GAMMA=   0.6677
  2.4578  1.9780  1.0574  1.0574  1.0951  1.0951  0.7029  0.7029  0.5853  0.5500
  0.5500  0.4634  0.4634  0.2298  0.1122  0.1228  0.1373  0.1373  0.1891  0.1612
  0.1740

 Free energy of the ion-electron system (eV)
  ---------------------------------------------------
  alpha Z        PSCENC =      1243.09726314
  Ewald energy   TEWEN  =    -24552.25658513
  -Hartree energ DENC   =     -9753.96219756
  -exchange      EXHF   =         0.00000000
  -V(xc)+E(xc)   XCENC  =      1600.25894220
[...]
   -.270E+02 0.170E+02 0.390E+02   0.277E+02 -.171E+02 -.395E+02   -.596E+00 0.218E-01 0.462E+00   -.832E-01 0.130E-02 -.120E-01
   -.270E+02 -.170E+02 0.390E+02   0.277E+02 0.171E+02 -.395E+02   -.596E+00 -.218E-01 0.462E+00   -.832E-01 -.130E-02 -.120E-01
   0.270E+02 -.170E+02 -.390E+02   -.277E+02 0.171E+02 0.395E+02   0.596E+00 -.218E-01 -.462E+00   0.832E-01 -.130E-02 0.120E-01
   -.151E-10 0.919E-12 -.127E-11   -.568E-13 0.116E-12 0.000E+00   0.000E+00 0.000E+00 -.582E-25   0.342E-11 -.554E-12 0.101E-11
   -.837E-13 -.481E-13 0.929E-14   -.497E-13 -.367E-16 0.995E-13   0.000E+00 0.000E+00 0.460E-25   -.189E-11 -.924E-12 0.124E-11
   -.305E-12 0.996E-12 -.182E-11   0.213E-13 -.854E-13 -.462E-13   0.000E+00 0.000E+00 0.105E-25   -.225E-11 0.924E-12 0.136E-11
   -.478E-12 -.532E-13 -.133E-12   0.302E-13 -.571E-13 0.715E-13   0.000E+00 0.000E+00 0.808E-25   -.675E-12 -.985E-12 -.285E-11
   0.223E+02 0.155E+02 -.398E+02   -.227E+02 -.157E+02 0.403E+02   0.391E+00 0.238E+00 -.467E+00   -.148E-01 -.466E-02 -.146E-01
   -.223E+02 0.155E+02 0.398E+02   0.227E+02 -.157E+02 -.403E+02   -.391E+00 0.238E+00 0.467E+00   0.148E-01 -.466E-02 0.146E-01
   -.223E+02 -.155E+02 0.398E+02   0.227E+02 0.157E+02 -.403E+02   -.391E+00 -.238E+00 0.467E+00   0.148E-01 0.466E-02 0.146E-01
   0.223E+02 -.155E+02 -.398E+02   -.227E+02 0.157E+02 0.403E+02   0.391E+00 -.238E+00 -.467E+00   -.148E-01 0.466E-02 -.146E-01
   -.324E-11 0.977E-12 0.334E-11   0.799E-13 -.116E-12 0.262E-13   0.181E-24 0.000E+00 0.141E-24   -.305E-12 0.982E-12 -.306E-11
   -.409E-12 -.704E-13 -.860E-13   0.488E-13 0.113E-12 -.426E-13   0.000E+00 0.000E+00 -.113E-25   0.288E-11 0.163E-11 -.128E-11
   -.200E-11 0.914E-12 -.402E-11   0.204E-13 0.567E-13 0.497E-13   0.000E+00 0.000E+00 0.646E-26   0.305E-11 -.163E-11 -.121E-11
   0.431E+02 -.941E-13 0.247E+03   -.461E+02 -.503E-13 -.259E+03   0.297E+01 0.000E+00 0.116E+02   0.342E-02 -.223E-12 0.160E-01
   -.431E+02 -.717E-13 -.247E+03   0.461E+02 -.304E-13 0.259E+03   -.297E+01 0.000E+00 -.116E+02   -.342E-02 -.342E-12 -.160E-01
   0.450E+02 -.182E-12 -.296E+03   -.472E+02 -.906E-13 0.311E+03   0.208E+01 0.000E+00 -.144E+02   0.549E-01 -.483E-12 0.126E-01
   -.450E+02 -.101E-12 0.296E+03   0.472E+02 -.785E-13 -.311E+03   -.208E+01 0.000E+00 0.144E+02   -.549E-01 0.543E-12 -.126E-01
   0.112E+02 -.322E+01 0.264E+03   -.132E+02 0.285E+01 -.276E+03   0.195E+01 0.391E+00 0.118E+02   -.224E-01 -.171E-01 0.156E-01
   -.112E+02 -.322E+01 -.264E+03   0.132E+02 0.285E+01 0.276E+03   -.195E+01 0.391E+00 -.118E+02   0.224E-01 -.171E-01 -.156E-01
   -.112E+02 0.322E+01 -.264E+03   0.132E+02 -.285E+01 0.276E+03   -.195E+01 -.391E+00 -.118E+02   0.224E-01 0.171E-01 -.156E-01
   0.112E+02 0.322E+01 0.264E+03   -.132E+02 -.285E+01 -.276E+03   0.195E+01 -.391E+00 0.118E+02   -.224E-01 0.171E-01 0.156E-01
   -.406E+02 0.350E+02 -.294E+03   0.454E+02 -.377E+02 0.309E+03   -.475E+01 0.270E+01 -.148E+02   0.309E-01 0.146E-02 0.592E-01
   0.406E+02 0.350E+02 0.294E+03   -.454E+02 -.377E+02 -.309E+03   0.475E+01 0.270E+01 0.148E+02   -.309E-01 0.146E-02 -.592E-01
   0.406E+02 -.350E+02 0.294E+03   -.454E+02 0.377E+02 -.309E+03   0.475E+01 -.270E+01 0.148E+02   -.309E-01 -.146E-02 -.592E-01
   -.406E+02 -.350E+02 -.294E+03   0.454E+02 0.377E+02 0.309E+03   -.475E+01 -.270E+01 -.148E+02   0.309E-01 -.146E-02 0.592E-01
   0.219E+02 0.125E-12 0.258E+03   -.239E+02 0.299E-13 -.269E+03   0.196E+01 0.000E+00 0.117E+02   -.110E-01 0.243E-12 0.201E-01
   -.219E+02 0.881E-13 -.258E+03   0.239E+02 0.174E-13 0.269E+03   -.196E+01 0.000E+00 -.117E+02   0.110E-01 0.339E-12 -.201E-01
   0.208E+01 0.141E-12 -.273E+03   0.499E+00 0.868E-13 0.284E+03   -.262E+01 0.000E+00 -.109E+02   0.459E-01 0.489E-12 0.196E-01
   -.208E+01 0.234E-13 0.273E+03   -.499E+00 0.123E-12 -.284E+03   0.262E+01 0.000E+00 0.109E+02   -.459E-01 -.633E-12 -.196E-01
   -.405E+02 -.299E-12 0.297E+03   0.424E+02 0.785E-13 -.310E+03   -.186E+01 0.000E+00 0.137E+02   0.603E-02 -.392E-12 0.409E-01
   0.405E+02 -.326E-12 -.297E+03   -.424E+02 0.965E-13 0.310E+03   0.186E+01 0.000E+00 -.137E+02   -.603E-02 0.115E-11 -.409E-01
   -.248E+02 -.292E-12 -.253E+03   0.264E+02 0.735E-13 0.263E+03   -.156E+01 0.000E+00 -.109E+02   -.408E-01 0.583E-12 0.384E-01
   0.248E+02 -.398E-12 0.253E+03   -.264E+02 0.216E-13 -.263E+03   0.156E+01 0.000E+00 0.109E+02   0.408E-01 -.744E-12 -.384E-01
   0.363E+02 0.378E+02 0.295E+03   -.407E+02 -.401E+02 -.310E+03   0.446E+01 0.233E+01 0.155E+02   0.934E-02 0.107E-01 0.273E-01
   -.363E+02 0.378E+02 -.295E+03   0.407E+02 -.401E+02 0.310E+03   -.446E+01 0.233E+01 -.155E+02   -.934E-02 0.107E-01 -.273E-01
   -.363E+02 -.378E+02 -.295E+03   0.407E+02 0.401E+02 0.310E+03   -.446E+01 -.233E+01 -.155E+02   -.934E-02 -.107E-01 -.273E-01
   0.363E+02 -.378E+02 0.295E+03   -.407E+02 0.401E+02 -.310E+03   0.446E+01 -.233E+01 0.155E+02   0.934E-02 -.107E-01 0.273E-01
   -.209E+02 -.401E+01 -.265E+03   0.228E+02 0.436E+01 0.276E+03   -.190E+01 -.346E+00 -.118E+02   -.384E-01 -.635E-02 -.599E-02
   0.209E+02 -.401E+01 0.265E+03   -.228E+02 0.436E+01 -.276E+03   0.190E+01 -.346E+00 0.118E+02   0.384E-01 -.635E-02 0.599E-02
   0.209E+02 0.401E+01 0.265E+03   -.228E+02 -.436E+01 -.276E+03   0.190E+01 0.346E+00 0.118E+02   0.384E-01 0.635E-02 0.599E-02
   -.209E+02 0.401E+01 -.265E+03   0.228E+02 -.436E+01 0.276E+03   -.190E+01 0.346E+00 -.118E+02   -.384E-01 0.635E-02 -.599E-02
   0.157E+02 -.148E-12 0.272E+03   -.189E+02 -.118E-13 -.283E+03   0.317E+01 0.000E+00 0.116E+02   0.215E-01 0.450E-12 0.348E-01
   -.157E+02 -.129E-12 -.272E+03   0.189E+02 0.389E-13 0.283E+03   -.317E+01 0.000E+00 -.116E+02   -.215E-01 -.107E-11 -.348E-01
   -.273E+02 -.155E-12 -.260E+03   0.299E+02 -.421E-13 0.272E+03   -.253E+01 0.000E+00 -.119E+02   -.412E-01 -.538E-12 0.380E-01
   0.273E+02 -.766E-13 0.260E+03   -.299E+02 -.187E-13 -.272E+03   0.253E+01 0.000E+00 0.119E+02   0.412E-01 0.743E-12 -.380E-01
 -----------------------------------------------------------------------------------------------
   -.260E-10 -.109E-10 0.114E-10   -.249E-13 -.825E-13 -.227E-12   0.444E-15 -.833E-15 -.178E-14   -.452E-11 -.392E-12 -.360E-11
 
 
 POSITION                                       TOTAL-FORCE (eV/Angst)
 -----------------------------------------------------------------------------------
      4.01753      1.37903      2.35608         0.008013      0.000851     -0.007056
      2.33091      1.37903      6.99531        -0.008013      0.000851      0.007056
      2.33091      4.25691      6.99531        -0.008013     -0.000851      0.007056
      4.01753      4.25691      2.35608         0.008013     -0.000851     -0.007056
      1.58968      2.81797      2.34037        -0.004499     -0.000000     -0.010117
      4.75875      2.81797      7.01102         0.004499     -0.000000      0.010117
      6.60645      0.00000      2.34810         0.003487     -0.000000      0.009946
     -0.25801      0.00000      7.00329        -0.003487     -0.000000     -0.009946
     -0.81967      1.38120      2.32281        -0.000136      0.000454     -0.001726
      7.16811      1.38120      7.02859         0.000136      0.000454      0.001726
      7.16811      4.25474      7.02859         0.000136     -0.000454      0.001726
     -0.81967      4.25474      2.32281        -0.000136     -0.000454     -0.001726
      6.60398      2.81797      2.35098         0.002087     -0.000000      0.003716
     -0.25554      2.81797      7.00042        -0.002087     -0.000000     -0.003716
     -0.00000      0.00000     -0.00000         0.000000     -0.000000      0.000000
      2.50817      1.40699      0.01517         0.000311      0.000493     -0.005962
      3.84027      1.40699      9.33622        -0.000311      0.000493      0.005962
      3.84027      4.22896      9.33622        -0.000311     -0.000493      0.005962
      2.50817      4.22896      0.01517         0.000311     -0.000493     -0.005962
     -0.00000      2.81797     -0.00000         0.000000     -0.000000      0.000000
      5.01269      0.00000      0.01457         0.000000     -0.000000      0.000000
      5.01269      2.81797      0.01457         0.000000     -0.000000      0.000000
      3.17422      0.00000      4.67570         0.000000     -0.000000      0.000000
      5.67857      1.40638      4.68365        -0.004355      0.002899      0.007503
      0.66987      1.40638      4.66774         0.004355      0.002899     -0.007503
      0.66987      4.22956      4.66774         0.004355     -0.002899     -0.007503
      5.67857      4.22956      4.68365        -0.004355     -0.002899      0.007503
      3.17422      2.81797      4.67570         0.000000     -0.000000      0.000000
     -1.83847      0.00000      4.66112         0.000000     -0.000000      0.000000
     -1.83847      2.81797      4.66112         0.000000     -0.000000      0.000000
      5.00826      0.00000      3.63730        -0.003253     -0.000000      0.007560
      1.34017      0.00000      5.71409         0.003253     -0.000000     -0.007560
      3.33854      0.00000      0.95851        -0.007600     -0.000000     -0.004416
      3.00990      0.00000      8.39289         0.007600     -0.000000      0.004416
      7.44911      1.42350      3.67217        -0.009930      0.005098      0.008246
     -1.10068      1.42350      5.67922         0.009930      0.005098     -0.008246
     -1.10068      4.21244      5.67922         0.009930     -0.005098     -0.008246
      7.44911      4.21244      3.67217        -0.009930     -0.005098      0.008246
      0.73461      1.42618      0.98039         0.002588     -0.000312     -0.001312
      5.61383      1.42618      8.37100        -0.002588     -0.000312      0.001312
      5.61383      4.20976      8.37100        -0.002588      0.000312      0.001312
      0.73461      4.20976      0.98039         0.002588      0.000312     -0.001312
      4.92934      2.81797      3.65033        -0.005430     -0.000000      0.008093
      1.41910      2.81797      5.70106         0.005430     -0.000000     -0.008093
      3.24990      2.81797      1.03569         0.005370     -0.000000     -0.006322
      3.09853      2.81797      8.31570        -0.005370     -0.000000      0.006322
     -0.16681      0.00000      3.71057         0.001926     -0.000000     -0.009316
      6.51525      0.00000      5.64083        -0.001926     -0.000000      0.009316
      8.28806      0.00000      1.02404        -0.005151     -0.000000      0.013240
     -1.93962      0.00000      8.32735         0.005151     -0.000000     -0.013240
      2.42989      1.41439      3.70664         0.006922      0.001377     -0.006671
      3.91854      1.41439      5.64475        -0.006922      0.001377      0.006671
      3.91854      4.22155      5.64475        -0.006922     -0.001377      0.006671
      2.42989      4.22155      3.70664         0.006922     -0.001377     -0.006671
      5.73678      1.40878      1.04453        -0.005201      0.002234      0.003522
      0.61166      1.40878      8.30686         0.005201      0.002234     -0.003522
      0.61166      4.22716      8.30686         0.005201     -0.002234     -0.003522
      5.73678      4.22716      1.04453        -0.005201     -0.002234      0.003522
      0.00338      2.81797      3.62490         0.000899     -0.000000     -0.010405
      6.34506      2.81797      5.72650        -0.000899     -0.000000      0.010405
      8.23217      2.81797      1.04820        -0.005660     -0.000000      0.007830
     -1.88373      2.81797      8.30319         0.005660     -0.000000     -0.007830
 -----------------------------------------------------------------------------------
    total drift:                               -0.000000     -0.000000      0.000000


--------------------------------------------------------------------------------------------------------



  FREE ENERGIE OF THE ION-ELECTRON SYSTEM (eV)
  ---------------------------------------------------
  free  energy   TOTEN  =      -373.5099290921 eV

  energy  without entropy=     -373.5049017898  energy(sigma->0) =     -373.50741544
 
 d Force = 0.9047154E-03[ 0.654E-03, 0.116E-02]  d Energy = 0.8539954E-03 0.507E-04
 d Force = 0.2257950E+01[ 0.224E+01, 0.227E+01]  d Ewald  = 0.2584803E+01-0.327E+00


--------------------------------------------------------------------------------------------------------


    POTLOK:  cpu time    0.1814: real time    0.1818


--------------------------------------------------------------------------------------------------------


 Quasi-Newton relaxation of ions (Broydens 2nd method)
  g(Force)  = 0.213E-03   g(Stress)= 0.336E-05

 retain information from N=  4 steps
 eigenvalues of (default step * inverse Hessian matrix)
  average eigenvalue of G=   1.6103
 eigenvalue spectrum of G is  2.5139  0.6908  1.6182  1.6182


--------------------------------------------------------------------------------------------------------


  
 reached required accuracy - stopping structural energy minimisation
     LOOP+:  cpu time   23.4487: real time   23.5756
    4ORBIT:  cpu time    0.0000: real time    0.0000

volume of typ            1:    20.7 %

volume of typ            2:    19.3 %

volume of typ            3:     9.9 %
 
total charge     
 
# of ion       s       p       d       tot
------------------------------------------
    1        2.080   0.259   0.095   2.434
    2        2.080   0.259   0.095   2.434
    3        2.080   0.259   0.095   2.434
    4        2.080   0.259   0.095   2.434
    5        2.082   0.255   0.097   2.435
    6        2.082   0.255   0.097   2.435
    7        2.084   0.266   0.099   2.449
    8        2.084   0.266   0.099   2.449
    9        2.080   0.259   0.094   2.433
   10        2.080   0.259   0.094   2.433
   11        2.080   0.259   0.094   2.433
   12        2.080   0.259   0.094   2.433
   13        2.085   0.265   0.099   2.449
   14        2.085   0.265   0.099   2.449
   15        0.267   0.355   7.857   8.479
   16        0.259   0.338   7.868   8.465
   17        0.259   0.338   7.868   8.465
   18        0.259   0.338   7.868   8.465
   19        0.259   0.338   7.868   8.465
   20        0.278   0.373   7.875   8.525
   21        0.276   0.377   7.861   8.514
   22        0.259   0.341   7.870   8.470
   23        0.263   0.341   7.876   8.480
   24        0.262   0.345   7.862   8.469
   25        0.262   0.345   7.862   8.469
   26        0.262   0.345   7.862   8.469
   27        0.262   0.345   7.862   8.469
   28        0.276   0.373   7.873   8.522
   29        0.272   0.368   7.866   8.506
   30        0.259   0.335   7.886   8.479
   31        1.257   2.796   0.006   4.059
   32        1.257   2.796   0.006   4.059
   33        1.260   2.787   0.006   4.054
   34        1.260   2.787   0.006   4.054
   35        1.258   2.791   0.006   4.055
   36        1.258   2.791   0.006   4.055
   37        1.258   2.791   0.006   4.055
   38        1.258   2.791   0.006   4.055
   39        1.261   2.783   0.006   4.051
   40        1.261   2.783   0.006   4.051
   41        1.261   2.783   0.006   4.051
   42        1.261   2.783   0.006   4.051
   43        1.258   2.789   0.005   4.052
   44        1.258   2.789   0.005   4.052
   45        1.256   2.797   0.005   4.058
   46        1.256   2.797   0.005   4.058
   47        1.260   2.788   0.006   4.054
   48        1.260   2.788   0.006   4.054
   49        1.257   2.794   0.006   4.057
   50        1.257   2.794   0.006   4.057
   51        1.261   2.781   0.007   4.049
   52        1.261   2.781   0.007   4.049
   53        1.261   2.781   0.007   4.049
   54        1.261   2.781   0.007   4.049
   55        1.258   2.792   0.005   4.055
   56        1.258   2.792   0.005   4.055
   57        1.258   2.792   0.005   4.055
   58        1.258   2.792   0.005   4.055
   59        1.255   2.800   0.006   4.060
   60        1.255   2.800   0.006   4.060
   61        1.257   2.791   0.006   4.054
   62        1.257   2.791   0.006   4.054
--------------------------------------------------
tot          73.65   98.51  127.42  299.58
 
magnetization (x)
 
# of ion       s       p       d       tot
------------------------------------------
    1        0.005   0.016  -0.000   0.021
    2        0.005   0.016  -0.000   0.021
    3        0.005   0.016  -0.000   0.021
    4        0.005   0.016  -0.000   0.021
    5        0.003   0.009   0.001   0.012
    6        0.003   0.009   0.001   0.012
    7        0.001   0.009  -0.001   0.010
    8        0.001   0.009  -0.001   0.010
    9        0.005   0.017  -0.000   0.022
   10        0.005   0.017  -0.000   0.022
   11        0.005   0.017  -0.000   0.022
   12        0.005   0.017  -0.000   0.022
   13        0.001   0.009  -0.001   0.009
   14        0.001   0.009  -0.001   0.009
   15        0.000  -0.000   0.448   0.448
   16        0.002  -0.000   0.750   0.751
   17        0.002  -0.000   0.750   0.751
   18        0.002  -0.000   0.750   0.751
   19        0.002  -0.000   0.750   0.751
   20       -0.006  -0.000  -0.572  -0.578
   21       -0.001  -0.001   0.171   0.170
   22        0.001  -0.001   0.723   0.723
   23       -0.005  -0.000  -0.567  -0.573
   24        0.001  -0.000   0.652   0.653
   25        0.001  -0.000   0.652   0.653
   26        0.001  -0.000   0.652   0.653
   27        0.001  -0.000   0.652   0.653
   28        0.002  -0.000   0.482   0.485
   29       -0.001  -0.000   0.457   0.456
   30        0.003  -0.000   0.737   0.740
   31        0.000  -0.068  -0.000  -0.068
   32        0.000  -0.068  -0.000  -0.068
   33        0.007   0.018   0.000   0.025
   34        0.007   0.018   0.000   0.025
   35        0.010   0.064   0.000   0.075
   36        0.010   0.064   0.000   0.075
   37        0.010   0.064   0.000   0.075
   38        0.010   0.064   0.000   0.075
   39        0.007   0.053   0.000   0.060
   40        0.007   0.053   0.000   0.060
   41        0.007   0.053   0.000   0.060
   42        0.007   0.053   0.000   0.060
   43        0.012   0.082   0.000   0.094
   44        0.012   0.082   0.000   0.094
   45        0.012   0.074   0.000   0.086
   46        0.012   0.074   0.000   0.086
   47        0.010   0.044   0.000   0.054
   48        0.010   0.044   0.000   0.054
   49        0.012   0.068   0.000   0.080
   50        0.012   0.068   0.000   0.080
   51        0.005   0.039   0.000   0.044
   52        0.005   0.039   0.000   0.044
   53        0.005   0.039   0.000   0.044
   54        0.005   0.039   0.000   0.044
   55        0.010   0.072   0.000   0.083
   56        0.010   0.072   0.000   0.083
   57        0.010   0.072   0.000   0.083
   58        0.010   0.072   0.000   0.083
   59        0.011   0.091   0.000   0.102
   60        0.011   0.091   0.000   0.102
   61        0.000  -0.047  -0.000  -0.047
   62        0.000  -0.047  -0.000  -0.047
--------------------------------------------------
tot           0.31    1.62    7.49    9.42
 

 total amount of memory used by VASP MPI-rank0   100640. kBytes
=======================================================================

   base      :      30000. kBytes
   nonlr-proj:      24677. kBytes
   fftplans  :       6149. kBytes
   grid      :      35266. kBytes
   one-center:        964. kBytes
   wavefun   :       3584. kBytes
 
  
  
 General timing and accounting informations for this job:
 ========================================================
  
                  Total CPU time used (sec):      253.639
                            User time (sec):      250.554
                          System time (sec):        3.086
                         Elapsed time (sec):      259.497
  
                   Maximum memory used (kb):      144752.
                   Average memory used (kb):           0.
  
                          Minor page faults:        36491
                          Major page faults:           40
                 Voluntary context switches:         1259
