 vasp.5.4.4.18Apr17-6-g9f103f2a35 (build May 12 2020 05:39:39) gamma-only       
  
 MD_VERSION_INFO: Compiled 2020-05-12T12:39:39-UTC in devlin.sd.materialsdesign.
 com:/home/medea2/data/build/wwolf/vasp-gpu5.4.4/13047/x86_64/src/src/build/gam 
 from svn 13047
 
 This VASP executable licensed from Materials Design, Inc.
 
 executed on                        Lin64 date 2023.03.07  00:56:39
 running on   16 total cores
 distrk:  each k-point on   16 cores,    1 groups
 distr:  one band on NCORES_PER_BAND=   1 cores,   16 groups


--------------------------------------------------------------------------------------------------------


 INCAR:
 POTCAR:    PAW_PBE Li_sv 10Sep2004               
 POTCAR:    PAW_PBE Ni 02Aug2007                  
 POTCAR:    PAW_PBE O 08Apr2002                   

 ----------------------------------------------------------------------------- 
|                                                                             |
|           W    W    AA    RRRRR   N    N  II  N    N   GGGG   !!!           |
|           W    W   A  A   R    R  NN   N  II  NN   N  G    G  !!!           |
|           W    W  A    A  R    R  N N  N  II  N N  N  G       !!!           |
|           W WW W  AAAAAA  RRRRR   N  N N  II  N  N N  G  GGG   !            |
|           WW  WW  A    A  R   R   N   NN  II  N   NN  G    G                |
|           W    W  A    A  R    R  N    N  II  N    N   GGGG   !!!           |
|                                                                             |
|      For optimal performance we recommend to set                            |
|        NCORE= 4 - approx SQRT( number of cores)                             |
|      NCORE specifies how many cores store one orbital (NPAR=cpu/NCORE).     |
|      This setting can  greatly improve the performance of VASP for DFT.     |
|      The default,   NCORE=1            might be grossly inefficient         |
|      on modern multi-core architectures or massively parallel machines.     |
|      Do your own testing !!!!                                               |
|      Unfortunately you need to use the default for GW and RPA calculations. |
|      (for HF NCORE is supported but not extensively tested yet)             |
|                                                                             |
 ----------------------------------------------------------------------------- 

 POTCAR:    PAW_PBE Li_sv 10Sep2004               
  local pseudopotential read in
  atomic valenz-charges read in
  non local Contribution for L=           0  read in
    real space projection operators read in
  non local Contribution for L=           0  read in
    real space projection operators read in
  non local Contribution for L=           1  read in
    real space projection operators read in
    PAW grid and wavefunctions read in
 
   number of l-projection  operators is LMAX  =           3
   number of lm-projection operators is LMMAX =           5
 
 POTCAR:    PAW_PBE Ni 02Aug2007                  
  local pseudopotential read in
  partial core-charges read in
  partial kinetic energy density read in
  atomic valenz-charges read in
  non local Contribution for L=           2  read in
    real space projection operators read in
  non local Contribution for L=           2  read in
    real space projection operators read in
  non local Contribution for L=           0  read in
    real space projection operators read in
  non local Contribution for L=           0  read in
    real space projection operators read in
  non local Contribution for L=           1  read in
    real space projection operators read in
  non local Contribution for L=           1  read in
    real space projection operators read in
    PAW grid and wavefunctions read in
 
   number of l-projection  operators is LMAX  =           6
   number of lm-projection operators is LMMAX =          18
 
 POTCAR:    PAW_PBE O 08Apr2002                   
  local pseudopotential read in
  partial core-charges read in
  partial kinetic energy density read in
  kinetic energy density of atom read in
  atomic valenz-charges read in
  non local Contribution for L=           0  read in
    real space projection operators read in
  non local Contribution for L=           0  read in
    real space projection operators read in
  non local Contribution for L=           1  read in
    real space projection operators read in
  non local Contribution for L=           1  read in
    real space projection operators read in
    PAW grid and wavefunctions read in
 
   number of l-projection  operators is LMAX  =           4
   number of lm-projection operators is LMMAX =           8
 
 Optimization of the real space projectors (new method)

 maximal supplied QI-value         = 22.11
 optimisation between [QCUT,QGAM] = [ 11.28, 22.77] = [ 35.61,145.23] Ry 
 Optimized for a Real-space Cutoff    1.10 Angstroem

   l    n(q)    QCUT    max X(q) W(low)/X(q) W(high)/X(q)  e(spline) 
   0      7    11.276    10.506    0.54E-04    0.58E-04    0.16E-07
   0      7    11.276     8.367    0.11E-03    0.14E-03    0.35E-07
   1      7    11.276     8.983    0.23E-03    0.43E-03    0.86E-07
 Optimization of the real space projectors (new method)

 maximal supplied QI-value         = 16.25
 optimisation between [QCUT,QGAM] = [ 11.38, 22.75] = [ 36.24,144.96] Ry 
 Optimized for a Real-space Cutoff    1.47 Angstroem

   l    n(q)    QCUT    max X(q) W(low)/X(q) W(high)/X(q)  e(spline) 
   2      9    11.376    60.317    0.17E-03    0.16E-04    0.16E-06
   2      9    11.376    55.921    0.17E-03    0.16E-04    0.17E-06
   0     10    11.376    51.690    0.45E-04    0.60E-04    0.21E-06
   0     10    11.376    30.015    0.37E-04    0.55E-04    0.19E-06
   1     10    11.376    18.849    0.83E-04    0.11E-03    0.92E-07
   1     10    11.376    14.624    0.69E-04    0.92E-04    0.82E-07
 Optimization of the real space projectors (new method)

 maximal supplied QI-value         = 24.76
 optimisation between [QCUT,QGAM] = [ 11.39, 22.77] = [ 36.31,145.25] Ry 
 Optimized for a Real-space Cutoff    1.10 Angstroem

   l    n(q)    QCUT    max X(q) W(low)/X(q) W(high)/X(q)  e(spline) 
   0      7    11.387    20.381    0.22E-03    0.48E-03    0.18E-06
   0      7    11.387    15.268    0.22E-03    0.52E-03    0.19E-06
   1      7    11.387     5.964    0.22E-03    0.73E-03    0.24E-06
   1      7    11.387     5.382    0.19E-03    0.60E-03    0.21E-06

 ----------------------------------------------------------------------------- 
|                                                                             |
|  ADVICE TO THIS USER RUNNING 'VASP/VAMP'   (HEAR YOUR MASTER'S VOICE ...):  |
|                                                                             |
|      You enforced a specific xc-type in the INCAR file,                     |
|      a different type was found on the POTCAR file                          |
|          I HOPE YOU KNOW, WHAT YOU ARE  DOING                               |
|                                                                             |
 ----------------------------------------------------------------------------- 

  PAW_PBE Li_sv 10Sep2004               :
 energy of atom  1       EATOM= -202.7858
 kinetic energy error for atom=    0.0143 (will be added to EATOM!!)
  PAW_PBE Ni 02Aug2007                  :
 energy of atom  2       EATOM=-1077.6739
 kinetic energy error for atom=    0.0030 (will be added to EATOM!!)
  PAW_PBE O 08Apr2002                   :
 energy of atom  3       EATOM= -432.3788
 kinetic energy error for atom=    0.0224 (will be added to EATOM!!)
 
 
 POSCAR: ce8_1                                   
  positions in direct lattice
  No initial velocities read in
 exchange correlation table for  LEXCH =       14
   RHO(1)=    0.500       N(1)  =     2000
   RHO(2)=  100.500       N(2)  =     4000
 


--------------------------------------------------------------------------------------------------------


 ion  position               nearest neighbor table
   1  0.997  0.251  0.242-  47 2.03  42 2.08  39 2.09  54 2.13  51 2.17  33 2.18  15 2.79  26 2.84

   2  0.997  0.749  0.758-  48 2.03  41 2.08  40 2.09  53 2.13  52 2.17  34 2.18  15 2.79  27 2.84

   3  0.250  0.251  0.500-  31 2.10  43 2.10  33 2.11  45 2.11  51 2.13  55 2.14  24 2.79  16 2.80

   4  0.250  0.749  0.500-  32 2.10  44 2.10  34 2.11  46 2.11  52 2.13  56 2.14  25 2.79  17 2.80

   5  0.750  0.749  0.499-  32 2.08  44 2.08  46 2.09  34 2.09  57 2.18  53 2.20  26 2.83  18 2.84

   6  0.750  0.251  0.501-  31 2.08  43 2.08  45 2.09  33 2.09  58 2.18  54 2.20  27 2.83  19 2.84

   7  0.504  0.251  0.242-  59 2.03  42 2.08  39 2.09  54 2.13  51 2.17  45 2.18  20 2.80  26 2.84

   8  0.504  0.749  0.758-  60 2.03  41 2.08  40 2.09  53 2.13  52 2.17  46 2.18  20 2.80  27 2.84

   9  0.997  0.249  0.759-  49 2.05  38 2.09  35 2.10  58 2.13  31 2.15  55 2.16  29 2.80  18 2.83

  10  0.997  0.751  0.241-  50 2.05  37 2.09  36 2.10  57 2.13  32 2.15  56 2.16  29 2.80  19 2.83

  11  0.252  0.250  0.001-  39 2.11  59 2.12  35 2.12  61 2.12  47 2.13  49 2.13
  12  0.252  0.750  0.999-  40 2.11  60 2.12  36 2.12  62 2.12  48 2.13  50 2.13
  13  0.504  0.249  0.759-  61 2.05  38 2.09  35 2.10  58 2.13  43 2.15  55 2.16  30 2.80  18 2.84

  14  0.504  0.751  0.241-  62 2.05  37 2.09  36 2.10  57 2.13  44 2.15  56 2.16  30 2.80  19 2.84

  15  0.999  0.000  0.000-  41 1.86  42 1.86  39 1.88  40 1.88  49 2.10  50 2.10  20 2.76  20 2.79
                             2 2.79   1 2.79  19 2.90  18 2.90  17 2.91  16 2.91
  16  0.250  0.005  0.253-  50 1.84  62 1.84  33 1.87  45 1.87  39 2.09  56 2.10  19 2.78  19 2.78
                             3 2.80  22 2.90  21 2.90  15 2.91  20 2.91
  17  0.250  0.995  0.747-  49 1.84  61 1.84  34 1.87  46 1.87  40 2.09  55 2.10  18 2.78  18 2.78
                             4 2.80  22 2.90  21 2.90  15 2.91  20 2.91
  18  0.750  0.999  0.750-  61 1.87  49 1.87  34 1.87  46 1.87  41 1.97  58 2.03  17 2.78  17 2.78
                             9 2.83  13 2.84   5 2.84  20 2.90  21 2.90  15 2.90  22 2.90
  19  0.750  0.001  0.250-  62 1.87  50 1.87  33 1.87  45 1.87  42 1.97  57 2.03  16 2.78  16 2.78
                            10 2.83  14 2.84   6 2.84  20 2.90  21 2.90  15 2.90  22 2.90
  20  0.501  0.000  0.000-  41 1.86  42 1.86  39 1.88  40 1.88  61 2.10  62 2.10  15 2.76  15 2.79
                             7 2.80   8 2.80  19 2.90  18 2.90  17 2.91  16 2.91
  21  0.000  0.000  0.500-  55 1.86  56 1.86  57 1.87  58 1.87  33 2.11  34 2.11  22 2.77  22 2.78
                            16 2.90  17 2.90  18 2.90  19 2.90
  22  0.500  0.000  0.500-  55 1.86  56 1.86  57 1.87  58 1.87  45 2.11  46 2.11  21 2.77  21 2.78
                            17 2.90  16 2.90  19 2.90  18 2.90
  23  0.000  0.500  0.500-  51 1.86  52 1.86  53 1.87  54 1.87  31 2.15  32 2.15  28 2.78  28 2.78
                            24 2.90  25 2.90  26 2.91  27 2.91
  24  0.250  0.495  0.748-  48 1.84  60 1.84  43 1.86  31 1.86  35 2.10  52 2.10  27 2.78  27 2.78
                             3 2.79  28 2.90  23 2.90  29 2.91  30 2.91
  25  0.250  0.505  0.252-  47 1.84  59 1.84  44 1.86  32 1.86  36 2.10  51 2.10  26 2.78  26 2.78
                             4 2.79  28 2.90  23 2.90  29 2.91  30 2.91
  26  0.750  0.500  0.250-  47 1.86  59 1.86  32 1.87  44 1.87  37 1.97  54 2.03  25 2.78  25 2.78
                             5 2.83   7 2.84   1 2.84  30 2.90  29 2.90  23 2.91  28 2.91
  27  0.750  0.500  0.750-  48 1.86  60 1.86  31 1.87  43 1.87  38 1.97  53 2.03  24 2.78  24 2.78
                             6 2.83   8 2.84   2 2.84  30 2.90  29 2.90  23 2.91  28 2.91
  28  0.500  0.500  0.500-  51 1.86  52 1.86  53 1.87  54 1.87  43 2.15  44 2.15  23 2.78  23 2.78
                            24 2.90  25 2.90  26 2.91  27 2.91
  29  0.999  0.500  0.000-  37 1.86  38 1.86  35 1.87  36 1.87  47 2.12  48 2.12  30 2.76  30 2.79
                            10 2.80   9 2.80  27 2.90  26 2.90  25 2.91  24 2.91
  30  0.502  0.500  0.000-  37 1.86  38 1.86  35 1.87  36 1.87  59 2.12  60 2.12  29 2.76  29 2.79
                            13 2.80  14 2.80  26 2.90  27 2.90  24 2.91  25 2.91
  31  0.998  0.386  0.641-  24 1.86  27 1.87   6 2.08   3 2.10  23 2.15   9 2.15
  32  0.998  0.614  0.359-  25 1.86  26 1.87   5 2.08   4 2.10  23 2.15  10 2.15
  33  0.997  0.112  0.362-  16 1.87  19 1.87   6 2.09   3 2.11  21 2.11   1 2.18
  34  0.997  0.888  0.638-  17 1.87  18 1.87   5 2.09   4 2.11  21 2.11   2 2.18
  35  0.250  0.391  0.890-  30 1.87  29 1.87   9 2.10  24 2.10  13 2.10  11 2.12
  36  0.250  0.609  0.110-  30 1.87  29 1.87  10 2.10  25 2.10  14 2.10  12 2.12
  37  0.750  0.600  0.116-  30 1.86  29 1.86  26 1.97  10 2.09  14 2.09
  38  0.750  0.400  0.884-  30 1.86  29 1.86  27 1.97   9 2.09  13 2.09
  39  0.250  0.110  0.111-  15 1.88  20 1.88   1 2.09  16 2.09   7 2.09  11 2.11
  40  0.250  0.890  0.889-  15 1.88  20 1.88   2 2.09  17 2.09   8 2.09  12 2.11
  41  0.750  0.899  0.882-  20 1.86  15 1.86  18 1.97   2 2.08   8 2.08
  42  0.750  0.101  0.118-  20 1.86  15 1.86  19 1.97   1 2.08   7 2.08
  43  0.503  0.386  0.641-  24 1.86  27 1.87   6 2.08   3 2.10  28 2.15  13 2.15
  44  0.503  0.614  0.359-  25 1.86  26 1.87   5 2.08   4 2.10  28 2.15  14 2.15
  45  0.503  0.112  0.362-  16 1.87  19 1.87   6 2.09   3 2.11  22 2.11   7 2.18
  46  0.503  0.888  0.638-  17 1.87  18 1.87   5 2.09   4 2.11  22 2.11   8 2.18
  47  0.006  0.394  0.145-  25 1.84  26 1.86   1 2.03  29 2.12  11 2.13
  48  0.006  0.606  0.855-  24 1.84  27 1.86   2 2.03  29 2.12  12 2.13
  49  0.006  0.105  0.857-  17 1.84  18 1.87   9 2.05  15 2.10  11 2.13
  50  0.006  0.895  0.143-  16 1.84  19 1.87  10 2.05  15 2.10  12 2.13
  51  0.250  0.393  0.389-  28 1.86  23 1.86  25 2.10   3 2.13   1 2.17   7 2.17
  52  0.250  0.607  0.611-  28 1.86  23 1.86  24 2.10   4 2.13   2 2.17   8 2.17
  53  0.750  0.604  0.615-  28 1.87  23 1.87  27 2.03   8 2.13   2 2.13   5 2.20
  54  0.750  0.396  0.385-  28 1.87  23 1.87  26 2.03   7 2.13   1 2.13   6 2.20
  55  0.250  0.108  0.611-  21 1.86  22 1.86  17 2.10   3 2.14  13 2.16   9 2.16
  56  0.250  0.892  0.389-  21 1.86  22 1.86  16 2.10   4 2.14  14 2.16  10 2.16
  57  0.750  0.895  0.385-  21 1.87  22 1.87  19 2.03  14 2.13  10 2.13   5 2.18
  58  0.750  0.105  0.615-  21 1.87  22 1.87  18 2.03  13 2.13   9 2.13   6 2.18
  59  0.494  0.394  0.145-  25 1.84  26 1.86   7 2.03  11 2.12  30 2.12
  60  0.494  0.606  0.855-  24 1.84  27 1.86   8 2.03  12 2.12  30 2.12
  61  0.494  0.105  0.857-  17 1.84  18 1.87  13 2.05  20 2.10  11 2.12
  62  0.494  0.895  0.143-  16 1.84  19 1.87  14 2.05  20 2.10  12 2.12
 
  LATTYP: Found a simple monoclinic cell.
 ALAT       =    11.3561981661
 B/A-ratio  =     0.4890166043
 C/A-ratio  =     1.6656046645
 COS(beta)  =    -0.8957157767
  
  Lattice vectors:
  
 A1 = (  -6.4281996008,   0.0000000000,  -9.3617031934)
 A2 = (   0.0000000000,  -5.5533694650,   0.0000000000)
 A3 = (   2.6572606564,   0.0000000000,  18.7273541584)


Analysis of symmetry for initial positions (statically):
=====================================================================
 Subroutine PRICEL returns:
 Original cell was already a primitive cell.
 

 Routine SETGRP: Setting up the symmetry group for a 
 simple monoclinic supercell.


 Subroutine GETGRP returns: Found  2 space group operations
 (whereof  2 operations were pure point group operations)
 out of a pool of  4 trial point group operations.


The static configuration has the point symmetry C_2 .


Analysis of symmetry for dynamics (positions and initial velocities):
=====================================================================
 Subroutine PRICEL returns:
 Original cell was already a primitive cell.
 

 Routine SETGRP: Setting up the symmetry group for a 
 simple monoclinic supercell.


 Subroutine GETGRP returns: Found  2 space group operations
 (whereof  2 operations were pure point group operations)
 out of a pool of  4 trial point group operations.


The dynamic configuration has the point symmetry C_2 .


Analysis of structural, dynamic, and magnetic symmetry:
=====================================================================
 Subroutine PRICEL returns:
 Original cell was already a primitive cell.
 

 Routine SETGRP: Setting up the symmetry group for a 
 simple monoclinic supercell.


 Subroutine GETGRP returns: Found  2 space group operations
 (whereof  2 operations were pure point group operations)
 out of a pool of  4 trial point group operations.


The magnetic configuration has the point symmetry C_2 .


 Subroutine INISYM returns: Found  2 space group operations
 (whereof  2 operations are pure point group operations),
 and found     1 'primitive' translations

 
 
 KPOINTS: Automatic mesh                          

Automatic generation of k-mesh.
Space group operators:
 irot       det(A)        alpha          n_x          n_y          n_z        tau_x        tau_y        tau_z
    1     1.000000     0.000001     1.000000     0.000000     0.000000     0.000000     0.000000     0.000000
    2     1.000000   180.000000     0.000000     1.000000     0.000000     0.000000     0.000000     0.000000
 
 Subroutine IBZKPT returns following result:
 ===========================================
 
 Found      1 irreducible k-points:
 
 Following reciprocal coordinates:
            Coordinates               Weight
  0.000000  0.000000  0.000000      1.000000
 
 Following cartesian coordinates:
            Coordinates               Weight
  0.000000  0.000000  0.000000      1.000000
 


--------------------------------------------------------------------------------------------------------




 Dimension of arrays:
   k-points           NKPTS =      1   k-points in BZ     NKDIM =      1   number of bands    NBANDS=    256
   number of dos      NEDOS =    301   number of ions     NIONS =     62
   non local maximal  LDIM  =      6   non local SUM 2l+1 LMDIM =     18
   total plane-waves  NPLWV = 268800
   max r-space proj   IRMAX =   6854   max aug-charges    IRDMAX=  16626
   dimension x,y,z NGX =    42 NGY =   80 NGZ =   80
   dimension x,y,z NGXF=    84 NGYF=  160 NGZF=  160
   support grid    NGXF=    84 NGYF=  160 NGZF=  160
   ions per type =              14  16  32
   NGX,Y,Z   is equivalent  to a cutoff of  12.57, 13.17, 13.04 a.u.
   NGXF,Y,Z  is equivalent  to a cutoff of  25.15, 26.35, 26.08 a.u.

 SYSTEM =  unknown system                          
 POSCAR =  ce8_1                                   

 Startparameter for this run:
   NWRITE =      1    write-flag & timer
   PREC   = accura    normal or accurate (medium, high low for compatibility)
   ISTART =      0    job   : 0-new  1-cont  2-samecut
   ICHARG =      2    charge: 1-file 2-atom 10-const
   ISPIN  =      2    spin polarized calculation?
   LNONCOLLINEAR =      F non collinear calculations
   LSORBIT =      F    spin-orbit coupling
   INIWAV =      1    electr: 0-lowe 1-rand  2-diag
   LASPH  =      F    aspherical Exc in radial PAW
   METAGGA=      F    non-selfconsistent MetaGGA calc.

 Electronic Relaxation 1
   ENCUT  =  500.0 eV  36.75 Ry    6.06 a.u.  10.13 18.41 18.60*2*pi/ulx,y,z
   ENINI  =  500.0     initial cutoff
   ENAUG  =  628.9 eV  augmentation charge cutoff
   NELM   =     80;   NELMIN=  2; NELMDL= -5     # of ELM steps 
   EDIFF  = 0.1E-04   stopping-criterion for ELM
   LREAL  =      T    real-space projection
   NLSPLINE    = F    spline interpolate recip. space projectors
   LCOMPAT=      F    compatible to vasp.4.4
   GGA_COMPAT  = T    GGA compatible to vasp.4.4-vasp.4.6
   LMAXPAW     = -100 max onsite density
   LMAXMIX     =    2 max onsite mixed and CHGCAR
   VOSKOWN=      1    Vosko Wilk Nusair interpolation
   ROPT   =   -0.00025  -0.00025  -0.00025
 Ionic relaxation
   EDIFFG = -.2E-01   stopping-criterion for IOM
   NSW    =     20    number of steps for IOM
   NBLOCK =      1;   KBLOCK =     20    inner block; outer block 
   IBRION =      1    ionic relax: 0-MD 1-quasi-New 2-CG
   NFREE  =      0    steps in history (QN), initial steepest desc. (CG)
   ISIF   =      3    stress and relaxation
   IWAVPR =     11    prediction:  0-non 1-charg 2-wave 3-comb
   ISYM   =      2    0-nonsym 1-usesym 2-fastsym
   LCORR  =      T    Harris-Foulkes like correction to forces

   POTIM  = 0.5000    time-step for ionic-motion
   TEIN   =    0.0    initial temperature
   TEBEG  =    0.0;   TEEND  =   0.0 temperature during run
   SMASS  =  -3.00    Nose mass-parameter (am)
   estimated Nose-frequenzy (Omega)   =  0.10E-29 period in steps =****** mass=  -0.705E-27a.u.
   SCALEE = 1.0000    scale energy and forces
   NPACO  =    256;   APACO  = 16.0  distance and # of slots for P.C.
   PSTRESS=    0.0 pullay stress

  Mass of Ions in am
   POMASS =   7.01 58.69 16.00
  Ionic Valenz
   ZVAL   =   3.00 10.00  6.00
  Atomic Wigner-Seitz radii
   RWIGS  =   1.23  1.15  0.73
  virtual crystal weights 
   VCA    =   1.00  1.00  1.00
   NELECT =     394.0000    total number of electrons
   NUPDOWN=      -1.0000    fix difference up-down

 DOS related values:
   EMIN   =  10.00;   EMAX   =-10.00  energy-range for DOS
   EFERMI =   0.00
   ISMEAR =     0;   SIGMA  =   0.05  broadening in eV -4-tet -1-fermi 0-gaus

 Electronic relaxation 2 (details)
   IALGO  =     38    algorithm
   LDIAG  =      T    sub-space diagonalisation (order eigenvalues)
   LSUBROT=      F    optimize rotation matrix (better conditioning)
   TURBO    =      0    0=normal 1=particle mesh
   IRESTART =      0    0=no restart 2=restart with 2 vectors
   NREBOOT  =      0    no. of reboots
   NMIN     =      0    reboot dimension
   EREF     =   0.00    reference energy to select bands
   IMIX   =      4    mixing-type and parameters
     AMIX     =   0.40;   BMIX     =  1.00
     AMIX_MAG =   1.60;   BMIX_MAG =  1.00
     AMIN     =   0.10
     WC   =   100.;   INIMIX=   1;  MIXPRE=   1;  MAXMIX= -45

 Intra band minimization:
   WEIMIN = 0.0010     energy-eigenvalue tresh-hold
   EBREAK =  0.98E-08  absolut break condition
   DEPER  =   0.30     relativ break condition  

   TIME   =   0.40     timestep for ELM

  volume/ion in A,a.u.               =       8.55        57.73
  Fermi-wavevector in a.u.,A,eV,Ry     =   1.482666  2.801833 29.909684  2.198300
  Thomas-Fermi vector in A             =   2.596424
 
 Write flags
   LWAVE        =      F    write WAVECAR
   LDOWNSAMPLE  =      F    k-point downsampling of WAVECAR
   LCHARG       =      T    write CHGCAR
   LVTOT        =      F    write LOCPOT, total local potential
   LVHAR        =      F    write LOCPOT, Hartree potential only
   LELF         =      F    write electronic localiz. function (ELF)
   LORBIT       =      0    0 simple, 1 ext, 2 COOP (PROOUT), +10 PAW based schemes


 Dipole corrections
   LMONO  =      F    monopole corrections only (constant potential shift)
   LDIPOL =      F    correct potential (dipole corrections)
   IDIPOL =      0    1-x, 2-y, 3-z, 4-all directions 
   EPSILON=  1.0000000 bulk dielectric constant

 Exchange correlation treatment:
   GGA     =    PS    GGA type
   LEXCH   =    14    internal setting for exchange type
   VOSKOWN=      1    Vosko Wilk Nusair interpolation
   LHFCALC =     F    Hartree Fock is set to
   LHFONE  =     F    Hartree Fock one center treatment
   AEXX    =    0.0000 exact exchange contribution

 Linear response parameters
   LEPSILON=     F    determine dielectric tensor
   LRPA    =     F    only Hartree local field effects (RPA)
   LNABLA  =     F    use nabla operator in PAW spheres
   LVEL    =     F    velocity operator in full k-point grid
   LINTERFAST=   F  fast interpolation
   KINTER  =     0    interpolate to denser k-point grid
   CSHIFT  =0.1000    complex shift for real part using Kramers Kronig
   OMEGAMAX=  -1.0    maximum frequency
   DEG_THRESHOLD= 0.2000000E-02 threshold for treating states as degnerate
   RTIME   =   -0.100 relaxation time in fs
  (WPLASMAI=    0.000 imaginary part of plasma frequency in eV, 0.658/RTIME)
   DFIELD  = 0.0000000 0.0000000 0.0000000 field for delta impulse in time
 
 Orbital magnetization related:
   ORBITALMAG=     F  switch on orbital magnetization
   LCHIMAG   =     F  perturbation theory with respect to B field
   DQ        =  0.001000  dq finite difference perturbation B field
   LLRAUG    =     F  two centre corrections for induced B field



--------------------------------------------------------------------------------------------------------


 quasi-Newton-method for relaxation of ions
 charge density and potential will be updated during run
 spin polarized calculation
 Variant of blocked Davidson
 Davidson routine will perform the subspace rotation
 perform sub-space diagonalisation
    after iterative eigenvector-optimisation
 modified Broyden-mixing scheme, WC =      100.0
 initial mixing is a Kerker type mixing with AMIX =  0.4000 and BMIX =      1.0000
 Hartree-type preconditioning will be used
 using additional bands           59
 real space projection scheme for non local part
 use partial core corrections
 calculate Harris-corrections to forces 
   (improved forces if not selfconsistent)
 use gradient corrections 
 use of overlap-Matrix (Vanderbilt PP)
 Gauss-broadening in eV      SIGMA  =   0.05


--------------------------------------------------------------------------------------------------------


  energy-cutoff  :      500.00
  volume of cell :      530.38
      direct lattice vectors                 reciprocal lattice vectors
     0.000000000  5.553369465  0.000000000     0.000000000  0.180070857  0.000000000
    -3.770938944  0.000000000  9.365650965     0.000041335  0.000000000  0.106789787
    10.199138545  0.000000000 -0.003947772     0.098062779  0.000000000  0.039483508

  length of vectors
     5.553369465 10.096306182 10.199139309     0.180070857  0.106789795  0.105713084


 
 k-points in units of 2pi/SCALE and weight: Automatic mesh                          
   0.00000000  0.00000000  0.00000000       1.000
 
 k-points in reciprocal lattice and weights: Automatic mesh                          
   0.00000000  0.00000000  0.00000000       1.000
 
 position of ions in fractional coordinates (direct lattice) 
   0.99653321  0.25053647  0.24151207
   0.99653321  0.74946353  0.75848793
   0.25004295  0.25102185  0.50009903
   0.25004295  0.74897815  0.49990097
   0.75008168  0.74942208  0.49874006
   0.75008168  0.25057792  0.50125994
   0.50418623  0.25064379  0.24172065
   0.50418623  0.74935621  0.75827935
   0.99679221  0.24855198  0.75908001
   0.99679221  0.75144802  0.24091999
   0.25194193  0.25005930  0.00083409
   0.25194193  0.74994070  0.99916591
   0.50357799  0.24855518  0.75869155
   0.50357799  0.75144482  0.24130845
   0.99914194  0.00000000  0.00000000
   0.25017228  0.00485101  0.25264742
   0.25017228  0.99514899  0.74735258
   0.75022717  0.99941646  0.74959315
   0.75022717  0.00058354  0.25040685
   0.50149451  0.00000000  0.00000000
   0.00037078  0.00000000  0.50000000
   0.49983913  0.00000000  0.50000000
   0.00016652  0.50000000  0.50000000
   0.25014766  0.49539528  0.74751688
   0.25014766  0.50460472  0.25248312
   0.75018082  0.50033236  0.24980793
   0.75018082  0.49966764  0.75019207
   0.50002087  0.50000000  0.50000000
   0.99893582  0.50000000  0.00000000
   0.50160194  0.50000000  0.00000000
   0.99756692  0.38620990  0.64090453
   0.99756692  0.61379010  0.35909547
   0.99749136  0.11245546  0.36200196
   0.99749136  0.88754454  0.63799804
   0.25027581  0.39056870  0.89032973
   0.25027581  0.60943130  0.10967027
   0.75025060  0.60045421  0.11646923
   0.75025060  0.39954579  0.88353077
   0.25028755  0.11005648  0.11114301
   0.25028755  0.88994352  0.88885699
   0.75028737  0.89927503  0.88228941
   0.75028737  0.10072497  0.11771059
   0.50268989  0.38624873  0.64094697
   0.50268989  0.61375127  0.35905303
   0.50280906  0.11246251  0.36207035
   0.50280906  0.88753749  0.63792965
   0.00601823  0.39374980  0.14465949
   0.00601823  0.60625020  0.85534051
   0.00605962  0.10504431  0.85722283
   0.00605962  0.89495569  0.14277717
   0.25009543  0.39258556  0.38922099
   0.25009543  0.60741444  0.61077901
   0.75008435  0.60438979  0.61513057
   0.75008435  0.39561021  0.38486943
   0.25009141  0.10761844  0.61079175
   0.25009141  0.89238156  0.38920825
   0.75011045  0.89471743  0.38547215
   0.75011045  0.10528257  0.61452785
   0.49434415  0.39369775  0.14466403
   0.49434415  0.60630225  0.85533597
   0.49447124  0.10512861  0.85713364
   0.49447124  0.89487139  0.14286636
 
 position of ions in cartesian coordinates  (Angst):
   1.51845733  5.53411710  2.34548370
   4.90974227  5.53411710  7.01621950
   4.15399122  1.38858088  2.34900875
   2.27420838  1.38858088  7.01269444
   2.26069406  4.16548070  7.01685671
   4.16750554  4.16548070  2.34484648
   1.52017997  2.79993241  2.34648800
   4.90801963  2.79993241  7.01521520
   6.80468785  5.53555542  2.32485442
  -0.37648825  5.53555542  7.03684878
  -0.93445135  1.39912662  2.34196483
   7.36265095  1.39912662  7.01973836
   6.80071382  2.79655463  2.32488592
  -0.37251422  2.79655463  7.03681727
   0.00000000  5.54860434  0.00000000
   2.55849318  1.38929910  0.04443547
   3.86970642  1.38929910  9.31726772
   3.87646594  4.16628866  9.35722651
   2.55173366  4.16628866  0.00447668
   0.00000000  2.78498430  0.00000000
   5.09956927  0.00205908 -0.00197389
   5.09956927  2.77579136 -0.00197389
   3.21409980  0.00092475  4.68085160
   5.75592287  1.38916238  4.63674826
   0.67227673  1.38916238  4.72495494
   0.66110291  4.16603126  4.68495207
   5.76709669  4.16603126  4.67675113
   3.21409980  2.77680063  4.68085160
  -1.88546947  5.54745968  4.68282548
  -1.88546947  2.78558090  4.68282548
   5.08030014  5.53985767  3.61457698
   1.34789946  5.53985767  5.74712622
   3.26804547  5.53943806  1.05178949
   3.16015413  5.53943806  8.30991371
   7.60778555  1.38987404  3.65441530
  -1.17958595  1.38987404  5.70728789
  -1.07639035  4.16641877  5.62318476
   7.50458995  4.16641877  3.73851844
   0.71854669  1.38993924  1.03031181
   5.70965291  1.38993924  8.33139138
   5.60748070  4.16662297  8.41881298
   0.82071890  4.16662297  0.94289022
   5.08058657  2.79162269  3.61494048
   1.34761303  2.79162269  5.74676271
   3.26871640  2.79228448  1.05185524
   3.15948320  2.79228448  8.30984795
  -0.00940427  0.03342145  3.68715211
   6.43760388  0.03342145  5.67455108
   8.34681873  0.03365131  0.98042422
  -1.91861913  0.03365131  8.38127897
   2.48930262  1.38887232  3.67528277
   3.93889698  1.38887232  5.68642042
   3.99468491  4.16549553  5.65807542
   2.43351469  4.16549553  3.70362777
   5.82372711  1.38885000  1.00550548
   0.60447249  1.38885000  8.35619771
   0.55755906  4.16564047  8.37808941
   5.87064054  4.16564047  0.98361379
  -0.00916169  2.74527571  3.68666461
   6.43736129  2.74527571  5.67503858
   8.34559118  2.74598149  0.98121410
  -1.91739158  2.74598149  8.38048909
 


--------------------------------------------------------------------------------------------------------


 use serial FFT for orbitals x direction half grid
 k-point  1 :   0.0000 0.0000 0.0000  plane waves:    6718

 maximum and minimum number of plane-waves per node :      6718     6718

 maximum number of plane-waves:      6718
 maximum index in each direction: 
   IXMAX=   10   IYMAX=   18   IZMAX=   18
   IXMIN=    0   IYMIN=  -18   IZMIN=  -18

 The following grids will avoid any aliasing or wrap around errors in the Hartre
 e energy
  - symmetry arguments have not been applied
  - exchange correlation energies might require even more grid points
  - we recommend to set PREC=Normal or Accurate and rely on VASP defaults
 NGX is ok and might be reduce to    42
 NGY is ok and might be reduce to    80
 NGZ is ok and might be reduce to    80

 serial   3D FFT for wavefunctions
 parallel 3D FFT for charge:
    minimum data exchange during FFTs selected (reduces bandwidth)


 total amount of memory used by VASP MPI-rank0   100528. kBytes
=======================================================================

   base      :      30000. kBytes
   nonlr-proj:      24549. kBytes
   fftplans  :       6149. kBytes
   grid      :      35266. kBytes
   one-center:        964. kBytes
   wavefun   :       3600. kBytes
 
     INWAV:  cpu time    0.0000: real time    0.0000
 Broyden mixing: mesh for mixing (old mesh)
   NGX = 21   NGY = 37   NGZ = 37
  (NGX  = 84   NGY  =160   NGZ  =160)
  gives a total of  28749 points

 initial charge density was supplied:
 charge density of overlapping atoms calculated
 number of electron     394.0000000 magnetization      40.0000000
 keeping initial charge density in first step


--------------------------------------------------------------------------------------------------------


 Maximum index for non-local projection operator         6621
 Maximum index for augmentation-charges         1548 (set IRDMAX)


--------------------------------------------------------------------------------------------------------


 First call to EWALD:  gamma=   0.219
 Maximum number of real-space cells 4x 2x 2
 Maximum number of reciprocal cells 2x 3x 3

    FEWALD:  cpu time    0.0034: real time    0.0034


--------------------------------------- Iteration      1(   1)  ---------------------------------------


    POTLOK:  cpu time    0.1743: real time    0.1805
    SETDIJ:  cpu time    0.0217: real time    0.0218
     EDDAV:  cpu time    1.9333: real time    1.9549
    --------------------------------------------
      LOOP:  cpu time    2.1299: real time    2.1577

 eigenvalue-minimisations  :  1056
 total energy-change (2. order) : 0.6950747E+04  (-0.1763448E+05)
 number of electron     394.0000000 magnetization      40.0000000
 augmentation part      394.0000000 magnetization      40.0000000

 Free energy of the ion-electron system (eV)
  ---------------------------------------------------
  alpha Z        PSCENC =      1236.49250774
  Ewald energy   TEWEN  =    -24444.98807031
  -Hartree energ DENC   =    -10112.05064160
  -exchange      EXHF   =         0.00000000
  -V(xc)+E(xc)   XCENC  =      1609.84296212
  PAW double counting   =     27580.31459258   -28909.17264459
  entropy T*S    EENTRO =        -0.02667077
  eigenvalues    EBANDS =      6162.41970100
  atomic energy  EATOM  =     33827.91512128
  Solvation  Ediel_sol  =         0.00000000
  ---------------------------------------------------
  free energy    TOTEN  =      6950.74685746 eV

  energy without entropy =     6950.77352823  energy(sigma->0) =     6950.76019284


--------------------------------------------------------------------------------------------------------




--------------------------------------- Iteration      1(   2)  ---------------------------------------


     EDDAV:  cpu time    1.9399: real time    1.9446
    --------------------------------------------
      LOOP:  cpu time    1.9397: real time    1.9443

 eigenvalue-minimisations  :  1056
 total energy-change (2. order) :-0.5625009E+04  (-0.5108413E+04)
 number of electron     394.0000000 magnetization      40.0000000
 augmentation part      394.0000000 magnetization      40.0000000

 Free energy of the ion-electron system (eV)
  ---------------------------------------------------
  alpha Z        PSCENC =      1236.49250774
  Ewald energy   TEWEN  =    -24444.98807031
  -Hartree energ DENC   =    -10112.05064160
  -exchange      EXHF   =         0.00000000
  -V(xc)+E(xc)   XCENC  =      1609.84296212
  PAW double counting   =     27580.31459258   -28909.17264459
  entropy T*S    EENTRO =        -0.01415526
  eigenvalues    EBANDS =       537.39775476
  atomic energy  EATOM  =     33827.91512128
  Solvation  Ediel_sol  =         0.00000000
  ---------------------------------------------------
  free energy    TOTEN  =      1325.73742673 eV

  energy without entropy =     1325.75158199  energy(sigma->0) =     1325.74450436


--------------------------------------------------------------------------------------------------------




--------------------------------------- Iteration      1(   3)  ---------------------------------------


     EDDAV:  cpu time    2.0426: real time    2.0475
    --------------------------------------------
      LOOP:  cpu time    2.0426: real time    2.0475

 eigenvalue-minimisations  :  1136
 total energy-change (2. order) :-0.1532557E+04  (-0.1278469E+04)
 number of electron     394.0000000 magnetization      40.0000000
 augmentation part      394.0000000 magnetization      40.0000000

 Free energy of the ion-electron system (eV)
  ---------------------------------------------------
  alpha Z        PSCENC =      1236.49250774
  Ewald energy   TEWEN  =    -24444.98807031
  -Hartree energ DENC   =    -10112.05064160
  -exchange      EXHF   =         0.00000000
  -V(xc)+E(xc)   XCENC  =      1609.84296212
  PAW double counting   =     27580.31459258   -28909.17264459
  entropy T*S    EENTRO =        -0.08855025
  eigenvalues    EBANDS =      -995.08439652
  atomic energy  EATOM  =     33827.91512128
  Solvation  Ediel_sol  =         0.00000000
  ---------------------------------------------------
  free energy    TOTEN  =      -206.81911954 eV

  energy without entropy =     -206.73056929  energy(sigma->0) =     -206.77484441


--------------------------------------------------------------------------------------------------------




--------------------------------------- Iteration      1(   4)  ---------------------------------------


     EDDAV:  cpu time    2.2167: real time    2.2220
    --------------------------------------------
      LOOP:  cpu time    2.2167: real time    2.2219

 eigenvalue-minimisations  :  1264
 total energy-change (2. order) :-0.2588765E+03  (-0.2517535E+03)
 number of electron     394.0000000 magnetization      40.0000000
 augmentation part      394.0000000 magnetization      40.0000000

 Free energy of the ion-electron system (eV)
  ---------------------------------------------------
  alpha Z        PSCENC =      1236.49250774
  Ewald energy   TEWEN  =    -24444.98807031
  -Hartree energ DENC   =    -10112.05064160
  -exchange      EXHF   =         0.00000000
  -V(xc)+E(xc)   XCENC  =      1609.84296212
  PAW double counting   =     27580.31459258   -28909.17264459
  entropy T*S    EENTRO =        -0.15517279
  eigenvalues    EBANDS =     -1253.89424790
  atomic energy  EATOM  =     33827.91512128
  Solvation  Ediel_sol  =         0.00000000
  ---------------------------------------------------
  free energy    TOTEN  =      -465.69559346 eV

  energy without entropy =     -465.54042067  energy(sigma->0) =     -465.61800707


--------------------------------------------------------------------------------------------------------




--------------------------------------- Iteration      1(   5)  ---------------------------------------


     EDDAV:  cpu time    2.9522: real time    2.9592
    CHARGE:  cpu time    0.1547: real time    0.1550
    MIXING:  cpu time    0.0032: real time    0.0032
    --------------------------------------------
      LOOP:  cpu time    3.1097: real time    3.1172

 eigenvalue-minimisations  :  1776
 total energy-change (2. order) :-0.1541782E+02  (-0.1527566E+02)
 number of electron     393.9999894 magnetization      41.4974336
 augmentation part      120.0172281 magnetization      31.0964228

 Broyden mixing:
  rms(total) = 0.10770E+02    rms(broyden)= 0.10769E+02
  rms(prec ) = 0.13297E+02
  weight for this iteration     100.00

 Free energy of the ion-electron system (eV)
  ---------------------------------------------------
  alpha Z        PSCENC =      1236.49250774
  Ewald energy   TEWEN  =    -24444.98807031
  -Hartree energ DENC   =    -10112.05064160
  -exchange      EXHF   =         0.00000000
  -V(xc)+E(xc)   XCENC  =      1609.84296212
  PAW double counting   =     27580.31459258   -28909.17264459
  entropy T*S    EENTRO =        -0.15066775
  eigenvalues    EBANDS =     -1269.31657256
  atomic energy  EATOM  =     33827.91512128
  Solvation  Ediel_sol  =         0.00000000
  ---------------------------------------------------
  free energy    TOTEN  =      -481.11341308 eV

  energy without entropy =     -480.96274534  energy(sigma->0) =     -481.03807921


--------------------------------------------------------------------------------------------------------




--------------------------------------- Iteration      1(   6)  ---------------------------------------


    POTLOK:  cpu time    0.1580: real time    0.1584
    SETDIJ:  cpu time    0.0231: real time    0.0232
     EDDAV:  cpu time    2.4955: real time    2.5014
    CHARGE:  cpu time    0.1629: real time    0.1633
    MIXING:  cpu time    0.0033: real time    0.0034
    --------------------------------------------
      LOOP:  cpu time    2.8428: real time    2.8496

 eigenvalue-minimisations  :  1456
 total energy-change (2. order) :-0.1115625E+02  (-0.1133578E+03)
 number of electron     393.9999832 magnetization      36.0591484
 augmentation part      148.1418142 magnetization      33.3796697

 Broyden mixing:
  rms(total) = 0.18539E+02    rms(broyden)= 0.18539E+02
  rms(prec ) = 0.20362E+02
  weight for this iteration     100.00

 eigenvalues of (default mixing * dielectric matrix)
  average eigenvalue GAMMA=   0.2321
  0.2321

 Free energy of the ion-electron system (eV)
  ---------------------------------------------------
  alpha Z        PSCENC =      1236.49250774
  Ewald energy   TEWEN  =    -24444.98807031
  -Hartree energ DENC   =     -9657.17914754
  -exchange      EXHF   =         0.00000000
  -V(xc)+E(xc)   XCENC  =      1621.36679135
  PAW double counting   =     30268.25173534   -31435.70561132
  entropy T*S    EENTRO =        -0.08146009
  eigenvalues    EBANDS =     -1908.34152712
  atomic energy  EATOM  =     33827.91512128
  Solvation  Ediel_sol  =         0.00000000
  ---------------------------------------------------
  free energy    TOTEN  =      -492.26966067 eV

  energy without entropy =     -492.18820058  energy(sigma->0) =     -492.22893062


--------------------------------------------------------------------------------------------------------




--------------------------------------- Iteration      1(   7)  ---------------------------------------


    POTLOK:  cpu time    0.1545: real time    0.1549
    SETDIJ:  cpu time    0.0228: real time    0.0228
     EDDAV:  cpu time    2.3866: real time    2.3923
    CHARGE:  cpu time    0.1519: real time    0.1522
    MIXING:  cpu time    0.0036: real time    0.0036
    --------------------------------------------
      LOOP:  cpu time    2.7193: real time    2.7258

 eigenvalue-minimisations  :  1376
 total energy-change (2. order) : 0.1057958E+03  (-0.2668726E+02)
 number of electron     393.9999846 magnetization      27.4680493
 augmentation part      136.5290251 magnetization      25.0835545

 Broyden mixing:
  rms(total) = 0.64161E+01    rms(broyden)= 0.64157E+01
  rms(prec ) = 0.73376E+01
  weight for this iteration     100.00

 eigenvalues of (default mixing * dielectric matrix)
  average eigenvalue GAMMA=   0.5493
  0.5493  0.5493

 Free energy of the ion-electron system (eV)
  ---------------------------------------------------
  alpha Z        PSCENC =      1236.49250774
  Ewald energy   TEWEN  =    -24444.98807031
  -Hartree energ DENC   =     -9835.63540746
  -exchange      EXHF   =         0.00000000
  -V(xc)+E(xc)   XCENC  =      1610.67101519
  PAW double counting   =     31479.08182179   -32761.12126025
  entropy T*S    EENTRO =        -0.04372692
  eigenvalues    EBANDS =     -1498.84581409
  atomic energy  EATOM  =     33827.91512128
  Solvation  Ediel_sol  =         0.00000000
  ---------------------------------------------------
  free energy    TOTEN  =      -386.47381302 eV

  energy without entropy =     -386.43008610  energy(sigma->0) =     -386.45194956


--------------------------------------------------------------------------------------------------------




--------------------------------------- Iteration      1(   8)  ---------------------------------------


    POTLOK:  cpu time    0.1593: real time    0.1597
    SETDIJ:  cpu time    0.0234: real time    0.0234
     EDDAV:  cpu time    2.5529: real time    2.5590
    CHARGE:  cpu time    0.1601: real time    0.1605
    MIXING:  cpu time    0.0039: real time    0.0039
    --------------------------------------------
      LOOP:  cpu time    2.8996: real time    2.9065

 eigenvalue-minimisations  :  1504
 total energy-change (2. order) :-0.7602852E+00  (-0.1316512E+02)
 number of electron     393.9999858 magnetization      24.7068693
 augmentation part      129.7935077 magnetization      21.5040945

 Broyden mixing:
  rms(total) = 0.79019E+01    rms(broyden)= 0.79013E+01
  rms(prec ) = 0.10126E+02
  weight for this iteration     100.00

 eigenvalues of (default mixing * dielectric matrix)
  average eigenvalue GAMMA=   0.4632
  0.5970  0.5970  0.1956

 Free energy of the ion-electron system (eV)
  ---------------------------------------------------
  alpha Z        PSCENC =      1236.49250774
  Ewald energy   TEWEN  =    -24444.98807031
  -Hartree energ DENC   =     -9840.45743135
  -exchange      EXHF   =         0.00000000
  -V(xc)+E(xc)   XCENC  =      1601.57979577
  PAW double counting   =     32716.52223394   -34055.18340715
  entropy T*S    EENTRO =        -0.04573739
  eigenvalues    EBANDS =     -1429.06911077
  atomic energy  EATOM  =     33827.91512128
  Solvation  Ediel_sol  =         0.00000000
  ---------------------------------------------------
  free energy    TOTEN  =      -387.23409824 eV

  energy without entropy =     -387.18836084  energy(sigma->0) =     -387.21122954


--------------------------------------------------------------------------------------------------------




--------------------------------------- Iteration      1(   9)  ---------------------------------------


    POTLOK:  cpu time    0.1574: real time    0.1578
    SETDIJ:  cpu time    0.0232: real time    0.0232
     EDDAV:  cpu time    2.4736: real time    2.4795
    CHARGE:  cpu time    0.1628: real time    0.1632
    MIXING:  cpu time    0.0041: real time    0.0041
    --------------------------------------------
      LOOP:  cpu time    2.8211: real time    2.8278

 eigenvalue-minimisations  :  1440
 total energy-change (2. order) : 0.4785280E+01  (-0.1063354E+02)
 number of electron     393.9999847 magnetization      18.3624388
 augmentation part      130.7459023 magnetization      16.7953903

 Broyden mixing:
  rms(total) = 0.48923E+01    rms(broyden)= 0.48915E+01
  rms(prec ) = 0.66465E+01
  weight for this iteration     100.00

 eigenvalues of (default mixing * dielectric matrix)
  average eigenvalue GAMMA=   0.5153
  0.7704  0.7704  0.3649  0.1554

 Free energy of the ion-electron system (eV)
  ---------------------------------------------------
  alpha Z        PSCENC =      1236.49250774
  Ewald energy   TEWEN  =    -24444.98807031
  -Hartree energ DENC   =     -9833.09291535
  -exchange      EXHF   =         0.00000000
  -V(xc)+E(xc)   XCENC  =      1599.99145908
  PAW double counting   =     33196.41975315   -34546.94109663
  entropy T*S    EENTRO =        -0.02620273
  eigenvalues    EBANDS =     -1418.21937428
  atomic energy  EATOM  =     33827.91512128
  Solvation  Ediel_sol  =         0.00000000
  ---------------------------------------------------
  free energy    TOTEN  =      -382.44881805 eV

  energy without entropy =     -382.42261532  energy(sigma->0) =     -382.43571669


--------------------------------------------------------------------------------------------------------




--------------------------------------- Iteration      1(  10)  ---------------------------------------


    POTLOK:  cpu time    0.1579: real time    0.1582
    SETDIJ:  cpu time    0.0230: real time    0.0231
     EDDAV:  cpu time    2.3359: real time    2.3414
    CHARGE:  cpu time    0.1628: real time    0.1632
    MIXING:  cpu time    0.0041: real time    0.0041
    --------------------------------------------
      LOOP:  cpu time    2.6837: real time    2.6901

 eigenvalue-minimisations  :  1360
 total energy-change (2. order) : 0.4153864E+01  (-0.5309983E+01)
 number of electron     393.9999846 magnetization      14.8753837
 augmentation part      131.7132132 magnetization      12.1774072

 Broyden mixing:
  rms(total) = 0.44194E+01    rms(broyden)= 0.44187E+01
  rms(prec ) = 0.63250E+01
  weight for this iteration     100.00

 eigenvalues of (default mixing * dielectric matrix)
  average eigenvalue GAMMA=   0.5337
  1.2125  0.6441  0.3437  0.3437  0.1242

 Free energy of the ion-electron system (eV)
  ---------------------------------------------------
  alpha Z        PSCENC =      1236.49250774
  Ewald energy   TEWEN  =    -24444.98807031
  -Hartree energ DENC   =     -9803.45387673
  -exchange      EXHF   =         0.00000000
  -V(xc)+E(xc)   XCENC  =      1598.16922675
  PAW double counting   =     34082.73938919   -35442.41993721
  entropy T*S    EENTRO =        -0.04943436
  eigenvalues    EBANDS =     -1432.69988017
  atomic energy  EATOM  =     33827.91512128
  Solvation  Ediel_sol  =         0.00000000
  ---------------------------------------------------
  free energy    TOTEN  =      -378.29495382 eV

  energy without entropy =     -378.24551946  energy(sigma->0) =     -378.27023664


--------------------------------------------------------------------------------------------------------




--------------------------------------- Iteration      1(  11)  ---------------------------------------


    POTLOK:  cpu time    0.1599: real time    0.1603
    SETDIJ:  cpu time    0.0230: real time    0.0231
     EDDAV:  cpu time    2.3796: real time    2.3853
    CHARGE:  cpu time    0.1608: real time    0.1612
    MIXING:  cpu time    0.0044: real time    0.0044
    --------------------------------------------
      LOOP:  cpu time    2.7277: real time    2.7342

 eigenvalue-minimisations  :  1376
 total energy-change (2. order) : 0.7070640E+00  (-0.5278625E+01)
 number of electron     393.9999845 magnetization      10.3948306
 augmentation part      131.7187674 magnetization       8.4594949

 Broyden mixing:
  rms(total) = 0.33668E+01    rms(broyden)= 0.33657E+01
  rms(prec ) = 0.46839E+01
  weight for this iteration     100.00

 eigenvalues of (default mixing * dielectric matrix)
  average eigenvalue GAMMA=   0.5614
  1.6038  0.6256  0.4353  0.4353  0.1468  0.1214

 Free energy of the ion-electron system (eV)
  ---------------------------------------------------
  alpha Z        PSCENC =      1236.49250774
  Ewald energy   TEWEN  =    -24444.98807031
  -Hartree energ DENC   =     -9804.10716700
  -exchange      EXHF   =         0.00000000
  -V(xc)+E(xc)   XCENC  =      1598.01477825
  PAW double counting   =     34603.91473152   -35971.29901124
  entropy T*S    EENTRO =        -0.04245656
  eigenvalues    EBANDS =     -1423.48832349
  atomic energy  EATOM  =     33827.91512128
  Solvation  Ediel_sol  =         0.00000000
  ---------------------------------------------------
  free energy    TOTEN  =      -377.58788981 eV

  energy without entropy =     -377.54543325  energy(sigma->0) =     -377.56666153


--------------------------------------------------------------------------------------------------------




--------------------------------------- Iteration      1(  12)  ---------------------------------------


    POTLOK:  cpu time    0.1593: real time    0.1596
    SETDIJ:  cpu time    0.0232: real time    0.0233
     EDDAV:  cpu time    2.4525: real time    2.4583
    CHARGE:  cpu time    0.1568: real time    0.1572
    MIXING:  cpu time    0.0044: real time    0.0044
    --------------------------------------------
      LOOP:  cpu time    2.7962: real time    2.8028

 eigenvalue-minimisations  :  1440
 total energy-change (2. order) : 0.2194130E+01  (-0.3212781E+01)
 number of electron     393.9999843 magnetization       8.9818590
 augmentation part      131.4250569 magnetization       7.3944171

 Broyden mixing:
  rms(total) = 0.25674E+01    rms(broyden)= 0.25661E+01
  rms(prec ) = 0.35636E+01
  weight for this iteration     100.00

 eigenvalues of (default mixing * dielectric matrix)
  average eigenvalue GAMMA=   0.5300
  1.6936  0.6094  0.4174  0.4174  0.3167  0.1424  0.1132

 Free energy of the ion-electron system (eV)
  ---------------------------------------------------
  alpha Z        PSCENC =      1236.49250774
  Ewald energy   TEWEN  =    -24444.98807031
  -Hartree energ DENC   =     -9820.82917996
  -exchange      EXHF   =         0.00000000
  -V(xc)+E(xc)   XCENC  =      1598.53974070
  PAW double counting   =     35232.22740383   -36612.51299430
  entropy T*S    EENTRO =        -0.02784393
  eigenvalues    EBANDS =     -1392.21044535
  atomic energy  EATOM  =     33827.91512128
  Solvation  Ediel_sol  =         0.00000000
  ---------------------------------------------------
  free energy    TOTEN  =      -375.39376030 eV

  energy without entropy =     -375.36591637  energy(sigma->0) =     -375.37983834


--------------------------------------------------------------------------------------------------------




--------------------------------------- Iteration      1(  13)  ---------------------------------------


    POTLOK:  cpu time    0.1567: real time    0.1571
    SETDIJ:  cpu time    0.0231: real time    0.0232
     EDDAV:  cpu time    2.3801: real time    2.3858
    CHARGE:  cpu time    0.1643: real time    0.1647
    MIXING:  cpu time    0.0047: real time    0.0047
    --------------------------------------------
      LOOP:  cpu time    2.7290: real time    2.7354

 eigenvalue-minimisations  :  1344
 total energy-change (2. order) : 0.1383640E+01  (-0.1923363E+01)
 number of electron     393.9999842 magnetization       6.8926159
 augmentation part      131.4270818 magnetization       4.6552484

 Broyden mixing:
  rms(total) = 0.18600E+01    rms(broyden)= 0.18586E+01
  rms(prec ) = 0.25218E+01
  weight for this iteration     100.00

 eigenvalues of (default mixing * dielectric matrix)
  average eigenvalue GAMMA=   0.5197
  1.8012  0.5665  0.5665  0.4182  0.4182  0.1524  0.1255  0.1091

 Free energy of the ion-electron system (eV)
  ---------------------------------------------------
  alpha Z        PSCENC =      1236.49250774
  Ewald energy   TEWEN  =    -24444.98807031
  -Hartree energ DENC   =     -9823.45606204
  -exchange      EXHF   =         0.00000000
  -V(xc)+E(xc)   XCENC  =      1598.62510998
  PAW double counting   =     35415.24984028   -36798.30184571
  entropy T*S    EENTRO =        -0.02201805
  eigenvalues    EBANDS =     -1385.52470321
  atomic energy  EATOM  =     33827.91512128
  Solvation  Ediel_sol  =         0.00000000
  ---------------------------------------------------
  free energy    TOTEN  =      -374.01012004 eV

  energy without entropy =     -373.98810199  energy(sigma->0) =     -373.99911102


--------------------------------------------------------------------------------------------------------




--------------------------------------- Iteration      1(  14)  ---------------------------------------


    POTLOK:  cpu time    0.1586: real time    0.1590
    SETDIJ:  cpu time    0.0227: real time    0.0227
     EDDAV:  cpu time    2.4881: real time    2.4940
    CHARGE:  cpu time    0.1626: real time    0.1630
    MIXING:  cpu time    0.0052: real time    0.0052
    --------------------------------------------
      LOOP:  cpu time    2.8372: real time    2.8439

 eigenvalue-minimisations  :  1456
 total energy-change (2. order) : 0.5399623E+00  (-0.7562682E+00)
 number of electron     393.9999840 magnetization       6.4038280
 augmentation part      131.2270709 magnetization       4.8172921

 Broyden mixing:
  rms(total) = 0.11123E+01    rms(broyden)= 0.11114E+01
  rms(prec ) = 0.14426E+01
  weight for this iteration     100.00

 eigenvalues of (default mixing * dielectric matrix)
  average eigenvalue GAMMA=   0.5543
  1.8367  0.6833  0.6833  0.4817  0.4817  0.4510  0.1481  0.1238  0.0992

 Free energy of the ion-electron system (eV)
  ---------------------------------------------------
  alpha Z        PSCENC =      1236.49250774
  Ewald energy   TEWEN  =    -24444.98807031
  -Hartree energ DENC   =     -9829.28705864
  -exchange      EXHF   =         0.00000000
  -V(xc)+E(xc)   XCENC  =      1598.79540834
  PAW double counting   =     35741.21822160   -37129.30292258
  entropy T*S    EENTRO =        -0.02021653
  eigenvalues    EBANDS =     -1374.29314861
  atomic energy  EATOM  =     33827.91512128
  Solvation  Ediel_sol  =         0.00000000
  ---------------------------------------------------
  free energy    TOTEN  =      -373.47015770 eV

  energy without entropy =     -373.44994117  energy(sigma->0) =     -373.46004944


--------------------------------------------------------------------------------------------------------




--------------------------------------- Iteration      1(  15)  ---------------------------------------


    POTLOK:  cpu time    0.1572: real time    0.1575
    SETDIJ:  cpu time    0.0231: real time    0.0231
     EDDAV:  cpu time    2.4044: real time    2.4101
    CHARGE:  cpu time    0.1579: real time    0.1583
    MIXING:  cpu time    0.0051: real time    0.0051
    --------------------------------------------
      LOOP:  cpu time    2.7477: real time    2.7542

 eigenvalue-minimisations  :  1392
 total energy-change (2. order) :-0.4474591E+00  (-0.7551434E+00)
 number of electron     393.9999841 magnetization       5.6098587
 augmentation part      131.2408618 magnetization       3.9392667

 Broyden mixing:
  rms(total) = 0.14633E+01    rms(broyden)= 0.14626E+01
  rms(prec ) = 0.19573E+01
  weight for this iteration     100.00

 eigenvalues of (default mixing * dielectric matrix)
  average eigenvalue GAMMA=   0.5397
  1.9336  0.7676  0.7676  0.4858  0.4858  0.4532  0.1427  0.1427  0.1194  0.0984

 Free energy of the ion-electron system (eV)
  ---------------------------------------------------
  alpha Z        PSCENC =      1236.49250774
  Ewald energy   TEWEN  =    -24444.98807031
  -Hartree energ DENC   =     -9829.06162762
  -exchange      EXHF   =         0.00000000
  -V(xc)+E(xc)   XCENC  =      1598.83163886
  PAW double counting   =     35812.88278199   -37200.55762584
  entropy T*S    EENTRO =        -0.04298048
  eigenvalues    EBANDS =     -1375.38936241
  atomic energy  EATOM  =     33827.91512128
  Solvation  Ediel_sol  =         0.00000000
  ---------------------------------------------------
  free energy    TOTEN  =      -373.91761678 eV

  energy without entropy =     -373.87463631  energy(sigma->0) =     -373.89612655


--------------------------------------------------------------------------------------------------------




--------------------------------------- Iteration      1(  16)  ---------------------------------------


    POTLOK:  cpu time    0.1597: real time    0.1601
    SETDIJ:  cpu time    0.0231: real time    0.0232
     EDDAV:  cpu time    2.3803: real time    2.3860
    CHARGE:  cpu time    0.1501: real time    0.1504
    MIXING:  cpu time    0.0049: real time    0.0049
    --------------------------------------------
      LOOP:  cpu time    2.7181: real time    2.7246

 eigenvalue-minimisations  :  1376
 total energy-change (2. order) : 0.5102589E+00  (-0.4183085E+00)
 number of electron     393.9999841 magnetization       5.4707267
 augmentation part      131.1657009 magnetization       3.9951384

 Broyden mixing:
  rms(total) = 0.78108E+00    rms(broyden)= 0.78024E+00
  rms(prec ) = 0.10568E+01
  weight for this iteration     100.00

 eigenvalues of (default mixing * dielectric matrix)
  average eigenvalue GAMMA=   0.5507
  1.9333  0.8834  0.8834  0.5122  0.5122  0.4184  0.4184  0.1508  0.1333  0.1168
  0.0955

 Free energy of the ion-electron system (eV)
  ---------------------------------------------------
  alpha Z        PSCENC =      1236.49250774
  Ewald energy   TEWEN  =    -24444.98807031
  -Hartree energ DENC   =     -9832.76416952
  -exchange      EXHF   =         0.00000000
  -V(xc)+E(xc)   XCENC  =      1599.00282308
  PAW double counting   =     35934.71975824   -37323.36646542
  entropy T*S    EENTRO =        -0.03184076
  eigenvalues    EBANDS =     -1370.38702226
  atomic energy  EATOM  =     33827.91512128
  Solvation  Ediel_sol  =         0.00000000
  ---------------------------------------------------
  free energy    TOTEN  =      -373.40735792 eV

  energy without entropy =     -373.37551716  energy(sigma->0) =     -373.39143754


--------------------------------------------------------------------------------------------------------




--------------------------------------- Iteration      1(  17)  ---------------------------------------


    POTLOK:  cpu time    0.1566: real time    0.1570
    SETDIJ:  cpu time    0.0232: real time    0.0233
     EDDAV:  cpu time    2.3700: real time    2.3756
    CHARGE:  cpu time    0.1601: real time    0.1604
    MIXING:  cpu time    0.0052: real time    0.0052
    --------------------------------------------
      LOOP:  cpu time    2.7150: real time    2.7215

 eigenvalue-minimisations  :  1360
 total energy-change (2. order) :-0.8198514E-01  (-0.4008244E+00)
 number of electron     393.9999841 magnetization       5.0656934
 augmentation part      131.2115774 magnetization       3.2313452

 Broyden mixing:
  rms(total) = 0.96049E+00    rms(broyden)= 0.95996E+00
  rms(prec ) = 0.13292E+01
  weight for this iteration     100.00

 eigenvalues of (default mixing * dielectric matrix)
  average eigenvalue GAMMA=   0.5607
  1.9806  1.0816  1.0816  0.5336  0.5336  0.4449  0.4449  0.1644  0.1458  0.1235
  0.1032  0.0903

 Free energy of the ion-electron system (eV)
  ---------------------------------------------------
  alpha Z        PSCENC =      1236.49250774
  Ewald energy   TEWEN  =    -24444.98807031
  -Hartree energ DENC   =     -9832.59724574
  -exchange      EXHF   =         0.00000000
  -V(xc)+E(xc)   XCENC  =      1599.03419919
  PAW double counting   =     35955.96235475   -37343.73611598
  entropy T*S    EENTRO =        -0.03042411
  eigenvalues    EBANDS =     -1371.54166988
  atomic energy  EATOM  =     33827.91512128
  Solvation  Ediel_sol  =         0.00000000
  ---------------------------------------------------
  free energy    TOTEN  =      -373.48934306 eV

  energy without entropy =     -373.45891895  energy(sigma->0) =     -373.47413100


--------------------------------------------------------------------------------------------------------




--------------------------------------- Iteration      1(  18)  ---------------------------------------


    POTLOK:  cpu time    0.1550: real time    0.1554
    SETDIJ:  cpu time    0.0232: real time    0.0233
     EDDAV:  cpu time    2.3384: real time    2.3440
    CHARGE:  cpu time    0.1629: real time    0.1633
    MIXING:  cpu time    0.0057: real time    0.0057
    --------------------------------------------
      LOOP:  cpu time    2.6853: real time    2.6917

 eigenvalue-minimisations  :  1344
 total energy-change (2. order) :-0.8151952E-01  (-0.4223948E+00)
 number of electron     393.9999842 magnetization       5.1962205
 augmentation part      131.1163381 magnetization       3.3804375

 Broyden mixing:
  rms(total) = 0.97441E+00    rms(broyden)= 0.97376E+00
  rms(prec ) = 0.13517E+01
  weight for this iteration     100.00

 eigenvalues of (default mixing * dielectric matrix)
  average eigenvalue GAMMA=   0.5390
  1.8770  1.1775  1.1775  0.5230  0.5230  0.4545  0.4545  0.2315  0.1485  0.1353
  0.1179  0.0986  0.0878

 Free energy of the ion-electron system (eV)
  ---------------------------------------------------
  alpha Z        PSCENC =      1236.49250774
  Ewald energy   TEWEN  =    -24444.98807031
  -Hartree energ DENC   =     -9835.59772340
  -exchange      EXHF   =         0.00000000
  -V(xc)+E(xc)   XCENC  =      1599.20930536
  PAW double counting   =     36054.33620738   -37442.17629182
  entropy T*S    EENTRO =        -0.03208971
  eigenvalues    EBANDS =     -1368.72982910
  atomic energy  EATOM  =     33827.91512128
  Solvation  Ediel_sol  =         0.00000000
  ---------------------------------------------------
  free energy    TOTEN  =      -373.57086258 eV

  energy without entropy =     -373.53877286  energy(sigma->0) =     -373.55481772


--------------------------------------------------------------------------------------------------------




--------------------------------------- Iteration      1(  19)  ---------------------------------------


    POTLOK:  cpu time    0.1583: real time    0.1586
    SETDIJ:  cpu time    0.0233: real time    0.0234
     EDDAV:  cpu time    2.3646: real time    2.3702
    CHARGE:  cpu time    0.1627: real time    0.1630
    MIXING:  cpu time    0.0058: real time    0.0058
    --------------------------------------------
      LOOP:  cpu time    2.7146: real time    2.7211

 eigenvalue-minimisations  :  1376
 total energy-change (2. order) : 0.2469499E+00  (-0.2000123E+00)
 number of electron     393.9999841 magnetization       5.2429828
 augmentation part      131.1505245 magnetization       3.4620064

 Broyden mixing:
  rms(total) = 0.45108E+00    rms(broyden)= 0.45058E+00
  rms(prec ) = 0.53303E+00
  weight for this iteration     100.00

 eigenvalues of (default mixing * dielectric matrix)
  average eigenvalue GAMMA=   0.5014
  1.8768  1.1784  1.1784  0.5224  0.5224  0.4546  0.4546  0.2341  0.1485  0.1354
  0.1179  0.0987  0.0882  0.0089

 Free energy of the ion-electron system (eV)
  ---------------------------------------------------
  alpha Z        PSCENC =      1236.49250774
  Ewald energy   TEWEN  =    -24444.98807031
  -Hartree energ DENC   =     -9835.56312133
  -exchange      EXHF   =         0.00000000
  -V(xc)+E(xc)   XCENC  =      1599.24855875
  PAW double counting   =     36057.99813822   -37445.15492178
  entropy T*S    EENTRO =        -0.02511459
  eigenvalues    EBANDS =     -1369.24701061
  atomic energy  EATOM  =     33827.91512128
  Solvation  Ediel_sol  =         0.00000000
  ---------------------------------------------------
  free energy    TOTEN  =      -373.32391263 eV

  energy without entropy =     -373.29879804  energy(sigma->0) =     -373.31135534


--------------------------------------------------------------------------------------------------------




--------------------------------------- Iteration      1(  20)  ---------------------------------------


    POTLOK:  cpu time    0.1566: real time    0.1569
    SETDIJ:  cpu time    0.0226: real time    0.0226
     EDDAV:  cpu time    2.5590: real time    2.5651
    CHARGE:  cpu time    0.1628: real time    0.1632
    MIXING:  cpu time    0.0062: real time    0.0063
    --------------------------------------------
      LOOP:  cpu time    2.9071: real time    2.9141

 eigenvalue-minimisations  :  1504
 total energy-change (2. order) : 0.2697979E-02  (-0.4714400E-01)
 number of electron     393.9999841 magnetization       5.2270569
 augmentation part      131.1354676 magnetization       3.6179138

 Broyden mixing:
  rms(total) = 0.47740E+00    rms(broyden)= 0.47723E+00
  rms(prec ) = 0.57346E+00
  weight for this iteration     100.00

 eigenvalues of (default mixing * dielectric matrix)
  average eigenvalue GAMMA=   0.4698
  1.8765  1.1787  1.1787  0.5224  0.5224  0.4546  0.4546  0.2344  0.1485  0.1354
  0.1180  0.0988  0.0884  0.0146  0.0216

 Free energy of the ion-electron system (eV)
  ---------------------------------------------------
  alpha Z        PSCENC =      1236.49250774
  Ewald energy   TEWEN  =    -24444.98807031
  -Hartree energ DENC   =     -9835.75059328
  -exchange      EXHF   =         0.00000000
  -V(xc)+E(xc)   XCENC  =      1599.27321080
  PAW double counting   =     36066.49481213   -37453.57714085
  entropy T*S    EENTRO =        -0.03423488
  eigenvalues    EBANDS =     -1369.14682728
  atomic energy  EATOM  =     33827.91512128
  Solvation  Ediel_sol  =         0.00000000
  ---------------------------------------------------
  free energy    TOTEN  =      -373.32121465 eV

  energy without entropy =     -373.28697978  energy(sigma->0) =     -373.30409721


--------------------------------------------------------------------------------------------------------




--------------------------------------- Iteration      1(  21)  ---------------------------------------


    POTLOK:  cpu time    0.1591: real time    0.1595
    SETDIJ:  cpu time    0.0223: real time    0.0224
     EDDAV:  cpu time    2.1615: real time    2.1667
    CHARGE:  cpu time    0.1634: real time    0.1638
    MIXING:  cpu time    0.0064: real time    0.0064
    --------------------------------------------
      LOOP:  cpu time    2.5127: real time    2.5187

 eigenvalue-minimisations  :  1232
 total energy-change (2. order) :-0.5914260E-02  (-0.2232605E-01)
 number of electron     393.9999842 magnetization       5.2256795
 augmentation part      131.1421025 magnetization       3.5312278

 Broyden mixing:
  rms(total) = 0.43662E+00    rms(broyden)= 0.43652E+00
  rms(prec ) = 0.48289E+00
  weight for this iteration     100.00

 eigenvalues of (default mixing * dielectric matrix)
  average eigenvalue GAMMA=   0.5227
  1.8425  1.2482  1.2482  0.6914  0.5735  0.5735  0.4626  0.4626  0.4227  0.1775
  0.1484  0.1339  0.1180  0.0985  0.0884  0.0724

 Free energy of the ion-electron system (eV)
  ---------------------------------------------------
  alpha Z        PSCENC =      1236.49250774
  Ewald energy   TEWEN  =    -24444.98807031
  -Hartree energ DENC   =     -9835.71743303
  -exchange      EXHF   =         0.00000000
  -V(xc)+E(xc)   XCENC  =      1599.29177853
  PAW double counting   =     36075.94121245   -37462.97112837
  entropy T*S    EENTRO =        -0.02214989
  eigenvalues    EBANDS =     -1369.26896731
  atomic energy  EATOM  =     33827.91512128
  Solvation  Ediel_sol  =         0.00000000
  ---------------------------------------------------
  free energy    TOTEN  =      -373.32712891 eV

  energy without entropy =     -373.30497902  energy(sigma->0) =     -373.31605396


--------------------------------------------------------------------------------------------------------




--------------------------------------- Iteration      1(  22)  ---------------------------------------


    POTLOK:  cpu time    0.1585: real time    0.1589
    SETDIJ:  cpu time    0.0233: real time    0.0233
     EDDAV:  cpu time    2.4761: real time    2.4820
    CHARGE:  cpu time    0.1630: real time    0.1634
    MIXING:  cpu time    0.0068: real time    0.0068
    --------------------------------------------
      LOOP:  cpu time    2.8276: real time    2.8344

 eigenvalue-minimisations  :  1472
 total energy-change (2. order) : 0.1462259E-01  (-0.5873789E-02)
 number of electron     393.9999842 magnetization       5.2390478
 augmentation part      131.1279826 magnetization       3.5590868

 Broyden mixing:
  rms(total) = 0.49143E+00    rms(broyden)= 0.49142E+00
  rms(prec ) = 0.56965E+00
  weight for this iteration     100.00

 eigenvalues of (default mixing * dielectric matrix)
  average eigenvalue GAMMA=   0.5357
  1.7437  1.1425  1.3141  1.3141  0.5977  0.5977  0.4642  0.4642  0.4312  0.2066
  0.1759  0.1469  0.1339  0.1174  0.0981  0.0876  0.0714

 Free energy of the ion-electron system (eV)
  ---------------------------------------------------
  alpha Z        PSCENC =      1236.49250774
  Ewald energy   TEWEN  =    -24444.98807031
  -Hartree energ DENC   =     -9836.03203894
  -exchange      EXHF   =         0.00000000
  -V(xc)+E(xc)   XCENC  =      1599.27810465
  PAW double counting   =     36074.76475166   -37461.84882471
  entropy T*S    EENTRO =        -0.02345565
  eigenvalues    EBANDS =     -1368.87060205
  atomic energy  EATOM  =     33827.91512128
  Solvation  Ediel_sol  =         0.00000000
  ---------------------------------------------------
  free energy    TOTEN  =      -373.31250632 eV

  energy without entropy =     -373.28905067  energy(sigma->0) =     -373.30077850


--------------------------------------------------------------------------------------------------------




--------------------------------------- Iteration      1(  23)  ---------------------------------------


    POTLOK:  cpu time    0.1590: real time    0.1593
    SETDIJ:  cpu time    0.0231: real time    0.0232
     EDDAV:  cpu time    2.4441: real time    2.4499
    CHARGE:  cpu time    0.1607: real time    0.1611
    MIXING:  cpu time    0.0067: real time    0.0067
    --------------------------------------------
      LOOP:  cpu time    2.7936: real time    2.8003

 eigenvalue-minimisations  :  1440
 total energy-change (2. order) : 0.4423381E-01  (-0.1643451E-01)
 number of electron     393.9999842 magnetization       5.2483140
 augmentation part      131.1234282 magnetization       3.4638692

 Broyden mixing:
  rms(total) = 0.52617E+00    rms(broyden)= 0.52610E+00
  rms(prec ) = 0.63094E+00
  weight for this iteration     100.00

 eigenvalues of (default mixing * dielectric matrix)
  average eigenvalue GAMMA=   0.5164
  1.7370  1.2514  1.3172  1.3172  0.5981  0.5981  0.4643  0.4643  0.4240  0.2011
  0.1717  0.1445  0.1344  0.1159  0.0932  0.0947  0.0947  0.0726

 Free energy of the ion-electron system (eV)
  ---------------------------------------------------
  alpha Z        PSCENC =      1236.49250774
  Ewald energy   TEWEN  =    -24444.98807031
  -Hartree energ DENC   =     -9836.04739113
  -exchange      EXHF   =         0.00000000
  -V(xc)+E(xc)   XCENC  =      1599.25097353
  PAW double counting   =     36073.95980988   -37460.99967084
  entropy T*S    EENTRO =        -0.02626137
  eigenvalues    EBANDS =     -1368.82529129
  atomic energy  EATOM  =     33827.91512128
  Solvation  Ediel_sol  =         0.00000000
  ---------------------------------------------------
  free energy    TOTEN  =      -373.26827251 eV

  energy without entropy =     -373.24201114  energy(sigma->0) =     -373.25514182


--------------------------------------------------------------------------------------------------------




--------------------------------------- Iteration      1(  24)  ---------------------------------------


    POTLOK:  cpu time    0.1587: real time    0.1591
    SETDIJ:  cpu time    0.0230: real time    0.0231
     EDDAV:  cpu time    2.5713: real time    2.5774
    CHARGE:  cpu time    0.1629: real time    0.1633
    MIXING:  cpu time    0.0070: real time    0.0070
    --------------------------------------------
      LOOP:  cpu time    2.9229: real time    2.9299

 eigenvalue-minimisations  :  1536
 total energy-change (2. order) : 0.1931072E-02  (-0.4807418E-02)
 number of electron     393.9999842 magnetization       5.4289843
 augmentation part      131.1211944 magnetization       3.6244406

 Broyden mixing:
  rms(total) = 0.48537E+00    rms(broyden)= 0.48533E+00
  rms(prec ) = 0.59463E+00
  weight for this iteration     100.00

 eigenvalues of (default mixing * dielectric matrix)
  average eigenvalue GAMMA=   0.5463
  1.8049  1.3149  1.3149  0.9722  0.7201  0.7201  0.5655  0.5655  0.4574  0.4574
  0.4589  0.1853  0.1853  0.1478  0.1335  0.1177  0.0983  0.0880  0.0718

 Free energy of the ion-electron system (eV)
  ---------------------------------------------------
  alpha Z        PSCENC =      1236.49250774
  Ewald energy   TEWEN  =    -24444.98807031
  -Hartree energ DENC   =     -9836.12590911
  -exchange      EXHF   =         0.00000000
  -V(xc)+E(xc)   XCENC  =      1599.24804347
  PAW double counting   =     36073.42496847   -37460.48661202
  entropy T*S    EENTRO =        -0.03228820
  eigenvalues    EBANDS =     -1368.71410277
  atomic energy  EATOM  =     33827.91512128
  Solvation  Ediel_sol  =         0.00000000
  ---------------------------------------------------
  free energy    TOTEN  =      -373.26634143 eV

  energy without entropy =     -373.23405323  energy(sigma->0) =     -373.25019733


--------------------------------------------------------------------------------------------------------




--------------------------------------- Iteration      1(  25)  ---------------------------------------


    POTLOK:  cpu time    0.1563: real time    0.1566
    SETDIJ:  cpu time    0.0229: real time    0.0230
     EDDAV:  cpu time    2.3760: real time    2.3818
    CHARGE:  cpu time    0.1610: real time    0.1614
    MIXING:  cpu time    0.0073: real time    0.0074
    --------------------------------------------
      LOOP:  cpu time    2.7235: real time    2.7301

 eigenvalue-minimisations  :  1408
 total energy-change (2. order) :-0.4457347E-01  (-0.2711924E-01)
 number of electron     393.9999842 magnetization       5.6096292
 augmentation part      131.1261101 magnetization       3.8023428

 Broyden mixing:
  rms(total) = 0.49388E+00    rms(broyden)= 0.49380E+00
  rms(prec ) = 0.64929E+00
  weight for this iteration     100.00

 eigenvalues of (default mixing * dielectric matrix)
  average eigenvalue GAMMA=   0.5573
  1.8190  1.3784  1.3784  0.9293  0.9416  0.9416  0.5861  0.5861  0.4781  0.4590
  0.4590  0.2136  0.1770  0.1473  0.1432  0.1328  0.1177  0.0983  0.0880  0.0718

 Free energy of the ion-electron system (eV)
  ---------------------------------------------------
  alpha Z        PSCENC =      1236.49250774
  Ewald energy   TEWEN  =    -24444.98807031
  -Hartree energ DENC   =     -9836.54106512
  -exchange      EXHF   =         0.00000000
  -V(xc)+E(xc)   XCENC  =      1599.29955352
  PAW double counting   =     36088.48185475   -37475.29551186
  entropy T*S    EENTRO =        -0.02707056
  eigenvalues    EBANDS =     -1368.64823434
  atomic energy  EATOM  =     33827.91512128
  Solvation  Ediel_sol  =         0.00000000
  ---------------------------------------------------
  free energy    TOTEN  =      -373.31091490 eV

  energy without entropy =     -373.28384434  energy(sigma->0) =     -373.29737962


--------------------------------------------------------------------------------------------------------




--------------------------------------- Iteration      1(  26)  ---------------------------------------


    POTLOK:  cpu time    0.1594: real time    0.1598
    SETDIJ:  cpu time    0.0220: real time    0.0221
     EDDAV:  cpu time    2.3514: real time    2.3570
    CHARGE:  cpu time    0.1702: real time    0.1706
    MIXING:  cpu time    0.0077: real time    0.0077
    --------------------------------------------
      LOOP:  cpu time    2.7107: real time    2.7171

 eigenvalue-minimisations  :  1440
 total energy-change (2. order) :-0.1811431E-01  (-0.5511201E-01)
 number of electron     393.9999842 magnetization       5.5804761
 augmentation part      131.1540680 magnetization       3.9178822

 Broyden mixing:
  rms(total) = 0.42158E+00    rms(broyden)= 0.42135E+00
  rms(prec ) = 0.51287E+00
  weight for this iteration     100.00

 eigenvalues of (default mixing * dielectric matrix)
  average eigenvalue GAMMA=   0.5751
  2.0588  1.3097  1.3097  0.9744  1.1418  1.1418  0.6148  0.6148  0.4643  0.4643
  0.4807  0.3512  0.1803  0.1803  0.1477  0.1176  0.1353  0.1323  0.0983  0.0880
  0.0718

 Free energy of the ion-electron system (eV)
  ---------------------------------------------------
  alpha Z        PSCENC =      1236.49250774
  Ewald energy   TEWEN  =    -24444.98807031
  -Hartree energ DENC   =     -9836.46212942
  -exchange      EXHF   =         0.00000000
  -V(xc)+E(xc)   XCENC  =      1599.38950892
  PAW double counting   =     36107.51054433   -37493.93012084
  entropy T*S    EENTRO =        -0.02772239
  eigenvalues    EBANDS =     -1369.22866853
  atomic energy  EATOM  =     33827.91512128
  Solvation  Ediel_sol  =         0.00000000
  ---------------------------------------------------
[...]
   -.217E+02 -.680E-01 0.554E+01   0.221E+02 0.754E-01 -.509E+01   -.403E+00 -.120E-02 -.436E+00   -.576E-02 -.480E-02 -.101E-01
   -.356E+02 0.527E-01 -.474E+02   0.364E+02 -.456E-01 0.477E+02   -.785E+00 -.112E-01 -.339E+00   -.683E-02 0.400E-02 -.986E-02
   0.356E+02 0.527E-01 0.474E+02   -.364E+02 -.456E-01 -.477E+02   0.785E+00 -.112E-01 0.339E+00   0.683E-02 0.400E-02 0.986E-02
   0.979E-05 -.251E+02 -.169E-05   -.284E-13 0.253E+02 -.995E-13   0.000E+00 -.108E+00 0.000E+00   0.251E-11 0.278E-02 -.141E-11
   0.248E-05 0.496E+01 -.475E-06   0.568E-13 -.468E+01 -.391E-13   -.194E-25 -.274E+00 -.662E-25   -.528E-11 -.599E-02 -.976E-12
   0.832E-06 -.515E+01 -.159E-06   -.426E-13 0.486E+01 0.497E-13   0.646E-26 0.284E+00 -.358E-25   -.382E-11 0.596E-02 0.365E-12
   0.501E-05 0.439E+01 -.958E-06   -.151E-13 -.422E+01 -.117E-12   0.000E+00 -.168E+00 0.868E-25   -.314E-11 0.108E-01 -.162E-11
   -.204E+02 0.250E+00 0.429E+01   0.209E+02 -.196E+00 -.393E+01   -.465E+00 -.336E-01 -.355E+00   -.291E-01 -.115E-01 -.533E-02
   0.204E+02 0.250E+00 -.429E+01   -.209E+02 -.196E+00 0.393E+01   0.465E+00 -.336E-01 0.355E+00   0.291E-01 -.115E-01 0.533E-02
   0.342E+02 0.768E+00 0.492E+02   -.351E+02 -.826E+00 -.495E+02   0.897E+00 0.424E-01 0.240E+00   0.309E-01 0.117E-01 0.522E-02
   -.342E+02 0.768E+00 -.492E+02   0.351E+02 -.826E+00 0.495E+02   -.897E+00 0.424E-01 -.240E+00   -.309E-01 0.117E-01 -.522E-02
   0.328E-05 -.426E+01 -.628E-06   0.444E-14 0.407E+01 -.373E-13   -.517E-25 0.195E+00 -.511E-25   0.571E-12 -.680E-02 0.448E-12
   -.107E-04 0.249E+02 0.179E-05   -.231E-13 -.252E+02 0.121E-12   -.517E-25 0.204E+00 -.470E-25   0.989E-11 0.129E-01 0.187E-11
   0.429E-05 -.256E+02 -.718E-06   0.444E-14 0.259E+02 -.426E-13   0.000E+00 -.257E+00 0.117E-25   0.183E-11 -.139E-01 -.634E-12
   0.175E+02 0.143E+01 0.263E+03   -.213E+02 -.179E+01 -.275E+03   0.384E+01 0.351E+00 0.121E+02   -.144E-01 0.121E-01 -.893E-02
   -.175E+02 0.143E+01 -.263E+03   0.213E+02 -.179E+01 0.275E+03   -.384E+01 0.351E+00 -.121E+02   0.144E-01 0.121E-01 0.893E-02
   -.248E+02 0.123E+01 -.262E+03   0.289E+02 -.148E+01 0.275E+03   -.407E+01 0.257E+00 -.127E+02   -.900E-02 -.485E-02 -.148E-01
   0.248E+02 0.123E+01 0.262E+03   -.289E+02 -.148E+01 -.275E+03   0.407E+01 0.257E+00 0.127E+02   0.900E-02 -.485E-02 0.148E-01
   0.329E+00 0.127E+01 0.262E+03   -.430E+01 -.950E+00 -.274E+03   0.398E+01 -.302E+00 0.117E+02   -.109E-01 -.244E-01 -.177E-01
   -.329E+00 0.127E+01 -.262E+03   0.430E+01 -.950E+00 0.274E+03   -.398E+01 -.302E+00 -.117E+02   0.109E-01 -.244E-01 0.177E-01
   0.328E+02 -.115E+01 -.276E+03   -.318E+02 0.590E+00 0.290E+03   -.104E+01 0.542E+00 -.143E+02   0.515E-02 0.256E-01 0.244E-01
   -.328E+02 -.115E+01 0.276E+03   0.318E+02 0.590E+00 -.290E+03   0.104E+01 0.542E+00 0.143E+02   -.515E-02 0.256E-01 -.244E-01
   -.856E-01 -.235E+00 -.262E+03   0.426E+01 0.228E+00 0.274E+03   -.420E+01 0.128E-01 -.122E+02   0.201E-01 -.552E-02 -.583E-03
   0.856E-01 -.235E+00 0.262E+03   -.426E+01 0.228E+00 -.274E+03   0.420E+01 0.128E-01 0.122E+02   -.201E-01 -.552E-02 0.583E-03
   -.338E+02 0.337E+00 0.276E+03   0.327E+02 -.311E+00 -.291E+03   0.108E+01 -.329E-01 0.150E+02   -.256E-01 0.539E-02 0.671E-02
   0.338E+02 0.337E+00 -.276E+03   -.327E+02 -.311E+00 0.291E+03   -.108E+01 -.329E-01 -.150E+02   0.256E-01 0.539E-02 -.671E-02
   0.260E+02 -.127E+01 0.262E+03   -.301E+02 0.153E+01 -.276E+03   0.409E+01 -.248E+00 0.131E+02   -.199E-01 -.132E-01 -.784E-02
   -.260E+02 -.127E+01 -.262E+03   0.301E+02 0.153E+01 0.276E+03   -.409E+01 -.248E+00 -.131E+02   0.199E-01 -.132E-01 0.784E-02
   -.247E+02 -.168E+01 -.262E+03   0.286E+02 0.200E+01 0.275E+03   -.390E+01 -.329E+00 -.126E+02   -.117E-01 0.493E-02 -.128E-01
   0.247E+02 -.168E+01 0.262E+03   -.286E+02 0.200E+01 -.275E+03   0.390E+01 -.329E+00 0.126E+02   0.117E-01 0.493E-02 0.128E-01
   0.702E+02 0.290E+02 0.303E+03   -.769E+02 -.307E+02 -.319E+03   0.668E+01 0.173E+01 0.156E+02   0.337E-02 0.134E-01 -.834E-02
   -.702E+02 0.290E+02 -.303E+03   0.769E+02 -.307E+02 0.319E+03   -.668E+01 0.173E+01 -.156E+02   -.337E-02 0.134E-01 0.834E-02
   -.698E+02 0.298E+02 -.302E+03   0.765E+02 -.318E+02 0.318E+03   -.662E+01 0.194E+01 -.150E+02   -.185E-01 -.494E-02 -.201E-01
   0.698E+02 0.298E+02 0.302E+03   -.765E+02 -.318E+02 -.318E+03   0.662E+01 0.194E+01 0.150E+02   0.185E-01 -.494E-02 0.201E-01
   0.380E+02 -.137E+01 0.270E+03   -.430E+02 0.122E+01 -.283E+03   0.500E+01 0.152E+00 0.130E+02   0.105E-01 -.311E-02 0.349E-02
   -.380E+02 -.137E+01 -.270E+03   0.430E+02 0.122E+01 0.283E+03   -.500E+01 0.152E+00 -.130E+02   -.105E-01 -.311E-02 -.349E-02
   -.333E+02 0.149E+01 -.270E+03   0.368E+02 -.123E+01 0.283E+03   -.347E+01 -.261E+00 -.126E+02   -.170E-01 0.158E-02 0.227E-02
   0.333E+02 0.149E+01 0.270E+03   -.368E+02 -.123E+01 -.283E+03   0.347E+01 -.261E+00 0.126E+02   0.170E-01 0.158E-02 -.227E-02
   -.362E+02 0.175E+00 -.269E+03   0.412E+02 -.143E+00 0.282E+03   -.499E+01 -.263E-01 -.131E+02   0.827E-02 -.605E-02 -.777E-02
   0.362E+02 0.175E+00 0.269E+03   -.412E+02 -.143E+00 -.282E+03   0.499E+01 -.263E-01 0.131E+02   -.827E-02 -.605E-02 0.777E-02
   0.305E+02 -.147E+00 0.269E+03   -.339E+02 0.133E+00 -.282E+03   0.342E+01 0.105E-01 0.126E+02   -.125E-01 0.533E-02 0.132E-01
   -.305E+02 -.147E+00 -.269E+03   0.339E+02 0.133E+00 0.282E+03   -.342E+01 0.105E-01 -.126E+02   0.125E-01 0.533E-02 -.132E-01
   0.605E+02 -.309E+02 0.304E+03   -.667E+02 0.331E+02 -.319E+03   0.618E+01 -.221E+01 0.146E+02   0.242E-01 -.137E-01 -.192E-01
   -.605E+02 -.309E+02 -.304E+03   0.667E+02 0.331E+02 0.319E+03   -.618E+01 -.221E+01 -.146E+02   -.242E-01 -.137E-01 0.192E-01
   -.700E+02 -.294E+02 -.302E+03   0.766E+02 0.312E+02 0.317E+03   -.656E+01 -.178E+01 -.152E+02   -.189E-01 0.456E-02 -.212E-01
   0.700E+02 -.294E+02 0.302E+03   -.766E+02 0.312E+02 -.317E+03   0.656E+01 -.178E+01 0.152E+02   0.189E-01 0.456E-02 0.212E-01
 -----------------------------------------------------------------------------------------------
   0.191E-04 0.590E+00 -.623E-05   -.426E-13 0.355E-14 -.171E-12   0.000E+00 -.572E+00 0.355E-14   0.651E-11 -.112E-01 -.530E-11
 
 
 POSITION                                       TOTAL-FORCE (eV/Angst)
 -----------------------------------------------------------------------------------
      1.51769      5.52632      2.34998         0.002073      0.000192     -0.000526
      4.91281      5.52632      7.01731        -0.002073      0.000192      0.000526
      4.16238      1.38756      2.33684         0.001523      0.002501     -0.007463
      2.26812      1.38756      7.03045        -0.001523      0.002501      0.007463
      2.26697      4.15935      7.03132         0.016931     -0.001267      0.001387
      4.16353      4.15935      2.33596        -0.016931     -0.001267     -0.001387
      1.51808      2.79499      2.35883        -0.013613     -0.002196      0.005239
      4.91242      2.79499      7.00846         0.013613     -0.002196     -0.005239
      6.80815      5.52551      2.32569        -0.006322     -0.002954     -0.000901
     -0.37765      5.52551      7.04159         0.006322     -0.002954      0.000901
     -0.94538      1.39389      2.34111        -0.006904     -0.008891     -0.000057
      7.37588      1.39389      7.02618         0.006904     -0.008891      0.000057
      6.80874      2.79459      2.32293         0.004398      0.002181     -0.000089
     -0.37823      2.79459      7.04436        -0.004398      0.002181      0.000089
     -0.00000      5.54022      0.00000         0.000000     -0.004607      0.000000
      2.56074      1.38714      0.04353        -0.001803      0.001242      0.003854
      3.86976      1.38714      9.32375         0.001803      0.001242     -0.003854
      3.88189      4.15948      9.36322        -0.000845     -0.000178     -0.004429
      2.54861      4.15948      0.00407         0.000845     -0.000178      0.004429
     -0.00000      2.78213      0.00000         0.000000      0.006234      0.000000
      5.10498      0.00214     -0.00444         0.000000      0.000633     -0.000000
      5.10498      2.77355     -0.00444         0.000000      0.004042      0.000000
      3.21525      0.00438      4.68364         0.000000      0.009804     -0.000000
      5.76138      1.38898      4.63562         0.001302      0.008148     -0.000460
      0.66912      1.38898      4.73166        -0.001302      0.008148      0.000460
      0.65984      4.16295      4.69228        -0.001855     -0.003330      0.000952
      5.77067      4.16295      4.67501         0.001855     -0.003330     -0.000952
      3.21525      2.77569      4.68364         0.000000     -0.002150      0.000000
     -1.88973      5.53555      4.68808         0.000000     -0.001536      0.000000
     -1.88973      2.77676      4.68808         0.000000     -0.003331      0.000000
      5.03595      5.53469      3.62453        -0.018030      0.002801      0.001085
      1.39456      5.53469      5.74276         0.018030      0.002801     -0.001085
      3.23718      5.53082      1.06400         0.001655      0.001234      0.001140
      3.19332      5.53082      8.30329        -0.001655      0.001234     -0.001140
      7.60569      1.37804      3.65241        -0.003692     -0.005910     -0.003582
     -1.17519      1.37804      5.71488         0.003692     -0.005910      0.003582
     -1.07832      4.16205      5.63409        -0.005943      0.002789      0.008767
      7.50882      4.16205      3.73319         0.005943      0.002789     -0.008767
      0.70920      1.38888      1.02355        -0.005008     -0.000460      0.009038
      5.72130      1.38888      8.34373         0.005008     -0.000460     -0.009038
      5.62170      4.16100      8.42495         0.001933     -0.002016     -0.005832
      0.80880      4.16100      0.94234        -0.001933     -0.002016      0.005832
      5.09462      2.79038      3.61827         0.004799      0.000219     -0.008580
      1.33589      2.79038      5.74902        -0.004799      0.000219      0.008580
      3.23734      2.78643      1.06929        -0.000962     -0.001731      0.001751
      3.19316      2.78643      8.29799         0.000962     -0.001731     -0.001751
     -0.00370      0.03300      3.69773         0.005962     -0.000861     -0.001200
      6.43420      0.03300      5.66956        -0.005962     -0.000861      0.001200
      8.33248      0.03455      0.98831         0.008331      0.000144     -0.003036
     -1.90198      0.03455      8.37898        -0.008331      0.000144      0.003036
      2.48451      1.39380      3.68052        -0.005485      0.005909      0.003386
      3.94600      1.39380      5.68677         0.005485      0.005909     -0.003386
      3.99118      4.15844      5.66435        -0.004423      0.000818      0.006008
      2.43932      4.15844      3.70293         0.004423      0.000818     -0.006008
      5.83390      1.38742      0.99865        -0.000776     -0.000298      0.004267
      0.59660      1.38742      8.36864         0.000776     -0.000298     -0.004267
      0.54324      4.16118      8.39639        -0.000412      0.001155     -0.004185
      5.88726      4.16118      0.97090         0.000412      0.001155      0.004185
     -0.05643      2.74059      3.70292        -0.014056     -0.002626      0.010267
      6.48694      2.74059      5.66437         0.014056     -0.002626     -0.010267
      8.33108      2.74200      0.98559         0.003764     -0.001161     -0.000369
     -1.90057      2.74200      8.38170        -0.003764     -0.001161      0.000369
 -----------------------------------------------------------------------------------
    total drift:                                0.000019      0.006592     -0.000006


--------------------------------------------------------------------------------------------------------



  FREE ENERGIE OF THE ION-ELECTRON SYSTEM (eV)
  ---------------------------------------------------
  free  energy   TOTEN  =      -373.6416265088 eV

  energy  without entropy=     -373.6400097391  energy(sigma->0) =     -373.64081812
 
 d Force = 0.1421907E-03[ 0.122E-03, 0.163E-03]  d Energy = 0.1092263E-03 0.330E-04
 d Force = 0.7968150E+00[ 0.796E+00, 0.797E+00]  d Ewald  = 0.2822209E+01-0.203E+01


--------------------------------------------------------------------------------------------------------


    POTLOK:  cpu time    0.1449: real time    0.1452


--------------------------------------------------------------------------------------------------------


 Quasi-Newton relaxation of ions (Broydens 2nd method)
  g(Force)  = 0.230E-03   g(Stress)= 0.816E-04

 retain information from N=  1 steps
 eigenvalues of (default step * inverse Hessian matrix)
  average eigenvalue of G=   0.2022
 eigenvalue spectrum of G is  0.2022


--------------------------------------------------------------------------------------------------------


  
 reached required accuracy - stopping structural energy minimisation
     LOOP+:  cpu time   15.7220: real time   15.8072
    4ORBIT:  cpu time    0.0000: real time    0.0000

volume of typ            1:    20.6 %

volume of typ            2:    19.2 %

volume of typ            3:     9.8 %
 
total charge     
 
# of ion       s       p       d       tot
------------------------------------------
    1        2.084   0.259   0.098   2.441
    2        2.084   0.259   0.098   2.441
    3        2.082   0.250   0.095   2.427
    4        2.082   0.250   0.095   2.427
    5        2.083   0.250   0.094   2.426
    6        2.083   0.250   0.094   2.426
    7        2.082   0.254   0.095   2.430
    8        2.082   0.254   0.095   2.430
    9        2.083   0.259   0.097   2.439
   10        2.083   0.259   0.097   2.439
   11        2.079   0.241   0.090   2.410
   12        2.079   0.241   0.090   2.410
   13        2.084   0.261   0.098   2.444
   14        2.084   0.261   0.098   2.444
   15        0.263   0.342   7.876   8.482
   16        0.274   0.366   7.881   8.520
   17        0.274   0.366   7.881   8.520
   18        0.273   0.371   7.863   8.507
   19        0.273   0.371   7.863   8.507
   20        0.264   0.343   7.873   8.480
   21        0.263   0.341   7.893   8.498
   22        0.263   0.340   7.894   8.497
   23        0.264   0.346   7.877   8.487
   24        0.272   0.364   7.882   8.519
   25        0.272   0.364   7.882   8.519
   26        0.272   0.368   7.866   8.506
   27        0.272   0.368   7.866   8.506
   28        0.264   0.342   7.895   8.501
   29        0.264   0.343   7.874   8.481
   30        0.263   0.345   7.865   8.473
   31        1.254   2.799   0.006   4.059
   32        1.254   2.799   0.006   4.059
   33        1.254   2.800   0.006   4.060
   34        1.254   2.800   0.006   4.060
   35        1.255   2.799   0.006   4.060
   36        1.255   2.799   0.006   4.060
   37        1.260   2.788   0.007   4.054
   38        1.260   2.788   0.007   4.054
   39        1.254   2.800   0.006   4.060
   40        1.254   2.800   0.006   4.060
   41        1.260   2.786   0.007   4.053
   42        1.260   2.786   0.007   4.053
   43        1.254   2.799   0.006   4.060
   44        1.254   2.799   0.006   4.060
   45        1.254   2.799   0.006   4.059
   46        1.254   2.799   0.006   4.059
   47        1.262   2.781   0.006   4.049
   48        1.262   2.781   0.006   4.049
   49        1.263   2.779   0.006   4.048
   50        1.263   2.779   0.006   4.048
   51        1.256   2.795   0.006   4.057
   52        1.256   2.795   0.006   4.057
   53        1.255   2.798   0.006   4.059
   54        1.255   2.798   0.006   4.059
   55        1.256   2.795   0.006   4.057
   56        1.256   2.795   0.006   4.057
   57        1.255   2.797   0.006   4.058
   58        1.255   2.797   0.006   4.058
   59        1.262   2.778   0.006   4.046
   60        1.262   2.778   0.006   4.046
   61        1.262   2.781   0.006   4.049
   62        1.262   2.781   0.006   4.049
--------------------------------------------------
tot          73.68   98.57  127.56  299.81
 
magnetization (x)
 
# of ion       s       p       d       tot
------------------------------------------
    1       -0.001   0.000  -0.000  -0.001
    2       -0.001   0.000  -0.000  -0.001
    3        0.002   0.007   0.000   0.010
    4        0.002   0.007   0.000   0.010
    5        0.001   0.005  -0.001   0.005
    6        0.001   0.005  -0.001   0.005
    7        0.002   0.008   0.001   0.011
    8        0.002   0.008   0.001   0.011
    9        0.001   0.005  -0.001   0.006
   10        0.001   0.005  -0.001   0.006
   11        0.003   0.009   0.000   0.012
   12        0.003   0.009   0.000   0.012
   13       -0.001   0.001  -0.000  -0.001
   14       -0.001   0.001  -0.000  -0.001
   15       -0.005  -0.000  -0.580  -0.584
   16        0.005  -0.000   0.507   0.513
   17        0.005  -0.000   0.507   0.513
   18        0.001  -0.000   0.142   0.143
   19        0.001  -0.000   0.142   0.143
   20       -0.005  -0.000  -0.604  -0.609
   21        0.005  -0.001   0.632   0.636
   22        0.005  -0.001   0.630   0.634
   23        0.004  -0.001   0.676   0.680
   24        0.004  -0.000   0.508   0.512
   25        0.004  -0.000   0.508   0.512
   26        0.000  -0.001   0.287   0.287
   27        0.000  -0.001   0.287   0.287
   28        0.005  -0.000   0.607   0.611
   29       -0.005  -0.001  -0.528  -0.533
   30        0.002  -0.000   0.617   0.619
   31        0.007   0.087   0.000   0.094
   32        0.007   0.087   0.000   0.094
   33        0.006   0.087   0.000   0.093
   34        0.006   0.087   0.000   0.093
   35        0.006   0.059   0.000   0.065
   36        0.006   0.059   0.000   0.065
   37        0.005   0.036   0.000   0.041
   38        0.005   0.036   0.000   0.041
   39        0.004   0.044   0.000   0.048
   40        0.004   0.044   0.000   0.048
   41       -0.000  -0.003   0.000  -0.004
   42       -0.000  -0.003   0.000  -0.004
   43        0.005   0.081   0.000   0.087
   44        0.005   0.081   0.000   0.087
   45        0.006   0.089   0.000   0.095
   46        0.006   0.089   0.000   0.095
   47       -0.005  -0.083  -0.000  -0.088
   48       -0.005  -0.083  -0.000  -0.088
   49       -0.005  -0.076  -0.000  -0.080
   50       -0.005  -0.076  -0.000  -0.080
   51        0.007   0.070   0.000   0.078
   52        0.007   0.070   0.000   0.078
   53        0.006   0.034   0.000   0.040
   54        0.006   0.034   0.000   0.040
   55        0.007   0.074   0.000   0.082
   56        0.007   0.074   0.000   0.082
   57        0.005   0.022   0.000   0.027
   58        0.005   0.022   0.000   0.027
   59        0.008   0.083   0.000   0.091
   60        0.008   0.083   0.000   0.091
   61       -0.006  -0.081  -0.000  -0.086
   62       -0.006  -0.081  -0.000  -0.086
--------------------------------------------------
tot           0.16    1.11    4.34    5.61
 

 total amount of memory used by VASP MPI-rank0   100528. kBytes
=======================================================================

   base      :      30000. kBytes
   nonlr-proj:      24549. kBytes
   fftplans  :       6149. kBytes
   grid      :      35266. kBytes
   one-center:        964. kBytes
   wavefun   :       3600. kBytes
 
  
  
 General timing and accounting informations for this job:
 ========================================================
  
                  Total CPU time used (sec):      902.036
                            User time (sec):      896.065
                          System time (sec):        5.971
                         Elapsed time (sec):      910.129
  
                   Maximum memory used (kb):      155104.
                   Average memory used (kb):           0.
  
                          Minor page faults:        38924
                          Major page faults:           51
                 Voluntary context switches:         1397
