 vasp.5.4.4.18Apr17-6-g9f103f2a35 (build May 12 2020 05:39:39) gamma-only       
  
 MD_VERSION_INFO: Compiled 2020-05-12T12:39:39-UTC in devlin.sd.materialsdesign.
 com:/home/medea2/data/build/wwolf/vasp-gpu5.4.4/13047/x86_64/src/src/build/gam 
 from svn 13047
 
 This VASP executable licensed from Materials Design, Inc.
 
 executed on                        Lin64 date 2023.03.07  03:00:28
 running on   16 total cores
 distrk:  each k-point on   16 cores,    1 groups
 distr:  one band on NCORES_PER_BAND=   1 cores,   16 groups


--------------------------------------------------------------------------------------------------------


 INCAR:
 POTCAR:    PAW_PBE Li_sv 10Sep2004               
 POTCAR:    PAW_PBE Ni 02Aug2007                  
 POTCAR:    PAW_PBE O 08Apr2002                   

 ----------------------------------------------------------------------------- 
|                                                                             |
|           W    W    AA    RRRRR   N    N  II  N    N   GGGG   !!!           |
|           W    W   A  A   R    R  NN   N  II  NN   N  G    G  !!!           |
|           W    W  A    A  R    R  N N  N  II  N N  N  G       !!!           |
|           W WW W  AAAAAA  RRRRR   N  N N  II  N  N N  G  GGG   !            |
|           WW  WW  A    A  R   R   N   NN  II  N   NN  G    G                |
|           W    W  A    A  R    R  N    N  II  N    N   GGGG   !!!           |
|                                                                             |
|      For optimal performance we recommend to set                            |
|        NCORE= 4 - approx SQRT( number of cores)                             |
|      NCORE specifies how many cores store one orbital (NPAR=cpu/NCORE).     |
|      This setting can  greatly improve the performance of VASP for DFT.     |
|      The default,   NCORE=1            might be grossly inefficient         |
|      on modern multi-core architectures or massively parallel machines.     |
|      Do your own testing !!!!                                               |
|      Unfortunately you need to use the default for GW and RPA calculations. |
|      (for HF NCORE is supported but not extensively tested yet)             |
|                                                                             |
 ----------------------------------------------------------------------------- 

 POTCAR:    PAW_PBE Li_sv 10Sep2004               
  local pseudopotential read in
  atomic valenz-charges read in
  non local Contribution for L=           0  read in
    real space projection operators read in
  non local Contribution for L=           0  read in
    real space projection operators read in
  non local Contribution for L=           1  read in
    real space projection operators read in
    PAW grid and wavefunctions read in
 
   number of l-projection  operators is LMAX  =           3
   number of lm-projection operators is LMMAX =           5
 
 POTCAR:    PAW_PBE Ni 02Aug2007                  
  local pseudopotential read in
  partial core-charges read in
  partial kinetic energy density read in
  atomic valenz-charges read in
  non local Contribution for L=           2  read in
    real space projection operators read in
  non local Contribution for L=           2  read in
    real space projection operators read in
  non local Contribution for L=           0  read in
    real space projection operators read in
  non local Contribution for L=           0  read in
    real space projection operators read in
  non local Contribution for L=           1  read in
    real space projection operators read in
  non local Contribution for L=           1  read in
    real space projection operators read in
    PAW grid and wavefunctions read in
 
   number of l-projection  operators is LMAX  =           6
   number of lm-projection operators is LMMAX =          18
 
 POTCAR:    PAW_PBE O 08Apr2002                   
  local pseudopotential read in
  partial core-charges read in
  partial kinetic energy density read in
  kinetic energy density of atom read in
  atomic valenz-charges read in
  non local Contribution for L=           0  read in
    real space projection operators read in
  non local Contribution for L=           0  read in
    real space projection operators read in
  non local Contribution for L=           1  read in
    real space projection operators read in
  non local Contribution for L=           1  read in
    real space projection operators read in
    PAW grid and wavefunctions read in
 
   number of l-projection  operators is LMAX  =           4
   number of lm-projection operators is LMMAX =           8
 
 Optimization of the real space projectors (new method)

 maximal supplied QI-value         = 22.11
 optimisation between [QCUT,QGAM] = [ 11.28, 22.77] = [ 35.61,145.23] Ry 
 Optimized for a Real-space Cutoff    1.10 Angstroem

   l    n(q)    QCUT    max X(q) W(low)/X(q) W(high)/X(q)  e(spline) 
   0      7    11.276    10.506    0.54E-04    0.58E-04    0.16E-07
   0      7    11.276     8.367    0.11E-03    0.14E-03    0.35E-07
   1      7    11.276     8.983    0.23E-03    0.43E-03    0.86E-07
 Optimization of the real space projectors (new method)

 maximal supplied QI-value         = 16.25
 optimisation between [QCUT,QGAM] = [ 11.38, 22.75] = [ 36.24,144.96] Ry 
 Optimized for a Real-space Cutoff    1.47 Angstroem

   l    n(q)    QCUT    max X(q) W(low)/X(q) W(high)/X(q)  e(spline) 
   2      9    11.376    60.317    0.17E-03    0.16E-04    0.16E-06
   2      9    11.376    55.921    0.17E-03    0.16E-04    0.17E-06
   0     10    11.376    51.690    0.45E-04    0.60E-04    0.21E-06
   0     10    11.376    30.015    0.37E-04    0.55E-04    0.19E-06
   1     10    11.376    18.849    0.83E-04    0.11E-03    0.92E-07
   1     10    11.376    14.624    0.69E-04    0.92E-04    0.82E-07
 Optimization of the real space projectors (new method)

 maximal supplied QI-value         = 24.76
 optimisation between [QCUT,QGAM] = [ 11.39, 22.77] = [ 36.31,145.25] Ry 
 Optimized for a Real-space Cutoff    1.10 Angstroem

   l    n(q)    QCUT    max X(q) W(low)/X(q) W(high)/X(q)  e(spline) 
   0      7    11.387    20.381    0.22E-03    0.48E-03    0.18E-06
   0      7    11.387    15.268    0.22E-03    0.52E-03    0.19E-06
   1      7    11.387     5.964    0.22E-03    0.73E-03    0.24E-06
   1      7    11.387     5.382    0.19E-03    0.60E-03    0.21E-06

 ----------------------------------------------------------------------------- 
|                                                                             |
|  ADVICE TO THIS USER RUNNING 'VASP/VAMP'   (HEAR YOUR MASTER'S VOICE ...):  |
|                                                                             |
|      You enforced a specific xc-type in the INCAR file,                     |
|      a different type was found on the POTCAR file                          |
|          I HOPE YOU KNOW, WHAT YOU ARE  DOING                               |
|                                                                             |
 ----------------------------------------------------------------------------- 

  PAW_PBE Li_sv 10Sep2004               :
 energy of atom  1       EATOM= -202.7858
 kinetic energy error for atom=    0.0143 (will be added to EATOM!!)
  PAW_PBE Ni 02Aug2007                  :
 energy of atom  2       EATOM=-1077.6739
 kinetic energy error for atom=    0.0030 (will be added to EATOM!!)
  PAW_PBE O 08Apr2002                   :
 energy of atom  3       EATOM= -432.3788
 kinetic energy error for atom=    0.0224 (will be added to EATOM!!)
 
 
 POSCAR: ce1370_1                                
  positions in direct lattice
  No initial velocities read in
 exchange correlation table for  LEXCH =       14
   RHO(1)=    0.500       N(1)  =     2000
   RHO(2)=  100.500       N(2)  =     4000
 


--------------------------------------------------------------------------------------------------------


 ion  position               nearest neighbor table
   1  0.994  0.250  0.249-  43 2.08  29 2.11  38 2.11  50 2.12  47 2.16  35 2.16
   2  0.994  0.750  0.751-  44 2.08  30 2.11  37 2.11  49 2.12  48 2.16  36 2.16
   3  0.276  0.249  0.515-  51 2.02  39 2.03  41 2.12  47 2.17  27 2.20  18 2.78  20 2.81
   4  0.276  0.751  0.485-  52 2.02  40 2.03  42 2.12  48 2.17  28 2.20  18 2.78  21 2.81
   5  0.508  0.250  0.251-  41 2.09  55 2.10  50 2.11  38 2.12  47 2.15  35 2.16
   6  0.508  0.750  0.749-  42 2.09  56 2.10  49 2.11  37 2.12  48 2.15  36 2.16
   7  0.950  0.250  0.751-  34 2.00  54 2.00  45 2.13  27 2.15  14 2.77  23 2.79
   8  0.950  0.750  0.249-  33 2.00  53 2.00  46 2.13  28 2.15  15 2.77  22 2.79
   9  0.276  0.250  0.984-  31 2.01  57 2.02  55 2.12  45 2.19  35 2.19  26 2.78  13 2.80
  10  0.276  0.750  0.016-  32 2.01  58 2.02  56 2.12  46 2.19  36 2.19  26 2.78  12 2.80
  11  0.001  0.000  0.000-  37 1.87  38 1.87  35 1.88  36 1.88  45 2.02  46 2.02  16 2.77  16 2.79
                            13 2.84  12 2.84  15 2.85  14 2.85
  12  0.251  0.000  0.250-  41 1.84  46 1.84  29 1.84  58 1.85  52 2.02  35 2.07  15 2.78  15 2.78
                            10 2.80  11 2.84  18 2.85  16 2.85  17 2.86
  13  0.251  1.000  0.750-  42 1.84  45 1.84  30 1.84  57 1.85  51 2.02  36 2.07  14 2.78  14 2.78
                             9 2.80  11 2.84  18 2.85  16 2.85  17 2.86
  14  0.750  0.999  0.750-  30 1.86  57 1.86  42 1.87  45 1.87  54 1.93  37 1.94   7 2.77  13 2.78
                            13 2.78  16 2.84  17 2.84  18 2.85  11 2.85
  15  0.750  0.001  0.250-  29 1.86  58 1.86  41 1.87  46 1.87  53 1.93  38 1.94   8 2.77  12 2.78
                            12 2.78  16 2.84  17 2.84  18 2.85  11 2.85
  16  0.503  0.000  0.000-  37 1.87  38 1.87  35 1.88  36 1.88  57 1.92  58 1.92  11 2.77  11 2.79
                            15 2.84  14 2.84  13 2.85  12 2.85
  17  0.998  0.000  0.500-  53 1.85  54 1.85  51 1.85  52 1.85  29 2.04  30 2.04  18 2.77  18 2.79
                            15 2.84  14 2.84  13 2.86  12 2.86
  18  0.500  0.000  0.500-  53 1.86  54 1.86  51 1.86  52 1.86  41 2.04  42 2.04  17 2.77   4 2.78
                             3 2.78  17 2.79  12 2.85  13 2.85  14 2.85  15 2.85
  19  0.000  0.500  0.500-  49 1.87  50 1.87  47 1.88  48 1.88  27 2.02  28 2.02  24 2.77  24 2.79
                            21 2.84  20 2.84  23 2.85  22 2.85
  20  0.250  0.500  0.749-  39 1.84  27 1.84  44 1.84  56 1.85  31 2.03  48 2.08  23 2.78  23 2.78
                             3 2.81  19 2.84  24 2.85  26 2.85  25 2.86
  21  0.250  0.500  0.251-  40 1.84  28 1.84  43 1.84  55 1.85  32 2.03  47 2.08  22 2.78  22 2.78
                             4 2.81  19 2.84  24 2.85  26 2.85  25 2.86
  22  0.750  0.499  0.250-  43 1.86  40 1.86  55 1.87  28 1.87  33 1.92  50 1.93  21 2.78  21 2.78
                             8 2.79  24 2.84  25 2.84  26 2.85  19 2.85
  23  0.750  0.501  0.750-  44 1.86  39 1.86  56 1.87  27 1.87  34 1.92  49 1.93  20 2.78  20 2.78
                             7 2.79  24 2.84  25 2.84  26 2.85  19 2.85
  24  0.502  0.500  0.500-  49 1.88  50 1.88  47 1.88  48 1.88  39 1.93  40 1.93  19 2.77  19 2.79
                            23 2.84  22 2.84  21 2.85  20 2.85
  25  0.998  0.500  0.000-  33 1.84  34 1.84  31 1.85  32 1.85  43 2.05  44 2.05  26 2.77  26 2.79
                            23 2.84  22 2.84  21 2.86  20 2.86
  26  0.500  0.500  0.000-  33 1.86  34 1.86  31 1.86  32 1.86  55 2.05  56 2.05  25 2.77  10 2.78
                             9 2.78  25 2.79  22 2.85  23 2.85  20 2.85  21 2.85
  27  0.003  0.397  0.641-  20 1.84  23 1.87  19 2.02   7 2.15   3 2.20
  28  0.003  0.603  0.359-  21 1.84  22 1.87  19 2.02   8 2.15   4 2.20
  29  0.002  0.105  0.358-  12 1.84  15 1.86  17 2.04   1 2.11
  30  0.002  0.895  0.642-  13 1.84  14 1.86  17 2.04   2 2.11
  31  0.247  0.397  0.891-  25 1.85  26 1.86   9 2.01  20 2.03
  32  0.247  0.603  0.109-  25 1.85  26 1.86  10 2.01  21 2.03
  33  0.751  0.597  0.115-  25 1.84  26 1.86  22 1.92   8 2.00
  34  0.751  0.403  0.885-  25 1.84  26 1.86  23 1.92   7 2.00
  35  0.252  0.110  0.109-  16 1.88  11 1.88  12 2.07   5 2.16   1 2.16   9 2.19
  36  0.252  0.890  0.891-  16 1.88  11 1.88  13 2.07   6 2.16   2 2.16  10 2.19
  37  0.752  0.898  0.884-  16 1.87  11 1.87  14 1.94   2 2.11   6 2.12
  38  0.752  0.102  0.116-  16 1.87  11 1.87  15 1.94   1 2.11   5 2.12
  39  0.498  0.403  0.636-  20 1.84  23 1.86  24 1.93   3 2.03
  40  0.498  0.597  0.364-  21 1.84  22 1.86  24 1.93   4 2.03
  41  0.497  0.106  0.359-  12 1.84  15 1.87  18 2.04   5 2.09   3 2.12
  42  0.497  0.894  0.641-  13 1.84  14 1.87  18 2.04   6 2.09   4 2.12
  43  0.003  0.394  0.143-  21 1.84  22 1.86  25 2.05   1 2.08
  44  0.003  0.606  0.857-  20 1.84  23 1.86  25 2.05   2 2.08
  45  0.003  0.104  0.859-  13 1.84  14 1.87  11 2.02   7 2.13   9 2.19
  46  0.003  0.896  0.141-  12 1.84  15 1.87  11 2.02   8 2.13  10 2.19
  47  0.251  0.389  0.392-  24 1.88  19 1.88  21 2.08   5 2.15   1 2.16   3 2.17
  48  0.251  0.611  0.608-  24 1.88  19 1.88  20 2.08   6 2.15   2 2.16   4 2.17
  49  0.751  0.602  0.617-  19 1.87  24 1.88  23 1.93   6 2.11   2 2.12
  50  0.751  0.398  0.383-  19 1.87  24 1.88  22 1.93   5 2.11   1 2.12
  51  0.247  0.103  0.609-  17 1.85  18 1.86   3 2.02  13 2.02
  52  0.247  0.897  0.391-  17 1.85  18 1.86   4 2.02  12 2.02
  53  0.750  0.902  0.385-  17 1.85  18 1.86  15 1.93   8 2.00
  54  0.750  0.098  0.615-  17 1.85  18 1.86  14 1.93   7 2.00
  55  0.497  0.394  0.142-  21 1.85  22 1.87  26 2.05   5 2.10   9 2.12
  56  0.497  0.606  0.858-  20 1.85  23 1.87  26 2.05   6 2.10  10 2.12
  57  0.499  0.097  0.865-  13 1.85  14 1.86  16 1.92   9 2.02
  58  0.499  0.903  0.135-  12 1.85  15 1.86  16 1.92  10 2.02
 
  LATTYP: Found a simple monoclinic cell.
 ALAT       =    11.5101268780
 B/A-ratio  =     0.4832396767
 C/A-ratio  =     1.6761791958
 COS(beta)  =    -0.9043519568
  
  Lattice vectors:
  
 A1 = (  -6.3577642529,   0.0000000000,  -9.5948868910)
 A2 = (   0.0000000000,  -5.5621499916,   0.0000000000)
 A3 = (   2.7735387047,   0.0000000000,  19.0926344656)


Analysis of symmetry for initial positions (statically):
=====================================================================
 Subroutine PRICEL returns:
 Original cell was already a primitive cell.
 

 Routine SETGRP: Setting up the symmetry group for a 
 simple monoclinic supercell.


 Subroutine GETGRP returns: Found  2 space group operations
 (whereof  2 operations were pure point group operations)
 out of a pool of  4 trial point group operations.


The static configuration has the point symmetry C_2 .


Analysis of symmetry for dynamics (positions and initial velocities):
=====================================================================
 Subroutine PRICEL returns:
 Original cell was already a primitive cell.
 

 Routine SETGRP: Setting up the symmetry group for a 
 simple monoclinic supercell.


 Subroutine GETGRP returns: Found  2 space group operations
 (whereof  2 operations were pure point group operations)
 out of a pool of  4 trial point group operations.


The dynamic configuration has the point symmetry C_2 .


Analysis of structural, dynamic, and magnetic symmetry:
=====================================================================
 Subroutine PRICEL returns:
 Original cell was already a primitive cell.
 

 Routine SETGRP: Setting up the symmetry group for a 
 simple monoclinic supercell.


 Subroutine GETGRP returns: Found  2 space group operations
 (whereof  2 operations were pure point group operations)
 out of a pool of  4 trial point group operations.


The magnetic configuration has the point symmetry C_2 .


 Subroutine INISYM returns: Found  2 space group operations
 (whereof  2 operations are pure point group operations),
 and found     1 'primitive' translations

 
 
 KPOINTS: Automatic mesh                          

Automatic generation of k-mesh.
Space group operators:
 irot       det(A)        alpha          n_x          n_y          n_z        tau_x        tau_y        tau_z
    1     1.000000     0.000000     1.000000     0.000000     0.000000     0.000000     0.000000     0.000000
    2     1.000000   180.000000     0.000000     1.000000     0.000000     0.000000     0.000000     0.000000
 
 Subroutine IBZKPT returns following result:
 ===========================================
 
 Found      1 irreducible k-points:
 
 Following reciprocal coordinates:
            Coordinates               Weight
  0.000000  0.000000  0.000000      1.000000
 
 Following cartesian coordinates:
            Coordinates               Weight
  0.000000  0.000000  0.000000      1.000000
 


--------------------------------------------------------------------------------------------------------




 Dimension of arrays:
   k-points           NKPTS =      1   k-points in BZ     NKDIM =      1   number of bands    NBANDS=    256
   number of dos      NEDOS =    301   number of ions     NIONS =     58
   non local maximal  LDIM  =      6   non local SUM 2l+1 LMDIM =     18
   total plane-waves  NPLWV = 268800
   max r-space proj   IRMAX =   6895   max aug-charges    IRDMAX=  16726
   dimension x,y,z NGX =    42 NGY =   80 NGZ =   80
   dimension x,y,z NGXF=    84 NGYF=  160 NGZF=  160
   support grid    NGXF=    84 NGYF=  160 NGZF=  160
   ions per type =              10  16  32
   NGX,Y,Z   is equivalent  to a cutoff of  12.55, 13.10, 13.38 a.u.
   NGXF,Y,Z  is equivalent  to a cutoff of  25.11, 26.20, 26.75 a.u.

 SYSTEM =  unknown system                          
 POSCAR =  ce1370_1                                

 Startparameter for this run:
   NWRITE =      1    write-flag & timer
   PREC   = accura    normal or accurate (medium, high low for compatibility)
   ISTART =      0    job   : 0-new  1-cont  2-samecut
   ICHARG =      2    charge: 1-file 2-atom 10-const
   ISPIN  =      2    spin polarized calculation?
   LNONCOLLINEAR =      F non collinear calculations
   LSORBIT =      F    spin-orbit coupling
   INIWAV =      1    electr: 0-lowe 1-rand  2-diag
   LASPH  =      F    aspherical Exc in radial PAW
   METAGGA=      F    non-selfconsistent MetaGGA calc.

 Electronic Relaxation 1
   ENCUT  =  500.0 eV  36.75 Ry    6.06 a.u.  10.14 18.51 18.13*2*pi/ulx,y,z
   ENINI  =  500.0     initial cutoff
   ENAUG  =  628.9 eV  augmentation charge cutoff
   NELM   =     80;   NELMIN=  2; NELMDL= -5     # of ELM steps 
   EDIFF  = 0.1E-04   stopping-criterion for ELM
   LREAL  =      T    real-space projection
   NLSPLINE    = F    spline interpolate recip. space projectors
   LCOMPAT=      F    compatible to vasp.4.4
   GGA_COMPAT  = T    GGA compatible to vasp.4.4-vasp.4.6
   LMAXPAW     = -100 max onsite density
   LMAXMIX     =    2 max onsite mixed and CHGCAR
   VOSKOWN=      1    Vosko Wilk Nusair interpolation
   ROPT   =   -0.00025  -0.00025  -0.00025
 Ionic relaxation
   EDIFFG = -.2E-01   stopping-criterion for IOM
   NSW    =     20    number of steps for IOM
   NBLOCK =      1;   KBLOCK =     20    inner block; outer block 
   IBRION =      1    ionic relax: 0-MD 1-quasi-New 2-CG
   NFREE  =      0    steps in history (QN), initial steepest desc. (CG)
   ISIF   =      3    stress and relaxation
   IWAVPR =     11    prediction:  0-non 1-charg 2-wave 3-comb
   ISYM   =      2    0-nonsym 1-usesym 2-fastsym
   LCORR  =      T    Harris-Foulkes like correction to forces

   POTIM  = 0.5000    time-step for ionic-motion
   TEIN   =    0.0    initial temperature
   TEBEG  =    0.0;   TEEND  =   0.0 temperature during run
   SMASS  =  -3.00    Nose mass-parameter (am)
   estimated Nose-frequenzy (Omega)   =  0.10E-29 period in steps =****** mass=  -0.707E-27a.u.
   SCALEE = 1.0000    scale energy and forces
   NPACO  =    256;   APACO  = 16.0  distance and # of slots for P.C.
   PSTRESS=    0.0 pullay stress

  Mass of Ions in am
   POMASS =   7.01 58.69 16.00
  Ionic Valenz
   ZVAL   =   3.00 10.00  6.00
  Atomic Wigner-Seitz radii
   RWIGS  =   1.23  1.15  0.73
  virtual crystal weights 
   VCA    =   1.00  1.00  1.00
   NELECT =     382.0000    total number of electrons
   NUPDOWN=      -1.0000    fix difference up-down

 DOS related values:
   EMIN   =  10.00;   EMAX   =-10.00  energy-range for DOS
   EFERMI =   0.00
   ISMEAR =     0;   SIGMA  =   0.05  broadening in eV -4-tet -1-fermi 0-gaus

 Electronic relaxation 2 (details)
   IALGO  =     38    algorithm
   LDIAG  =      T    sub-space diagonalisation (order eigenvalues)
   LSUBROT=      F    optimize rotation matrix (better conditioning)
   TURBO    =      0    0=normal 1=particle mesh
   IRESTART =      0    0=no restart 2=restart with 2 vectors
   NREBOOT  =      0    no. of reboots
   NMIN     =      0    reboot dimension
   EREF     =   0.00    reference energy to select bands
   IMIX   =      4    mixing-type and parameters
     AMIX     =   0.40;   BMIX     =  1.00
     AMIX_MAG =   1.60;   BMIX_MAG =  1.00
     AMIN     =   0.10
     WC   =   100.;   INIMIX=   1;  MIXPRE=   1;  MAXMIX= -45

 Intra band minimization:
   WEIMIN = 0.0010     energy-eigenvalue tresh-hold
   EBREAK =  0.98E-08  absolut break condition
   DEPER  =   0.30     relativ break condition  

   TIME   =   0.40     timestep for ELM

  volume/ion in A,a.u.               =       9.09        61.33
  Fermi-wavevector in a.u.,A,eV,Ry     =   1.470452  2.778752 29.418925  2.162230
  Thomas-Fermi vector in A             =   2.585707
 
 Write flags
   LWAVE        =      F    write WAVECAR
   LDOWNSAMPLE  =      F    k-point downsampling of WAVECAR
   LCHARG       =      T    write CHGCAR
   LVTOT        =      F    write LOCPOT, total local potential
   LVHAR        =      F    write LOCPOT, Hartree potential only
   LELF         =      F    write electronic localiz. function (ELF)
   LORBIT       =      0    0 simple, 1 ext, 2 COOP (PROOUT), +10 PAW based schemes


 Dipole corrections
   LMONO  =      F    monopole corrections only (constant potential shift)
   LDIPOL =      F    correct potential (dipole corrections)
   IDIPOL =      0    1-x, 2-y, 3-z, 4-all directions 
   EPSILON=  1.0000000 bulk dielectric constant

 Exchange correlation treatment:
   GGA     =    PS    GGA type
   LEXCH   =    14    internal setting for exchange type
   VOSKOWN=      1    Vosko Wilk Nusair interpolation
   LHFCALC =     F    Hartree Fock is set to
   LHFONE  =     F    Hartree Fock one center treatment
   AEXX    =    0.0000 exact exchange contribution

 Linear response parameters
   LEPSILON=     F    determine dielectric tensor
   LRPA    =     F    only Hartree local field effects (RPA)
   LNABLA  =     F    use nabla operator in PAW spheres
   LVEL    =     F    velocity operator in full k-point grid
   LINTERFAST=   F  fast interpolation
   KINTER  =     0    interpolate to denser k-point grid
   CSHIFT  =0.1000    complex shift for real part using Kramers Kronig
   OMEGAMAX=  -1.0    maximum frequency
   DEG_THRESHOLD= 0.2000000E-02 threshold for treating states as degnerate
   RTIME   =   -0.100 relaxation time in fs
  (WPLASMAI=    0.000 imaginary part of plasma frequency in eV, 0.658/RTIME)
   DFIELD  = 0.0000000 0.0000000 0.0000000 field for delta impulse in time
 
 Orbital magnetization related:
   ORBITALMAG=     F  switch on orbital magnetization
   LCHIMAG   =     F  perturbation theory with respect to B field
   DQ        =  0.001000  dq finite difference perturbation B field
   LLRAUG    =     F  two centre corrections for induced B field



--------------------------------------------------------------------------------------------------------


 quasi-Newton-method for relaxation of ions
 charge density and potential will be updated during run
 spin polarized calculation
 Variant of blocked Davidson
 Davidson routine will perform the subspace rotation
 perform sub-space diagonalisation
    after iterative eigenvector-optimisation
 modified Broyden-mixing scheme, WC =      100.0
 initial mixing is a Kerker type mixing with AMIX =  0.4000 and BMIX =      1.0000
 Hartree-type preconditioning will be used
 using additional bands           65
 real space projection scheme for non local part
 use partial core corrections
 calculate Harris-corrections to forces 
   (improved forces if not selfconsistent)
 use gradient corrections 
 use of overlap-Matrix (Vanderbilt PP)
 Gauss-broadening in eV      SIGMA  =   0.05


--------------------------------------------------------------------------------------------------------


  energy-cutoff  :      500.00
  volume of cell :      527.15
      direct lattice vectors                 reciprocal lattice vectors
     0.000000000  5.562149992  0.000000000     0.000000000  0.179786594  0.000000000
    -3.584225548  0.000000000  9.497747575    -0.001024950  0.000000000  0.104901329
     9.941989801  0.000000000  0.097139316     0.100213978  0.000000000  0.037818388

  length of vectors
     5.562149992 10.151545782  9.942464345     0.179786594  0.104906337  0.107112426


 
 k-points in units of 2pi/SCALE and weight: Automatic mesh                          
   0.00000000  0.00000000  0.00000000       1.000
 
 k-points in reciprocal lattice and weights: Automatic mesh                          
   0.00000000  0.00000000  0.00000000       1.000
 
 position of ions in fractional coordinates (direct lattice) 
   0.99429797  0.24998455  0.24897575
   0.99429797  0.75001545  0.75102425
   0.27581916  0.24925824  0.51464994
   0.27581916  0.75074176  0.48535006
   0.50793548  0.25005856  0.25051409
   0.50793548  0.74994144  0.74948591
   0.94959541  0.24965231  0.75084304
   0.94959541  0.75034769  0.24915696
   0.27618082  0.25013768  0.98428508
   0.27618082  0.74986232  0.01571492
   0.00102338  0.00000000  0.00000000
   0.25065624  0.00034660  0.24986733
   0.25065624  0.99965340  0.75013267
   0.75008943  0.99922183  0.74976947
   0.75008943  0.00077817  0.25023053
   0.50281269  0.00000000  0.00000000
   0.99765737  0.00000000  0.50000000
   0.49971190  0.00000000  0.50000000
   0.00009736  0.50000000  0.50000000
   0.25033521  0.50036115  0.74944620
   0.25033521  0.49963885  0.25055380
   0.74972713  0.49862557  0.24958210
   0.74972713  0.50137443  0.75041790
   0.50170610  0.50000000  0.50000000
   0.99806961  0.50000000  0.00000000
   0.50019052  0.50000000  0.00000000
   0.00253019  0.39666937  0.64073934
   0.00253019  0.60333063  0.35926066
   0.00235278  0.10485817  0.35778298
   0.00235278  0.89514183  0.64221702
   0.24729288  0.39667567  0.89095617
   0.24729288  0.60332433  0.10904383
   0.75071025  0.59716193  0.11539303
   0.75071025  0.40283807  0.88460697
   0.25239825  0.10981178  0.10891362
   0.25239825  0.89018822  0.89108638
   0.75176802  0.89755261  0.88365344
   0.75176802  0.10244739  0.11634656
   0.49812276  0.40261886  0.63570344
   0.49812276  0.59738114  0.36429656
   0.49685871  0.10596174  0.35879848
   0.49685871  0.89403826  0.64120152
   0.00273569  0.39439568  0.14255697
   0.00273569  0.60560432  0.85744303
   0.00322933  0.10404812  0.85904576
   0.00322933  0.89595188  0.14095424
   0.25092635  0.38884419  0.39159896
   0.25092635  0.61115581  0.60840104
   0.75124068  0.60222187  0.61695080
   0.75124068  0.39777813  0.38304920
   0.24665505  0.10320665  0.60932627
   0.24665505  0.89679335  0.39067373
   0.75019711  0.90237888  0.38498697
   0.75019711  0.09762112  0.61501303
   0.49682426  0.39371420  0.14153600
   0.49682426  0.60628580  0.85846400
   0.49919796  0.09723711  0.86452893
   0.49919796  0.90276289  0.13547107
 
 position of ions in cartesian coordinates  (Angst):
   1.57931336  5.53043445  2.39847549
   4.77845090  5.53043445  7.19641140
   4.22324670  1.53414754  2.41738459
   2.13451755  1.53414754  7.17750230
   1.59434225  2.82521333  2.39932785
   4.76342200  2.82521333  7.19555904
   6.57006366  5.28179210  2.44407100
  -0.21229941  5.28179210  7.15081589
   8.88920236  1.53615915  2.47135732
  -2.53143811  1.53615915  7.12352957
   0.00000000  0.00569219  0.00000000
   2.48293615  1.39418760  0.02756386
   3.87482810  1.39418760  9.56732303
   3.87276401  4.17210992  9.56318881
   2.48500024  4.17210992  0.03169808
   0.00000000  2.79671960  0.00000000
   4.97099490  5.54911993  0.04856966
   4.97099490  2.77947254  0.04856966
   3.17888213  0.00054153  4.79744345
   5.65757926  1.39240199  4.82510459
   0.70018499  1.39240199  4.76978230
   0.69415619  4.17009475  4.76006403
   5.66360807  4.17009475  4.83482286
   3.17888213  2.79056458  4.79744345
  -1.79211277  5.55141287  4.74887379
  -1.79211277  2.78213470  4.74887379
   4.94847149  0.01407330  3.82970653
   1.40929276  0.01407330  5.76518036
   3.18123941  0.01308652  1.03067122
   3.17652485  0.01308652  8.56421567
   7.43610208  1.37548009  3.85407226
  -1.07833783  1.37548009  5.74081464
  -0.99312672  4.17556301  5.68290247
   7.35089097  4.17556301  3.91198442
   0.68922791  1.40387692  1.05354436
   5.66853634  1.40387692  8.54134253
   5.56824249  4.18144649  8.61056562
   0.78952176  4.18144649  0.98432128
   4.87708031  2.77063351  3.88572410
   1.48068394  2.77063351  5.70916279
   3.18738005  2.76360267  1.04125130
   3.17038420  2.76360267  8.55363559
   0.00369687  0.01521632  3.75971850
   6.35406738  0.01521632  5.83516839
   8.16769225  0.01796202  1.07166990
  -1.80992800  0.01796202  8.52321699
   2.49956759  1.39569000  3.73118362
   3.85819667  1.39569000  5.86370327
   3.97521955  4.17851334  5.77968148
   2.38254470  4.17851334  3.81520541
   5.68799965  1.37193238  1.03942025
   0.66976460  1.37193238  8.55546664
   0.59320709  4.17270885  8.60796419
   5.76455716  4.17270885  0.98692270
  -0.00401103  2.76341105  3.75314680
   6.36177528  2.76341105  5.84174009
   8.24661807  2.77661393  1.00751327
  -1.88885382  2.77661393  8.58737362
 


--------------------------------------------------------------------------------------------------------


 use serial FFT for orbitals x direction half grid
 k-point  1 :   0.0000 0.0000 0.0000  plane waves:    6690

 maximum and minimum number of plane-waves per node :      6690     6690

 maximum number of plane-waves:      6690
 maximum index in each direction: 
   IXMAX=   10   IYMAX=   18   IZMAX=   18
   IXMIN=    0   IYMIN=  -18   IZMIN=  -18

 The following grids will avoid any aliasing or wrap around errors in the Hartre
 e energy
  - symmetry arguments have not been applied
  - exchange correlation energies might require even more grid points
  - we recommend to set PREC=Normal or Accurate and rely on VASP defaults
 NGX is ok and might be reduce to    42
 NGY is ok and might be reduce to    80
 NGZ is ok and might be reduce to    80

 serial   3D FFT for wavefunctions
 parallel 3D FFT for charge:
    minimum data exchange during FFTs selected (reduces bandwidth)


 total amount of memory used by VASP MPI-rank0   100113. kBytes
=======================================================================

   base      :      30000. kBytes
   nonlr-proj:      24208. kBytes
   fftplans  :       6149. kBytes
   grid      :      35266. kBytes
   one-center:        902. kBytes
   wavefun   :       3588. kBytes
 
     INWAV:  cpu time    0.0000: real time    0.0000
 Broyden mixing: mesh for mixing (old mesh)
   NGX = 21   NGY = 37   NGZ = 37
  (NGX  = 84   NGY  =160   NGZ  =160)
  gives a total of  28749 points

 initial charge density was supplied:
 charge density of overlapping atoms calculated
 number of electron     382.0000000 magnetization      40.0000000
 keeping initial charge density in first step


--------------------------------------------------------------------------------------------------------


 Maximum index for non-local projection operator         6661
 Maximum index for augmentation-charges         1574 (set IRDMAX)


--------------------------------------------------------------------------------------------------------


 First call to EWALD:  gamma=   0.219
 Maximum number of real-space cells 4x 2x 2
 Maximum number of reciprocal cells 2x 3x 3

    FEWALD:  cpu time    0.0036: real time    0.0036


--------------------------------------- Iteration      1(   1)  ---------------------------------------


    POTLOK:  cpu time    0.1553: real time    0.1580
    SETDIJ:  cpu time    0.0181: real time    0.0181
     EDDAV:  cpu time    1.4533: real time    1.5073
    --------------------------------------------
      LOOP:  cpu time    1.6270: real time    1.6837

 eigenvalue-minimisations  :  1056
 total energy-change (2. order) : 0.6607363E+04  (-0.1699647E+05)
 number of electron     382.0000000 magnetization      40.0000000
 augmentation part      382.0000000 magnetization      40.0000000

 Free energy of the ion-electron system (eV)
  ---------------------------------------------------
  alpha Z        PSCENC =      1183.94327568
  Ewald energy   TEWEN  =    -22674.56287520
  -Hartree energ DENC   =    -11062.34876187
  -exchange      EXHF   =         0.00000000
  -V(xc)+E(xc)   XCENC  =      1556.21070698
  PAW double counting   =     27261.33954750   -28529.28305776
  entropy T*S    EENTRO =        -0.00000000
  eigenvalues    EBANDS =      5848.21819650
  atomic energy  EATOM  =     33023.84575915
  Solvation  Ediel_sol  =         0.00000000
  ---------------------------------------------------
  free energy    TOTEN  =      6607.36279100 eV

  energy without entropy =     6607.36279100  energy(sigma->0) =     6607.36279100


--------------------------------------------------------------------------------------------------------




--------------------------------------- Iteration      1(   2)  ---------------------------------------


     EDDAV:  cpu time    1.4602: real time    1.4636
    --------------------------------------------
      LOOP:  cpu time    1.4601: real time    1.4636

 eigenvalue-minimisations  :  1088
 total energy-change (2. order) :-0.5348652E+04  (-0.4791871E+04)
 number of electron     382.0000000 magnetization      40.0000000
 augmentation part      382.0000000 magnetization      40.0000000

 Free energy of the ion-electron system (eV)
  ---------------------------------------------------
  alpha Z        PSCENC =      1183.94327568
  Ewald energy   TEWEN  =    -22674.56287520
  -Hartree energ DENC   =    -11062.34876187
  -exchange      EXHF   =         0.00000000
  -V(xc)+E(xc)   XCENC  =      1556.21070698
  PAW double counting   =     27261.33954750   -28529.28305776
  entropy T*S    EENTRO =        -0.02710763
  eigenvalues    EBANDS =       499.59360659
  atomic energy  EATOM  =     33023.84575915
  Solvation  Ediel_sol  =         0.00000000
  ---------------------------------------------------
  free energy    TOTEN  =      1258.71109346 eV

  energy without entropy =     1258.73820109  energy(sigma->0) =     1258.72464728


--------------------------------------------------------------------------------------------------------




--------------------------------------- Iteration      1(   3)  ---------------------------------------


     EDDAV:  cpu time    1.5251: real time    1.5288
    --------------------------------------------
      LOOP:  cpu time    1.5252: real time    1.5288

 eigenvalue-minimisations  :  1152
 total energy-change (2. order) :-0.1478186E+04  (-0.1217617E+04)
 number of electron     382.0000000 magnetization      40.0000000
 augmentation part      382.0000000 magnetization      40.0000000

 Free energy of the ion-electron system (eV)
  ---------------------------------------------------
  alpha Z        PSCENC =      1183.94327568
  Ewald energy   TEWEN  =    -22674.56287520
  -Hartree energ DENC   =    -11062.34876187
  -exchange      EXHF   =         0.00000000
  -V(xc)+E(xc)   XCENC  =      1556.21070698
  PAW double counting   =     27261.33954750   -28529.28305776
  entropy T*S    EENTRO =        -0.07239122
  eigenvalues    EBANDS =      -978.54734560
  atomic energy  EATOM  =     33023.84575915
  Solvation  Ediel_sol  =         0.00000000
  ---------------------------------------------------
  free energy    TOTEN  =      -219.47514232 eV

  energy without entropy =     -219.40275110  energy(sigma->0) =     -219.43894671


--------------------------------------------------------------------------------------------------------




--------------------------------------- Iteration      1(   4)  ---------------------------------------


     EDDAV:  cpu time    1.6450: real time    1.6489
    --------------------------------------------
      LOOP:  cpu time    1.6450: real time    1.6489

 eigenvalue-minimisations  :  1264
 total energy-change (2. order) :-0.2321555E+03  (-0.2248735E+03)
 number of electron     382.0000000 magnetization      40.0000000
 augmentation part      382.0000000 magnetization      40.0000000

 Free energy of the ion-electron system (eV)
  ---------------------------------------------------
  alpha Z        PSCENC =      1183.94327568
  Ewald energy   TEWEN  =    -22674.56287520
  -Hartree energ DENC   =    -11062.34876187
  -exchange      EXHF   =         0.00000000
  -V(xc)+E(xc)   XCENC  =      1556.21070698
  PAW double counting   =     27261.33954750   -28529.28305776
  entropy T*S    EENTRO =        -0.17493888
  eigenvalues    EBANDS =     -1210.60024993
  atomic energy  EATOM  =     33023.84575915
  Solvation  Ediel_sol  =         0.00000000
  ---------------------------------------------------
  free energy    TOTEN  =      -451.63059431 eV

  energy without entropy =     -451.45565543  energy(sigma->0) =     -451.54312487


--------------------------------------------------------------------------------------------------------




--------------------------------------- Iteration      1(   5)  ---------------------------------------


     EDDAV:  cpu time    2.0829: real time    2.0879
    CHARGE:  cpu time    0.1210: real time    0.1213
    MIXING:  cpu time    0.0028: real time    0.0028
    --------------------------------------------
      LOOP:  cpu time    2.2064: real time    2.2117

 eigenvalue-minimisations  :  1696
 total energy-change (2. order) :-0.1152531E+02  (-0.1142457E+02)
 number of electron     381.9999810 magnetization      39.4602286
 augmentation part      114.7147161 magnetization      30.3054076

 Broyden mixing:
  rms(total) = 0.11201E+02    rms(broyden)= 0.11200E+02
  rms(prec ) = 0.13709E+02
  weight for this iteration     100.00

 Free energy of the ion-electron system (eV)
  ---------------------------------------------------
  alpha Z        PSCENC =      1183.94327568
  Ewald energy   TEWEN  =    -22674.56287520
  -Hartree energ DENC   =    -11062.34876187
  -exchange      EXHF   =         0.00000000
  -V(xc)+E(xc)   XCENC  =      1556.21070698
  PAW double counting   =     27261.33954750   -28529.28305776
  entropy T*S    EENTRO =        -0.16765669
  eigenvalues    EBANDS =     -1222.13284181
  atomic energy  EATOM  =     33023.84575915
  Solvation  Ediel_sol  =         0.00000000
  ---------------------------------------------------
  free energy    TOTEN  =      -463.15590399 eV

  energy without entropy =     -462.98824731  energy(sigma->0) =     -463.07207565


--------------------------------------------------------------------------------------------------------




--------------------------------------- Iteration      1(   6)  ---------------------------------------


    POTLOK:  cpu time    0.1269: real time    0.1272
    SETDIJ:  cpu time    0.0186: real time    0.0187
     EDDAV:  cpu time    1.8579: real time    1.8623
    CHARGE:  cpu time    0.1202: real time    0.1205
    MIXING:  cpu time    0.0029: real time    0.0029
    --------------------------------------------
      LOOP:  cpu time    2.1266: real time    2.1316

 eigenvalue-minimisations  :  1472
 total energy-change (2. order) :-0.3304985E+02  (-0.1069425E+03)
 number of electron     381.9999834 magnetization      34.1952561
 augmentation part      144.4885668 magnetization      32.8133106

 Broyden mixing:
  rms(total) = 0.19596E+02    rms(broyden)= 0.19595E+02
  rms(prec ) = 0.21559E+02
  weight for this iteration     100.00

 eigenvalues of (default mixing * dielectric matrix)
  average eigenvalue GAMMA=   0.2230
  0.2230

 Free energy of the ion-electron system (eV)
  ---------------------------------------------------
  alpha Z        PSCENC =      1183.94327568
  Ewald energy   TEWEN  =    -22674.56287520
  -Hartree energ DENC   =    -10571.35999826
  -exchange      EXHF   =         0.00000000
  -V(xc)+E(xc)   XCENC  =      1563.66799904
  PAW double counting   =     30054.36632957   -31155.06851541
  entropy T*S    EENTRO =        -0.04854288
  eigenvalues    EBANDS =     -1920.98918225
  atomic energy  EATOM  =     33023.84575915
  Solvation  Ediel_sol  =         0.00000000
  ---------------------------------------------------
  free energy    TOTEN  =      -496.20575056 eV

  energy without entropy =     -496.15720768  energy(sigma->0) =     -496.18147912


--------------------------------------------------------------------------------------------------------




--------------------------------------- Iteration      1(   7)  ---------------------------------------


    POTLOK:  cpu time    0.1263: real time    0.1266
    SETDIJ:  cpu time    0.0184: real time    0.0185
     EDDAV:  cpu time    1.7552: real time    1.7594
    CHARGE:  cpu time    0.1165: real time    0.1168
    MIXING:  cpu time    0.0029: real time    0.0029
    --------------------------------------------
      LOOP:  cpu time    2.0193: real time    2.0241

 eigenvalue-minimisations  :  1376
 total energy-change (2. order) : 0.1211545E+03  (-0.2903588E+02)
 number of electron     381.9999824 magnetization      25.5439868
 augmentation part      133.0042651 magnetization      24.5761813

 Broyden mixing:
  rms(total) = 0.68988E+01    rms(broyden)= 0.68981E+01
  rms(prec ) = 0.80314E+01
  weight for this iteration     100.00

 eigenvalues of (default mixing * dielectric matrix)
  average eigenvalue GAMMA=   0.5416
  0.5416  0.5416

 Free energy of the ion-electron system (eV)
  ---------------------------------------------------
  alpha Z        PSCENC =      1183.94327568
  Ewald energy   TEWEN  =    -22674.56287520
  -Hartree energ DENC   =    -10758.11943236
  -exchange      EXHF   =         0.00000000
  -V(xc)+E(xc)   XCENC  =      1555.45299754
  PAW double counting   =     31254.47813901   -32470.24329134
  entropy T*S    EENTRO =        -0.04999428
  eigenvalues    EBANDS =     -1489.79582803
  atomic energy  EATOM  =     33023.84575915
  Solvation  Ediel_sol  =         0.00000000
  ---------------------------------------------------
  free energy    TOTEN  =      -375.05124982 eV

  energy without entropy =     -375.00125554  energy(sigma->0) =     -375.02625268


--------------------------------------------------------------------------------------------------------




--------------------------------------- Iteration      1(   8)  ---------------------------------------


    POTLOK:  cpu time    0.1259: real time    0.1262
    SETDIJ:  cpu time    0.0186: real time    0.0186
     EDDAV:  cpu time    1.8522: real time    1.8566
    CHARGE:  cpu time    0.1181: real time    0.1184
    MIXING:  cpu time    0.0029: real time    0.0030
    --------------------------------------------
      LOOP:  cpu time    2.1177: real time    2.1227

 eigenvalue-minimisations  :  1472
 total energy-change (2. order) : 0.1317566E+01  (-0.1436392E+02)
 number of electron     381.9999811 magnetization      21.9106193
 augmentation part      125.1615521 magnetization      19.3226091

 Broyden mixing:
  rms(total) = 0.79738E+01    rms(broyden)= 0.79730E+01
  rms(prec ) = 0.10318E+02
  weight for this iteration     100.00

 eigenvalues of (default mixing * dielectric matrix)
  average eigenvalue GAMMA=   0.4805
  0.6047  0.6047  0.2322

 Free energy of the ion-electron system (eV)
  ---------------------------------------------------
  alpha Z        PSCENC =      1183.94327568
  Ewald energy   TEWEN  =    -22674.56287520
  -Hartree energ DENC   =    -10792.55206282
  -exchange      EXHF   =         0.00000000
  -V(xc)+E(xc)   XCENC  =      1547.34298876
  PAW double counting   =     32495.38985776   -33775.73974444
  entropy T*S    EENTRO =        -0.05786141
  eigenvalues    EBANDS =     -1381.34302165
  atomic energy  EATOM  =     33023.84575915
  Solvation  Ediel_sol  =         0.00000000
  ---------------------------------------------------
  free energy    TOTEN  =      -373.73368417 eV

  energy without entropy =     -373.67582276  energy(sigma->0) =     -373.70475346


--------------------------------------------------------------------------------------------------------




--------------------------------------- Iteration      1(   9)  ---------------------------------------


    POTLOK:  cpu time    0.1261: real time    0.1264
    SETDIJ:  cpu time    0.0187: real time    0.0187
     EDDAV:  cpu time    1.7867: real time    1.7909
    CHARGE:  cpu time    0.1171: real time    0.1174
    MIXING:  cpu time    0.0031: real time    0.0031
    --------------------------------------------
      LOOP:  cpu time    2.0517: real time    2.0565

 eigenvalue-minimisations  :  1408
 total energy-change (2. order) : 0.3669448E+01  (-0.1989332E+02)
 number of electron     381.9999811 magnetization      16.2071356
 augmentation part      125.4142908 magnetization      14.5270991

 Broyden mixing:
  rms(total) = 0.57669E+01    rms(broyden)= 0.57661E+01
  rms(prec ) = 0.73280E+01
  weight for this iteration     100.00

 eigenvalues of (default mixing * dielectric matrix)
  average eigenvalue GAMMA=   0.4909
  0.7120  0.7120  0.3728  0.1669

 Free energy of the ion-electron system (eV)
  ---------------------------------------------------
  alpha Z        PSCENC =      1183.94327568
  Ewald energy   TEWEN  =    -22674.56287520
  -Hartree energ DENC   =    -10777.32593332
  -exchange      EXHF   =         0.00000000
  -V(xc)+E(xc)   XCENC  =      1545.34472383
  PAW double counting   =     33132.51540957   -34426.93279595
  entropy T*S    EENTRO =        -0.03831240
  eigenvalues    EBANDS =     -1376.85348721
  atomic energy  EATOM  =     33023.84575915
  Solvation  Ediel_sol  =         0.00000000
  ---------------------------------------------------
  free energy    TOTEN  =      -370.06423585 eV

  energy without entropy =     -370.02592345  energy(sigma->0) =     -370.04507965


--------------------------------------------------------------------------------------------------------




--------------------------------------- Iteration      1(  10)  ---------------------------------------


    POTLOK:  cpu time    0.1256: real time    0.1259
    SETDIJ:  cpu time    0.0186: real time    0.0186
     EDDAV:  cpu time    1.8189: real time    1.8232
    CHARGE:  cpu time    0.1174: real time    0.1177
    MIXING:  cpu time    0.0033: real time    0.0033
    --------------------------------------------
      LOOP:  cpu time    2.0837: real time    2.0887

 eigenvalue-minimisations  :  1440
 total energy-change (2. order) : 0.1350454E+02  (-0.5510006E+01)
 number of electron     381.9999811 magnetization      13.7210941
 augmentation part      127.0728689 magnetization      11.8455575

 Broyden mixing:
  rms(total) = 0.29216E+01    rms(broyden)= 0.29210E+01
  rms(prec ) = 0.38370E+01
  weight for this iteration     100.00

 eigenvalues of (default mixing * dielectric matrix)
  average eigenvalue GAMMA=   0.5461
  1.1358  0.6287  0.4054  0.4054  0.1554

 Free energy of the ion-electron system (eV)
  ---------------------------------------------------
  alpha Z        PSCENC =      1183.94327568
  Ewald energy   TEWEN  =    -22674.56287520
  -Hartree energ DENC   =    -10745.88374538
  -exchange      EXHF   =         0.00000000
  -V(xc)+E(xc)   XCENC  =      1543.60744418
  PAW double counting   =     34031.62037048   -35336.25541280
  entropy T*S    EENTRO =        -0.02357300
  eigenvalues    EBANDS =     -1382.85094209
  atomic energy  EATOM  =     33023.84575915
  Solvation  Ediel_sol  =         0.00000000
  ---------------------------------------------------
  free energy    TOTEN  =      -356.55969897 eV

  energy without entropy =     -356.53612597  energy(sigma->0) =     -356.54791247


--------------------------------------------------------------------------------------------------------




--------------------------------------- Iteration      1(  11)  ---------------------------------------


    POTLOK:  cpu time    0.1263: real time    0.1266
    SETDIJ:  cpu time    0.0187: real time    0.0187
     EDDAV:  cpu time    1.7456: real time    1.7497
    CHARGE:  cpu time    0.1179: real time    0.1182
    MIXING:  cpu time    0.0034: real time    0.0034
    --------------------------------------------
      LOOP:  cpu time    2.0118: real time    2.0166

 eigenvalue-minimisations  :  1360
 total energy-change (2. order) :-0.4373670E+01  (-0.4131517E+01)
 number of electron     381.9999809 magnetization       9.0937022
 augmentation part      126.1591278 magnetization       8.3133585

 Broyden mixing:
  rms(total) = 0.41537E+01    rms(broyden)= 0.41529E+01
  rms(prec ) = 0.55726E+01
  weight for this iteration     100.00

 eigenvalues of (default mixing * dielectric matrix)
  average eigenvalue GAMMA=   0.5548
  1.3770  0.7655  0.4396  0.4396  0.1633  0.1439

 Free energy of the ion-electron system (eV)
  ---------------------------------------------------
  alpha Z        PSCENC =      1183.94327568
  Ewald energy   TEWEN  =    -22674.56287520
  -Hartree energ DENC   =    -10759.92116170
  -exchange      EXHF   =         0.00000000
  -V(xc)+E(xc)   XCENC  =      1543.88253996
  PAW double counting   =     34404.77545155   -35717.77805188
  entropy T*S    EENTRO =        -0.01746765
  eigenvalues    EBANDS =     -1365.10083873
  atomic energy  EATOM  =     33023.84575915
  Solvation  Ediel_sol  =         0.00000000
  ---------------------------------------------------
  free energy    TOTEN  =      -360.93336882 eV

  energy without entropy =     -360.91590117  energy(sigma->0) =     -360.92463500


--------------------------------------------------------------------------------------------------------




--------------------------------------- Iteration      1(  12)  ---------------------------------------


    POTLOK:  cpu time    0.1262: real time    0.1265
    SETDIJ:  cpu time    0.0188: real time    0.0189
     EDDAV:  cpu time    1.7413: real time    1.7455
    CHARGE:  cpu time    0.1170: real time    0.1173
    MIXING:  cpu time    0.0034: real time    0.0034
    --------------------------------------------
      LOOP:  cpu time    2.0068: real time    2.0116

 eigenvalue-minimisations  :  1360
 total energy-change (2. order) : 0.4685330E+01  (-0.1555783E+01)
 number of electron     381.9999809 magnetization       7.8427928
 augmentation part      126.7177641 magnetization       6.2932991

 Broyden mixing:
  rms(total) = 0.21922E+01    rms(broyden)= 0.21912E+01
  rms(prec ) = 0.29126E+01
  weight for this iteration     100.00

 eigenvalues of (default mixing * dielectric matrix)
  average eigenvalue GAMMA=   0.5347
  1.4357  0.7585  0.4543  0.4543  0.3380  0.1612  0.1409

 Free energy of the ion-electron system (eV)
  ---------------------------------------------------
  alpha Z        PSCENC =      1183.94327568
  Ewald energy   TEWEN  =    -22674.56287520
  -Hartree energ DENC   =    -10765.23217024
  -exchange      EXHF   =         0.00000000
  -V(xc)+E(xc)   XCENC  =      1544.17567304
  PAW double counting   =     34983.00689825   -36302.98092158
  entropy T*S    EENTRO =        -0.03049177
  eigenvalues    EBANDS =     -1348.41318644
  atomic energy  EATOM  =     33023.84575915
  Solvation  Ediel_sol  =         0.00000000
  ---------------------------------------------------
  free energy    TOTEN  =      -356.24803910 eV

  energy without entropy =     -356.21754733  energy(sigma->0) =     -356.23279322


--------------------------------------------------------------------------------------------------------




--------------------------------------- Iteration      1(  13)  ---------------------------------------


    POTLOK:  cpu time    0.1255: real time    0.1258
    SETDIJ:  cpu time    0.0185: real time    0.0185
     EDDAV:  cpu time    1.7742: real time    1.7784
    CHARGE:  cpu time    0.1201: real time    0.1204
    MIXING:  cpu time    0.0037: real time    0.0037
    --------------------------------------------
      LOOP:  cpu time    2.0421: real time    2.0469

 eigenvalue-minimisations  :  1392
 total energy-change (2. order) : 0.1581218E+00  (-0.1399755E+01)
 number of electron     381.9999810 magnetization       6.1133936
 augmentation part      126.8474281 magnetization       4.3967684

 Broyden mixing:
  rms(total) = 0.22163E+01    rms(broyden)= 0.22154E+01
  rms(prec ) = 0.29211E+01
  weight for this iteration     100.00

 eigenvalues of (default mixing * dielectric matrix)
  average eigenvalue GAMMA=   0.5395
  1.6795  0.6721  0.6721  0.4276  0.4276  0.1673  0.1431  0.1267

 Free energy of the ion-electron system (eV)
  ---------------------------------------------------
  alpha Z        PSCENC =      1183.94327568
  Ewald energy   TEWEN  =    -22674.56287520
  -Hartree energ DENC   =    -10765.37095676
  -exchange      EXHF   =         0.00000000
  -V(xc)+E(xc)   XCENC  =      1544.23333909
  PAW double counting   =     35157.42668915   -36478.20578606
  entropy T*S    EENTRO =        -0.00887609
  eigenvalues    EBANDS =     -1347.39048629
  atomic energy  EATOM  =     33023.84575915
  Solvation  Ediel_sol  =         0.00000000
  ---------------------------------------------------
  free energy    TOTEN  =      -356.08991732 eV

  energy without entropy =     -356.08104123  energy(sigma->0) =     -356.08547928


--------------------------------------------------------------------------------------------------------




--------------------------------------- Iteration      1(  14)  ---------------------------------------


    POTLOK:  cpu time    0.1260: real time    0.1263
    SETDIJ:  cpu time    0.0188: real time    0.0188
     EDDAV:  cpu time    1.7784: real time    1.7826
    CHARGE:  cpu time    0.1201: real time    0.1204
    MIXING:  cpu time    0.0037: real time    0.0037
    --------------------------------------------
      LOOP:  cpu time    2.0470: real time    2.0518

 eigenvalue-minimisations  :  1392
 total energy-change (2. order) : 0.1236646E+01  (-0.5813094E+00)
 number of electron     381.9999809 magnetization       5.4195921
 augmentation part      126.6406368 magnetization       3.9245422

 Broyden mixing:
  rms(total) = 0.13985E+01    rms(broyden)= 0.13977E+01
  rms(prec ) = 0.18436E+01
  weight for this iteration     100.00

 eigenvalues of (default mixing * dielectric matrix)
  average eigenvalue GAMMA=   0.5187
  1.7461  0.6998  0.6998  0.4246  0.4246  0.2601  0.1518  0.1518  0.1098

 Free energy of the ion-electron system (eV)
  ---------------------------------------------------
  alpha Z        PSCENC =      1183.94327568
  Ewald energy   TEWEN  =    -22674.56287520
  -Hartree energ DENC   =    -10772.04086022
  -exchange      EXHF   =         0.00000000
  -V(xc)+E(xc)   XCENC  =      1544.42577998
  PAW double counting   =     35453.21708506   -36778.97096788
  entropy T*S    EENTRO =        -0.05877858
  eigenvalues    EBANDS =     -1334.65168937
  atomic energy  EATOM  =     33023.84575915
  Solvation  Ediel_sol  =         0.00000000
  ---------------------------------------------------
  free energy    TOTEN  =      -354.85327138 eV

  energy without entropy =     -354.79449280  energy(sigma->0) =     -354.82388209


--------------------------------------------------------------------------------------------------------




--------------------------------------- Iteration      1(  15)  ---------------------------------------


    POTLOK:  cpu time    0.1257: real time    0.1260
    SETDIJ:  cpu time    0.0188: real time    0.0188
     EDDAV:  cpu time    1.6931: real time    1.6971
    CHARGE:  cpu time    0.1208: real time    0.1211
    MIXING:  cpu time    0.0040: real time    0.0041
    --------------------------------------------
      LOOP:  cpu time    1.9623: real time    1.9670

 eigenvalue-minimisations  :  1312
 total energy-change (2. order) :-0.3266811E-01  (-0.4974685E+00)
 number of electron     381.9999808 magnetization       4.8025376
 augmentation part      126.6048119 magnetization       3.4410864

 Broyden mixing:
  rms(total) = 0.14565E+01    rms(broyden)= 0.14561E+01
  rms(prec ) = 0.18303E+01
  weight for this iteration     100.00

 eigenvalues of (default mixing * dielectric matrix)
  average eigenvalue GAMMA=   0.5104
  1.7705  0.7188  0.7188  0.4552  0.4552  0.4254  0.1622  0.1622  0.1320  0.1034

 Free energy of the ion-electron system (eV)
  ---------------------------------------------------
  alpha Z        PSCENC =      1183.94327568
  Ewald energy   TEWEN  =    -22674.56287520
  -Hartree energ DENC   =    -10772.49861861
  -exchange      EXHF   =         0.00000000
  -V(xc)+E(xc)   XCENC  =      1544.41668054
  PAW double counting   =     35583.67559848   -36910.68658134
  entropy T*S    EENTRO =        -0.03816033
  eigenvalues    EBANDS =     -1332.98101786
  atomic energy  EATOM  =     33023.84575915
  Solvation  Ediel_sol  =         0.00000000
  ---------------------------------------------------
  free energy    TOTEN  =      -354.88593949 eV

  energy without entropy =     -354.84777916  energy(sigma->0) =     -354.86685932


--------------------------------------------------------------------------------------------------------




--------------------------------------- Iteration      1(  16)  ---------------------------------------


    POTLOK:  cpu time    0.1256: real time    0.1259
    SETDIJ:  cpu time    0.0189: real time    0.0189
     EDDAV:  cpu time    1.7954: real time    1.7998
    CHARGE:  cpu time    0.1203: real time    0.1205
    MIXING:  cpu time    0.0042: real time    0.0042
    --------------------------------------------
      LOOP:  cpu time    2.0644: real time    2.0694

 eigenvalue-minimisations  :  1408
 total energy-change (2. order) : 0.3582232E+00  (-0.1352445E+00)
 number of electron     381.9999809 magnetization       4.4315665
 augmentation part      126.7487506 magnetization       3.0114429

 Broyden mixing:
  rms(total) = 0.84171E+00    rms(broyden)= 0.84143E+00
  rms(prec ) = 0.10117E+01
  weight for this iteration     100.00

 eigenvalues of (default mixing * dielectric matrix)
  average eigenvalue GAMMA=   0.5429
  1.9040  0.8470  0.8470  0.5032  0.5032  0.3989  0.3989  0.1643  0.1643  0.1404
  0.1003

 Free energy of the ion-electron system (eV)
  ---------------------------------------------------
  alpha Z        PSCENC =      1183.94327568
  Ewald energy   TEWEN  =    -22674.56287520
  -Hartree energ DENC   =    -10771.88922917
  -exchange      EXHF   =         0.00000000
  -V(xc)+E(xc)   XCENC  =      1544.40702827
  PAW double counting   =     35695.51391347   -37022.28700924
  entropy T*S    EENTRO =        -0.06331196
  eigenvalues    EBANDS =     -1333.43526726
  atomic energy  EATOM  =     33023.84575915
  Solvation  Ediel_sol  =         0.00000000
  ---------------------------------------------------
  free energy    TOTEN  =      -354.52771626 eV

  energy without entropy =     -354.46440430  energy(sigma->0) =     -354.49606028


--------------------------------------------------------------------------------------------------------




--------------------------------------- Iteration      1(  17)  ---------------------------------------


    POTLOK:  cpu time    0.1259: real time    0.1262
    SETDIJ:  cpu time    0.0187: real time    0.0188
     EDDAV:  cpu time    1.7915: real time    1.7958
    CHARGE:  cpu time    0.1131: real time    0.1134
    MIXING:  cpu time    0.0042: real time    0.0042
    --------------------------------------------
      LOOP:  cpu time    2.0534: real time    2.0583

 eigenvalue-minimisations  :  1408
 total energy-change (2. order) :-0.1471479E+00  (-0.1030363E+00)
 number of electron     381.9999809 magnetization       4.0905695
 augmentation part      126.6585620 magnetization       3.0834554

 Broyden mixing:
  rms(total) = 0.10775E+01    rms(broyden)= 0.10772E+01
  rms(prec ) = 0.13566E+01
  weight for this iteration     100.00

 eigenvalues of (default mixing * dielectric matrix)
  average eigenvalue GAMMA=   0.5298
  1.9002  0.9029  0.9029  0.5297  0.5297  0.4486  0.4486  0.1633  0.1569  0.1569
  0.1212  0.0970

 Free energy of the ion-electron system (eV)
  ---------------------------------------------------
  alpha Z        PSCENC =      1183.94327568
  Ewald energy   TEWEN  =    -22674.56287520
  -Hartree energ DENC   =    -10773.51396367
  -exchange      EXHF   =         0.00000000
  -V(xc)+E(xc)   XCENC  =      1544.43387596
  PAW double counting   =     35783.53758836   -37110.92150105
  entropy T*S    EENTRO =        -0.06774536
  eigenvalues    EBANDS =     -1331.36927804
  atomic energy  EATOM  =     33023.84575915
  Solvation  Ediel_sol  =         0.00000000
  ---------------------------------------------------
  free energy    TOTEN  =      -354.67486417 eV

  energy without entropy =     -354.60711881  energy(sigma->0) =     -354.64099149


--------------------------------------------------------------------------------------------------------




--------------------------------------- Iteration      1(  18)  ---------------------------------------


    POTLOK:  cpu time    0.1222: real time    0.1226
    SETDIJ:  cpu time    0.0175: real time    0.0176
     EDDAV:  cpu time    1.7068: real time    1.7109
    CHARGE:  cpu time    0.1130: real time    0.1133
    MIXING:  cpu time    0.0044: real time    0.0044
    --------------------------------------------
      LOOP:  cpu time    1.9640: real time    1.9687

 eigenvalue-minimisations  :  1376
 total energy-change (2. order) : 0.8841358E-01  (-0.9630291E-01)
 number of electron     381.9999810 magnetization       4.0318576
 augmentation part      126.7333773 magnetization       2.7734031

 Broyden mixing:
  rms(total) = 0.73309E+00    rms(broyden)= 0.73284E+00
  rms(prec ) = 0.87678E+00
  weight for this iteration     100.00

 eigenvalues of (default mixing * dielectric matrix)
  average eigenvalue GAMMA=   0.4929
  1.9036  0.9058  0.9058  0.5303  0.5303  0.4430  0.4430  0.1599  0.1583  0.1583
  0.1131  0.0924  0.0636

 Free energy of the ion-electron system (eV)
  ---------------------------------------------------
  alpha Z        PSCENC =      1183.94327568
  Ewald energy   TEWEN  =    -22674.56287520
  -Hartree energ DENC   =    -10773.48952843
  -exchange      EXHF   =         0.00000000
  -V(xc)+E(xc)   XCENC  =      1544.45747407
  PAW double counting   =     35846.75452154   -37173.56248843
  entropy T*S    EENTRO =        -0.04390160
  eigenvalues    EBANDS =     -1331.92868737
  atomic energy  EATOM  =     33023.84575915
  Solvation  Ediel_sol  =         0.00000000
  ---------------------------------------------------
  free energy    TOTEN  =      -354.58645059 eV

  energy without entropy =     -354.54254898  energy(sigma->0) =     -354.56449978


--------------------------------------------------------------------------------------------------------




--------------------------------------- Iteration      1(  19)  ---------------------------------------


    POTLOK:  cpu time    0.1226: real time    0.1229
    SETDIJ:  cpu time    0.0190: real time    0.0190
     EDDAV:  cpu time    1.7222: real time    1.7262
    CHARGE:  cpu time    0.1165: real time    0.1167
    MIXING:  cpu time    0.0048: real time    0.0048
    --------------------------------------------
      LOOP:  cpu time    1.9850: real time    1.9897

 eigenvalue-minimisations  :  1392
 total energy-change (2. order) : 0.2586025E-01  (-0.2418611E-01)
 number of electron     381.9999809 magnetization       4.0350954
 augmentation part      126.7263231 magnetization       2.7212994

 Broyden mixing:
  rms(total) = 0.68991E+00    rms(broyden)= 0.68984E+00
  rms(prec ) = 0.78578E+00
  weight for this iteration     100.00

 eigenvalues of (default mixing * dielectric matrix)
  average eigenvalue GAMMA=   0.4876
  1.9002  0.9077  0.9077  0.5539  0.5539  0.4510  0.4510  0.2477  0.1788  0.1611
  0.1611  0.1272  0.1272  0.0985

 Free energy of the ion-electron system (eV)
  ---------------------------------------------------
  alpha Z        PSCENC =      1183.94327568
  Ewald energy   TEWEN  =    -22674.56287520
  -Hartree energ DENC   =    -10773.43218461
  -exchange      EXHF   =         0.00000000
  -V(xc)+E(xc)   XCENC  =      1544.46852114
  PAW double counting   =     35861.24690165   -37187.86370922
  entropy T*S    EENTRO =        -0.04063611
  eigenvalues    EBANDS =     -1332.16564282
  atomic energy  EATOM  =     33023.84575915
  Solvation  Ediel_sol  =         0.00000000
  ---------------------------------------------------
  free energy    TOTEN  =      -354.56059033 eV

  energy without entropy =     -354.51995422  energy(sigma->0) =     -354.54027228


--------------------------------------------------------------------------------------------------------




--------------------------------------- Iteration      1(  20)  ---------------------------------------


    POTLOK:  cpu time    0.1233: real time    0.1236
    SETDIJ:  cpu time    0.0174: real time    0.0174
     EDDAV:  cpu time    1.6671: real time    1.6711
    CHARGE:  cpu time    0.1145: real time    0.1148
    MIXING:  cpu time    0.0047: real time    0.0047
    --------------------------------------------
      LOOP:  cpu time    1.9270: real time    1.9316

 eigenvalue-minimisations  :  1344
 total energy-change (2. order) :-0.9185568E-02  (-0.4950485E-02)
 number of electron     381.9999810 magnetization       3.9146753
 augmentation part      126.7200626 magnetization       2.5426591

 Broyden mixing:
  rms(total) = 0.67363E+00    rms(broyden)= 0.67361E+00
  rms(prec ) = 0.74470E+00
  weight for this iteration     100.00

 eigenvalues of (default mixing * dielectric matrix)
  average eigenvalue GAMMA=   0.4836
  1.9276  0.9045  0.9045  0.4397  0.5634  0.5634  0.4423  0.4423  0.2529  0.1651
  0.1651  0.1451  0.1451  0.1012  0.0919

 Free energy of the ion-electron system (eV)
  ---------------------------------------------------
  alpha Z        PSCENC =      1183.94327568
  Ewald energy   TEWEN  =    -22674.56287520
  -Hartree energ DENC   =    -10773.52120264
  -exchange      EXHF   =         0.00000000
  -V(xc)+E(xc)   XCENC  =      1544.48039902
  PAW double counting   =     35865.90504250   -37192.55803664
  entropy T*S    EENTRO =        -0.03804557
  eigenvalues    EBANDS =     -1332.06409220
  atomic energy  EATOM  =     33023.84575915
  Solvation  Ediel_sol  =         0.00000000
  ---------------------------------------------------
  free energy    TOTEN  =      -354.56977590 eV

  energy without entropy =     -354.53173033  energy(sigma->0) =     -354.55075311


--------------------------------------------------------------------------------------------------------




--------------------------------------- Iteration      1(  21)  ---------------------------------------


    POTLOK:  cpu time    0.1231: real time    0.1234
    SETDIJ:  cpu time    0.0173: real time    0.0174
     EDDAV:  cpu time    1.7062: real time    1.7103
    CHARGE:  cpu time    0.1137: real time    0.1140
    MIXING:  cpu time    0.0048: real time    0.0048
    --------------------------------------------
      LOOP:  cpu time    1.9651: real time    1.9698

 eigenvalue-minimisations  :  1376
 total energy-change (2. order) : 0.2266312E-01  (-0.2956179E-02)
 number of electron     381.9999810 magnetization       3.8589656
 augmentation part      126.7225049 magnetization       2.5564930

 Broyden mixing:
  rms(total) = 0.69527E+00    rms(broyden)= 0.69526E+00
  rms(prec ) = 0.76521E+00
  weight for this iteration     100.00

 eigenvalues of (default mixing * dielectric matrix)
  average eigenvalue GAMMA=   0.4821
  1.9233  0.9185  0.9185  0.4153  0.4153  0.5641  0.5641  0.4473  0.4473  0.2821
  0.1679  0.1557  0.1557  0.1397  0.1035  0.0956

 Free energy of the ion-electron system (eV)
  ---------------------------------------------------
  alpha Z        PSCENC =      1183.94327568
  Ewald energy   TEWEN  =    -22674.56287520
  -Hartree energ DENC   =    -10773.70056186
  -exchange      EXHF   =         0.00000000
  -V(xc)+E(xc)   XCENC  =      1544.47871796
  PAW double counting   =     35871.16338982   -37197.83965531
  entropy T*S    EENTRO =        -0.04110112
  eigenvalues    EBANDS =     -1331.83406192
  atomic energy  EATOM  =     33023.84575915
  Solvation  Ediel_sol  =         0.00000000
  ---------------------------------------------------
  free energy    TOTEN  =      -354.54711278 eV

  energy without entropy =     -354.50601166  energy(sigma->0) =     -354.52656222


--------------------------------------------------------------------------------------------------------




--------------------------------------- Iteration      1(  22)  ---------------------------------------


    POTLOK:  cpu time    0.1217: real time    0.1220
    SETDIJ:  cpu time    0.0183: real time    0.0184
     EDDAV:  cpu time    1.8419: real time    1.8463
    CHARGE:  cpu time    0.1140: real time    0.1142
    MIXING:  cpu time    0.0052: real time    0.0052
    --------------------------------------------
      LOOP:  cpu time    2.1011: real time    2.1061

 eigenvalue-minimisations  :  1504
 total energy-change (2. order) : 0.1334161E-01  (-0.8589229E-03)
 number of electron     381.9999809 magnetization       3.6790609
 augmentation part      126.7272438 magnetization       2.4088428

 Broyden mixing:
  rms(total) = 0.67378E+00    rms(broyden)= 0.67378E+00
  rms(prec ) = 0.73999E+00
  weight for this iteration     100.00

 eigenvalues of (default mixing * dielectric matrix)
  average eigenvalue GAMMA=   0.4804
  1.9363  0.9098  0.9098  0.6101  0.5537  0.5537  0.4518  0.4518  0.3786  0.3786
  0.2160  0.1672  0.1560  0.1560  0.1390  0.1036  0.0959

 Free energy of the ion-electron system (eV)
  ---------------------------------------------------
  alpha Z        PSCENC =      1183.94327568
  Ewald energy   TEWEN  =    -22674.56287520
  -Hartree energ DENC   =    -10773.72436027
  -exchange      EXHF   =         0.00000000
  -V(xc)+E(xc)   XCENC  =      1544.47927676
  PAW double counting   =     35872.37821488   -37199.04628280
  entropy T*S    EENTRO =        -0.04187921
  eigenvalues    EBANDS =     -1331.80490017
  atomic energy  EATOM  =     33023.84575915
  Solvation  Ediel_sol  =         0.00000000
  ---------------------------------------------------
  free energy    TOTEN  =      -354.53377118 eV

  energy without entropy =     -354.49189197  energy(sigma->0) =     -354.51283157


--------------------------------------------------------------------------------------------------------




--------------------------------------- Iteration      1(  23)  ---------------------------------------


    POTLOK:  cpu time    0.1217: real time    0.1220
    SETDIJ:  cpu time    0.0182: real time    0.0183
     EDDAV:  cpu time    1.6452: real time    1.6491
    CHARGE:  cpu time    0.1132: real time    0.1134
    MIXING:  cpu time    0.0051: real time    0.0051
    --------------------------------------------
      LOOP:  cpu time    1.9034: real time    1.9079

 eigenvalue-minimisations  :  1312
 total energy-change (2. order) : 0.1480689E-01  (-0.9513765E-03)
 number of electron     381.9999809 magnetization       3.2859232
 augmentation part      126.7199517 magnetization       2.1397213

 Broyden mixing:
  rms(total) = 0.64064E+00    rms(broyden)= 0.64063E+00
  rms(prec ) = 0.71209E+00
  weight for this iteration     100.00

 eigenvalues of (default mixing * dielectric matrix)
  average eigenvalue GAMMA=   0.5198
  1.9452  0.9145  0.8933  0.8933  0.7232  0.7232  0.5439  0.5439  0.4545  0.4545
  0.3132  0.1701  0.1565  0.1565  0.1408  0.1307  0.1036  0.0960

 Free energy of the ion-electron system (eV)
  ---------------------------------------------------
  alpha Z        PSCENC =      1183.94327568
  Ewald energy   TEWEN  =    -22674.56287520
  -Hartree energ DENC   =    -10774.04559026
  -exchange      EXHF   =         0.00000000
  -V(xc)+E(xc)   XCENC  =      1544.48770404
  PAW double counting   =     35877.19840809   -37203.92985981
  entropy T*S    EENTRO =        -0.04551814
  eigenvalues    EBANDS =     -1331.41026785
  atomic energy  EATOM  =     33023.84575915
  Solvation  Ediel_sol  =         0.00000000
  ---------------------------------------------------
  free energy    TOTEN  =      -354.51896429 eV

  energy without entropy =     -354.47344615  energy(sigma->0) =     -354.49620522


--------------------------------------------------------------------------------------------------------




--------------------------------------- Iteration      1(  24)  ---------------------------------------


    POTLOK:  cpu time    0.1224: real time    0.1227
    SETDIJ:  cpu time    0.0174: real time    0.0174
     EDDAV:  cpu time    1.7056: real time    1.7097
    CHARGE:  cpu time    0.1131: real time    0.1133
    MIXING:  cpu time    0.0054: real time    0.0055
    --------------------------------------------
      LOOP:  cpu time    1.9639: real time    1.9686

 eigenvalue-minimisations  :  1376
 total energy-change (2. order) :-0.1158655E-01  (-0.1465883E-01)
 number of electron     381.9999809 magnetization       3.0511348
 augmentation part      126.7237514 magnetization       2.2052222

 Broyden mixing:
  rms(total) = 0.61963E+00    rms(broyden)= 0.61956E+00
  rms(prec ) = 0.71439E+00
  weight for this iteration     100.00

 eigenvalues of (default mixing * dielectric matrix)
  average eigenvalue GAMMA=   0.5212
  1.9731  0.9179  0.8689  0.8689  0.9130  0.9130  0.5463  0.5463  0.4514  0.4514
  0.3628  0.1658  0.1532  0.1532  0.1472  0.1351  0.1351  0.1035  0.0959

 Free energy of the ion-electron system (eV)
  ---------------------------------------------------
  alpha Z        PSCENC =      1183.94327568
  Ewald energy   TEWEN  =    -22674.56287520
  -Hartree energ DENC   =    -10773.91349798
  -exchange      EXHF   =         0.00000000
  -V(xc)+E(xc)   XCENC  =      1544.49242510
  PAW double counting   =     35886.70061050   -37213.37365872
  entropy T*S    EENTRO =        -0.05332477
  eigenvalues    EBANDS =     -1331.60926460
  atomic energy  EATOM  =     33023.84575915
  Solvation  Ediel_sol  =         0.00000000
  ---------------------------------------------------
  free energy    TOTEN  =      -354.53055084 eV

  energy without entropy =     -354.47722607  energy(sigma->0) =     -354.50388845


--------------------------------------------------------------------------------------------------------




--------------------------------------- Iteration      1(  25)  ---------------------------------------


    POTLOK:  cpu time    0.1217: real time    0.1220
    SETDIJ:  cpu time    0.0172: real time    0.0173
     EDDAV:  cpu time    1.7227: real time    1.7268
    CHARGE:  cpu time    0.1130: real time    0.1132
    MIXING:  cpu time    0.0055: real time    0.0055
    --------------------------------------------
      LOOP:  cpu time    1.9801: real time    1.9848

 eigenvalue-minimisations  :  1392
 total energy-change (2. order) :-0.6640627E-01  (-0.1644579E-01)
 number of electron     381.9999809 magnetization       3.1814721
 augmentation part      126.7348152 magnetization       2.4434665

 Broyden mixing:
  rms(total) = 0.56419E+00    rms(broyden)= 0.56412E+00
  rms(prec ) = 0.69209E+00
  weight for this iteration     100.00

 eigenvalues of (default mixing * dielectric matrix)
  average eigenvalue GAMMA=   0.5579
  2.0115  1.2461  1.2461  0.9025  0.9294  0.9294  0.5599  0.5599  0.4398  0.4398
  0.3816  0.3816  0.1735  0.1735  0.1557  0.1557  0.1389  0.1324  0.0959  0.1036

 Free energy of the ion-electron system (eV)
  ---------------------------------------------------
  alpha Z        PSCENC =      1183.94327568
  Ewald energy   TEWEN  =    -22674.56287520
  -Hartree energ DENC   =    -10773.66982233
  -exchange      EXHF   =         0.00000000
  -V(xc)+E(xc)   XCENC  =      1544.53276990
  PAW double counting   =     35920.16470448   -37247.00323056
  entropy T*S    EENTRO =        -0.04825240
  eigenvalues    EBANDS =     -1331.79928584
  atomic energy  EATOM  =     33023.84575915
  Solvation  Ediel_sol  =         0.00000000
  ---------------------------------------------------
  free energy    TOTEN  =      -354.59695711 eV

  energy without entropy =     -354.54870471  energy(sigma->0) =     -354.57283091


--------------------------------------------------------------------------------------------------------




--------------------------------------- Iteration      1(  26)  ---------------------------------------


    POTLOK:  cpu time    0.1218: real time    0.1221
    SETDIJ:  cpu time    0.0175: real time    0.0175
     EDDAV:  cpu time    1.7525: real time    1.7566
    CHARGE:  cpu time    0.1138: real time    0.1140
    MIXING:  cpu time    0.0059: real time    0.0059
    --------------------------------------------
      LOOP:  cpu time    2.0114: real time    2.0162

 eigenvalue-minimisations  :  1424
 total energy-change (2. order) :-0.3727818E-01  (-0.3257692E-01)
 number of electron     381.9999809 magnetization       3.2944577
 augmentation part      126.7494333 magnetization       2.3017090

 Broyden mixing:
  rms(total) = 0.55688E+00    rms(broyden)= 0.55677E+00
  rms(prec ) = 0.68910E+00
  weight for this iteration     100.00

 eigenvalues of (default mixing * dielectric matrix)
  average eigenvalue GAMMA=   0.5899
  2.0668  1.4497  1.4497  0.9146  1.0533  1.0533  0.6157  0.6157  0.4710  0.4710
  0.4556  0.4556  0.2291  0.1703  0.1571  0.1571  0.1429  0.1360  0.0959  0.1036
  0.1244

 Free energy of the ion-electron system (eV)
  ---------------------------------------------------
  alpha Z        PSCENC =      1183.94327568
  Ewald energy   TEWEN  =    -22674.56287520
  -Hartree energ DENC   =    -10773.03966740
  -exchange      EXHF   =         0.00000000
  -V(xc)+E(xc)   XCENC  =      1544.62264122
  PAW double counting   =     35955.64505815   -37282.63999778
  entropy T*S    EENTRO =        -0.04838196
  eigenvalues    EBANDS =     -1332.40004714
  atomic energy  EATOM  =     33023.84575915
  Solvation  Ediel_sol  =         0.00000000
  ---------------------------------------------------
  free energy    TOTEN  =      -354.63423528 eV

  energy without entropy =     -354.58585333  energy(sigma->0) =     -354.61004430


--------------------------------------------------------------------------------------------------------




--------------------------------------- Iteration      1(  27)  ---------------------------------------


    POTLOK:  cpu time    0.1212: real time    0.1215
    SETDIJ:  cpu time    0.0172: real time    0.0173
     EDDAV:  cpu time    1.7821: real time    1.7864
    CHARGE:  cpu time    0.1132: real time    0.1135
    MIXING:  cpu time    0.0061: real time    0.0061
    --------------------------------------------
      LOOP:  cpu time    2.0400: real time    2.0448

 eigenvalue-minimisations  :  1456
 total energy-change (2. order) :-0.3455360E-01  (-0.1946532E-01)
 number of electron     381.9999810 magnetization       3.3088168
 augmentation part      126.7378198 magnetization       1.8670501

 Broyden mixing:
  rms(total) = 0.46437E+00    rms(broyden)= 0.46420E+00
  rms(prec ) = 0.53951E+00
  weight for this iteration     100.00

 eigenvalues of (default mixing * dielectric matrix)
  average eigenvalue GAMMA=   0.5738
[...]
   0.596E+01 0.986E+00 -.876E+01   -.557E+01 -.190E+01 0.832E+01   -.384E+00 0.896E+00 0.437E+00   -.986E-02 -.271E-02 0.280E-03
   -.596E+01 0.986E+00 0.876E+01   0.557E+01 -.190E+01 -.832E+01   0.384E+00 0.896E+00 -.437E+00   0.986E-02 -.271E-02 -.280E-03
   0.851E+01 -.443E+00 -.675E+01   -.917E+01 0.853E+00 0.671E+01   0.656E+00 -.420E+00 0.206E-01   -.395E-02 0.521E-03 0.741E-02
   -.851E+01 -.443E+00 0.675E+01   0.917E+01 0.853E+00 -.671E+01   -.656E+00 -.420E+00 -.206E-01   0.395E-02 0.521E-03 -.741E-02
   0.121E-05 0.241E+02 -.194E-06   -.105E-11 -.241E+02 0.364E-11   0.103E-24 0.456E-02 0.178E-25   0.131E-10 -.160E-01 -.226E-11
   -.253E+02 -.106E+02 0.422E+02   0.260E+02 0.106E+02 -.428E+02   -.722E+00 -.340E-01 0.644E+00   0.596E-01 0.615E-02 0.907E-02
   0.253E+02 -.106E+02 -.422E+02   -.260E+02 0.106E+02 0.428E+02   0.722E+00 -.340E-01 -.644E+00   -.596E-01 0.615E-02 -.907E-02
   0.267E+02 0.128E+02 -.376E+02   -.270E+02 -.130E+02 0.382E+02   0.419E+00 0.161E+00 -.527E+00   -.587E-01 -.633E-02 -.954E-02
   -.267E+02 0.128E+02 0.376E+02   0.270E+02 -.130E+02 -.382E+02   -.419E+00 0.161E+00 0.527E+00   0.587E-01 -.633E-02 0.954E-02
   0.134E-04 -.282E+02 -.215E-05   -.298E-11 0.282E+02 0.212E-11   0.000E+00 -.163E-01 0.242E-25   0.999E-11 0.151E-01 -.167E-11
   -.106E-04 0.272E+02 0.197E-05   0.114E-11 -.273E+02 0.322E-11   0.000E+00 0.107E-01 0.170E-24   -.124E-10 -.946E-02 -.605E-13
   0.401E-05 -.279E+02 -.747E-06   0.169E-11 0.281E+02 0.299E-11   0.258E-25 -.238E+00 0.755E-25   -.534E-11 0.101E-01 -.144E-11
   0.265E-05 0.255E+02 -.406E-06   -.566E-11 -.255E+02 -.864E-11   0.000E+00 0.255E-01 0.808E-26   0.400E-11 -.430E-02 -.181E-11
   -.304E+02 -.115E+02 0.433E+02   0.312E+02 0.115E+02 -.438E+02   -.785E+00 0.149E-02 0.529E+00   -.374E-01 -.966E-02 -.122E-01
   0.304E+02 -.115E+02 -.433E+02   -.312E+02 0.115E+02 0.438E+02   0.785E+00 0.149E-02 -.529E+00   0.374E-01 -.966E-02 0.122E-01
   0.329E+02 0.140E+02 -.399E+02   -.333E+02 -.142E+02 0.404E+02   0.298E+00 0.105E+00 -.483E+00   0.347E-01 0.797E-02 0.118E-01
   -.329E+02 0.140E+02 0.399E+02   0.333E+02 -.142E+02 -.404E+02   -.298E+00 0.105E+00 0.483E+00   -.347E-01 0.797E-02 -.118E-01
   0.686E-05 -.283E+02 -.105E-05   -.765E-11 0.283E+02 -.101E-10   0.339E-25 -.728E-01 0.774E-25   0.405E-11 0.397E-02 -.112E-11
   -.863E-05 0.263E+02 0.168E-05   -.367E-11 -.263E+02 -.875E-11   0.000E+00 0.385E-02 -.323E-26   -.845E-11 -.108E-01 0.594E-11
   0.262E-05 -.288E+02 -.508E-06   -.328E-11 0.290E+02 -.890E-11   0.000E+00 -.201E+00 -.291E-25   -.644E-11 0.132E-01 0.649E-11
   0.140E+02 0.262E+02 0.346E+03   -.182E+02 -.282E+02 -.364E+03   0.420E+01 0.198E+01 0.181E+02   -.266E-01 -.101E-01 0.675E-02
   -.140E+02 0.262E+02 -.346E+03   0.182E+02 -.282E+02 0.364E+03   -.420E+01 0.198E+01 -.181E+02   0.266E-01 -.101E-01 -.675E-02
   -.555E+02 0.243E+02 -.321E+03   0.608E+02 -.257E+02 0.338E+03   -.526E+01 0.146E+01 -.174E+02   0.261E-01 -.128E-01 0.924E-02
   0.555E+02 0.243E+02 0.321E+03   -.608E+02 -.257E+02 -.338E+03   0.526E+01 0.146E+01 0.174E+02   -.261E-01 -.128E-01 -.924E-02
   0.402E+02 -.226E+02 0.331E+03   -.461E+02 0.240E+02 -.348E+03   0.600E+01 -.141E+01 0.170E+02   -.150E-01 -.313E-02 -.118E-01
   -.402E+02 -.226E+02 -.331E+03   0.461E+02 0.240E+02 0.348E+03   -.600E+01 -.141E+01 -.170E+02   0.150E-01 -.313E-02 0.118E-01
   0.315E+01 0.306E+02 -.339E+03   -.328E+01 -.331E+02 0.359E+03   0.101E+00 0.246E+01 -.199E+02   0.228E-01 0.188E-02 0.686E-02
   -.315E+01 0.306E+02 0.339E+03   0.328E+01 -.331E+02 -.359E+03   -.101E+00 0.246E+01 0.199E+02   -.228E-01 0.188E-02 -.686E-02
   -.508E+01 0.672E+01 -.300E+03   0.809E+01 -.694E+01 0.313E+03   -.304E+01 0.213E+00 -.133E+02   0.257E-01 0.373E-02 0.415E-01
   0.508E+01 0.672E+01 0.300E+03   -.809E+01 -.694E+01 -.313E+03   0.304E+01 0.213E+00 0.133E+02   -.257E-01 0.373E-02 -.415E-01
   -.273E+02 -.508E+01 0.311E+03   0.288E+02 0.525E+01 -.327E+03   -.152E+01 -.164E+00 0.166E+02   -.364E-01 -.378E-02 -.343E-01
   0.273E+02 -.508E+01 -.311E+03   -.288E+02 0.525E+01 0.327E+03   0.152E+01 -.164E+00 -.166E+02   0.364E-01 -.378E-02 0.343E-01
   -.233E+02 -.316E+02 0.355E+03   0.233E+02 0.342E+02 -.376E+03   0.490E-01 -.266E+01 0.201E+02   -.163E-01 0.105E-01 0.170E-03
   0.233E+02 -.316E+02 -.355E+03   -.233E+02 0.342E+02 0.376E+03   -.490E-01 -.266E+01 -.201E+02   0.163E-01 0.105E-01 -.170E-03
   -.663E+02 -.285E+02 -.305E+03   0.717E+02 0.304E+02 0.321E+03   -.543E+01 -.195E+01 -.160E+02   0.324E-01 0.130E-01 0.366E-02
   0.663E+02 -.285E+02 0.305E+03   -.717E+02 0.304E+02 -.321E+03   0.543E+01 -.195E+01 0.160E+02   -.324E-01 0.130E-01 -.366E-02
   0.578E+02 0.230E+02 0.320E+03   -.635E+02 -.242E+02 -.337E+03   0.568E+01 0.120E+01 0.174E+02   0.198E-01 -.111E-01 0.114E-01
   -.578E+02 0.230E+02 -.320E+03   0.635E+02 -.242E+02 0.337E+03   -.568E+01 0.120E+01 -.174E+02   -.198E-01 -.111E-01 -.114E-01
   -.313E+02 0.251E+02 -.340E+03   0.372E+02 -.269E+02 0.357E+03   -.580E+01 0.174E+01 -.170E+02   -.369E-01 -.134E-01 0.157E-01
   0.313E+02 0.251E+02 0.340E+03   -.372E+02 -.269E+02 -.357E+03   0.580E+01 0.174E+01 0.170E+02   0.369E-01 -.134E-01 -.157E-01
   0.956E+01 0.506E+01 0.300E+03   -.119E+02 -.536E+01 -.314E+03   0.235E+01 0.309E+00 0.138E+02   0.205E-01 -.118E-01 0.191E-01
   -.956E+01 0.506E+01 -.300E+03   0.119E+02 -.536E+01 0.314E+03   -.235E+01 0.309E+00 -.138E+02   -.205E-01 -.118E-01 -.191E-01
   0.243E+02 -.351E+01 -.313E+03   -.259E+02 0.367E+01 0.328E+03   0.154E+01 -.175E+00 -.153E+02   -.154E-01 0.123E-01 -.242E-01
   -.243E+02 -.351E+01 0.313E+03   0.259E+02 0.367E+01 -.328E+03   -.154E+01 -.175E+00 0.153E+02   0.154E-01 0.123E-01 0.242E-01
   -.322E+02 -.243E+02 -.333E+03   0.377E+02 0.257E+02 0.349E+03   -.548E+01 -.143E+01 -.168E+02   -.224E-01 0.855E-02 -.524E-02
   0.322E+02 -.243E+02 0.333E+03   -.377E+02 0.257E+02 -.349E+03   0.548E+01 -.143E+01 0.168E+02   0.224E-01 0.855E-02 0.524E-02
   -.105E+02 0.322E+02 0.339E+03   0.109E+02 -.347E+02 -.359E+03   -.409E+00 0.253E+01 0.195E+02   0.161E-01 -.885E-02 0.116E-01
   0.105E+02 0.322E+02 -.339E+03   -.109E+02 -.347E+02 0.359E+03   0.409E+00 0.253E+01 -.195E+02   -.161E-01 -.885E-02 -.116E-01
   0.549E+02 -.270E+02 0.309E+03   -.591E+02 0.286E+02 -.326E+03   0.409E+01 -.158E+01 0.168E+02   0.209E-01 0.112E-01 0.685E-02
   -.549E+02 -.270E+02 -.309E+03   0.591E+02 0.286E+02 0.326E+03   -.409E+01 -.158E+01 -.168E+02   -.209E-01 0.112E-01 -.685E-02
   0.183E+02 -.308E+02 -.355E+03   -.181E+02 0.332E+02 0.375E+03   -.179E+00 -.241E+01 -.198E+02   -.383E-01 0.136E-01 0.156E-01
   -.183E+02 -.308E+02 0.355E+03   0.181E+02 0.332E+02 -.375E+03   0.179E+00 -.241E+01 0.198E+02   0.383E-01 0.136E-01 -.156E-01
 -----------------------------------------------------------------------------------------------
   0.950E-05 -.252E+00 -.166E-05   -.959E-13 -.639E-13 0.455E-12   0.000E+00 0.248E+00 0.711E-14   -.127E-10 -.584E-02 0.177E-13
 
 
 POSITION                                       TOTAL-FORCE (eV/Angst)
 -----------------------------------------------------------------------------------
      1.59701      5.52967      2.40967         0.011540      0.003015     -0.000186
      4.77446      5.52967      7.25250        -0.011540      0.003015      0.000186
      4.22966      1.55375      2.42861         0.002044      0.031013     -0.005589
      2.14181      1.55375      7.23355        -0.002044      0.031013      0.005589
      1.60216      2.81619      2.40406        -0.001819      0.001874      0.002493
      4.76931      2.81619      7.25810         0.001819      0.001874     -0.002493
      6.58673      5.24588      2.45090        -0.003617     -0.023566     -0.002658
     -0.21526      5.24588      7.21126         0.003617     -0.023566      0.002658
      8.89094      1.52963      2.47953        -0.009867     -0.008974     -0.007209
     -2.51947      1.52963      7.18264         0.009867     -0.008974      0.007209
     -0.00000      0.00110      0.00000        -0.000000      0.000943      0.000000
      2.49213      1.39031      0.02715        -0.000499     -0.000134      0.003249
      3.87934      1.39031      9.63502         0.000499     -0.000134     -0.003249
      3.88668      4.16143      9.62660        -0.000490     -0.000103     -0.002493
      2.48479      4.16143      0.03556         0.000490     -0.000103      0.002493
     -0.00000      2.78765      0.00000        -0.000000     -0.001561      0.000000
      4.97646      5.53934      0.05234        -0.000000     -0.000928      0.000000
      4.97646      2.77826      0.05234        -0.000000      0.000009      0.000000
      3.18573      0.00222      4.83108        -0.000000     -0.003852      0.000000
      5.66633      1.38864      4.86349         0.002702     -0.001876      0.001140
      0.70514      1.38864      4.79867        -0.002702     -0.001876     -0.001140
      0.69665      4.16035      4.78845        -0.001364      0.000152     -0.001523
      5.67482      4.16035      4.87372         0.001364      0.000152      0.001523
      3.18573      2.78043      4.83108        -0.000000      0.003675      0.000000
     -1.79072      5.54144      4.77874        -0.000000      0.003953      0.000000
     -1.79072      2.77694      4.77874        -0.000000     -0.000395      0.000000
      4.94880      0.01271      3.88058         0.002951     -0.000822      0.003799
      1.42267      0.01271      5.78158        -0.002951     -0.000822     -0.003799
      3.19358      0.01377      1.03747        -0.002359     -0.000368     -0.002997
      3.17789      0.01377      8.62470         0.002359     -0.000368      0.002997
      7.46069      1.37356      3.88657         0.003474      0.001050      0.002057
     -1.08922      1.37356      5.77559        -0.003474      0.001050     -0.002057
     -0.99678      4.16996      5.71550        -0.003659      0.001447     -0.000252
      7.36825      4.16996      3.94666         0.003659      0.001447      0.000252
      0.68102      1.38880      1.04842        -0.004097     -0.000752      0.001392
      5.69045      1.38880      8.61374         0.004097     -0.000752     -0.001392
      5.58061      4.17866      8.68222         0.001958      0.000308     -0.001301
      0.79086      4.17866      0.97994        -0.001958      0.000308      0.001301
      4.88682      2.76337      3.92652         0.002894     -0.000176      0.002970
      1.48465      2.76337      5.73565        -0.002894     -0.000176     -0.002970
      3.14526      2.75797      1.06534        -0.006119      0.000227     -0.000470
      3.22621      2.75797      8.59683         0.006119      0.000227      0.000470
      0.01024      0.01671      3.78784         0.003534      0.000245      0.001343
      6.36123      0.01671      5.87432        -0.003534      0.000245     -0.001343
      8.11875      0.01520      1.10295        -0.002907     -0.000609     -0.002568
     -1.74728      0.01520      8.55922         0.002907     -0.000609      0.002568
      2.52319      1.39110      3.75456         0.001584     -0.000517      0.002815
      3.84828      1.39110      5.90760        -0.001584     -0.000517     -0.002815
      3.97675      4.16813      5.81277        -0.003233     -0.000049     -0.003049
      2.39472      4.16813      3.84939         0.003233     -0.000049      0.003049
      5.68656      1.37889      1.04518        -0.002061     -0.000066     -0.003581
      0.68491      1.37889      8.61698         0.002061     -0.000066      0.003581
      0.59022      4.16028      8.68076         0.002648     -0.000116      0.003454
      5.78125      4.16028      0.98140        -0.002648     -0.000116     -0.003454
     -0.02303      2.75320      3.79864        -0.001195     -0.001616      0.003714
      6.39450      2.75320      5.86352         0.001195     -0.001616     -0.003714
      8.25052      2.76447      1.01959        -0.003619     -0.000508     -0.002312
     -1.87905      2.76447      8.64257         0.003619     -0.000508      0.002312
 -----------------------------------------------------------------------------------
    total drift:                                0.000010     -0.009798     -0.000002


--------------------------------------------------------------------------------------------------------



  FREE ENERGIE OF THE ION-ELECTRON SYSTEM (eV)
  ---------------------------------------------------
  free  energy   TOTEN  =      -354.7695415679 eV

  energy  without entropy=     -354.7518066112  energy(sigma->0) =     -354.76067409
 
 d Force = 0.1478239E-03[ 0.137E-03, 0.159E-03]  d Energy = 0.1455692E-03 0.225E-05
 d Force =-0.5284891E+00[-0.529E+00,-0.528E+00]  d Ewald  =-0.1585386E+01 0.106E+01


--------------------------------------------------------------------------------------------------------


    POTLOK:  cpu time    0.1408: real time    0.1411


--------------------------------------------------------------------------------------------------------


 Quasi-Newton relaxation of ions (Broydens 2nd method)
  g(Force)  = 0.222E-03   g(Stress)= 0.225E-04

 retain information from N=  3 steps
 eigenvalues of (default step * inverse Hessian matrix)
  average eigenvalue of G=   2.0651
 eigenvalue spectrum of G is  1.0988  0.8473  4.2491


--------------------------------------------------------------------------------------------------------


     LOOP+:  cpu time   12.3483: real time   12.4055
    4ORBIT:  cpu time    0.0000: real time    0.0000

volume of typ            1:    14.7 %

volume of typ            2:    19.2 %

volume of typ            3:     9.8 %
 
total charge     
 
# of ion       s       p       d       tot
------------------------------------------
    1        2.074   0.235   0.085   2.394
    2        2.074   0.235   0.085   2.394
    3        2.074   0.229   0.086   2.388
    4        2.074   0.229   0.086   2.388
    5        2.077   0.238   0.087   2.403
    6        2.077   0.238   0.087   2.403
    7        2.075   0.231   0.087   2.393
    8        2.075   0.231   0.087   2.393
    9        2.074   0.230   0.087   2.391
   10        2.074   0.230   0.087   2.391
   11        0.264   0.348   7.873   8.485
   12        0.283   0.387   7.865   8.535
   13        0.283   0.387   7.865   8.535
   14        0.285   0.397   7.842   8.524
   15        0.285   0.397   7.842   8.524
   16        0.279   0.382   7.853   8.514
   17        0.280   0.379   7.861   8.520
   18        0.269   0.357   7.867   8.493
   19        0.268   0.360   7.854   8.481
   20        0.283   0.384   7.868   8.534
   21        0.283   0.384   7.868   8.534
   22        0.284   0.393   7.847   8.524
   23        0.284   0.393   7.847   8.524
   24        0.279   0.385   7.850   8.514
   25        0.282   0.382   7.859   8.523
   26        0.272   0.369   7.847   8.489
   27        1.265   2.771   0.007   4.043
   28        1.265   2.771   0.007   4.043
   29        1.265   2.772   0.007   4.043
   30        1.265   2.772   0.007   4.043
   31        1.264   2.778   0.007   4.048
   32        1.264   2.778   0.007   4.048
   33        1.266   2.774   0.007   4.047
   34        1.266   2.774   0.007   4.047
   35        1.259   2.788   0.006   4.053
   36        1.259   2.788   0.006   4.053
   37        1.261   2.783   0.007   4.051
   38        1.261   2.783   0.007   4.051
   39        1.267   2.772   0.008   4.046
   40        1.267   2.772   0.008   4.046
   41        1.262   2.783   0.006   4.051
   42        1.262   2.783   0.006   4.051
   43        1.265   2.772   0.007   4.044
   44        1.265   2.772   0.007   4.044
   45        1.263   2.779   0.006   4.048
   46        1.263   2.779   0.006   4.048
   47        1.258   2.788   0.006   4.052
   48        1.258   2.788   0.006   4.052
   49        1.265   2.779   0.007   4.050
   50        1.265   2.779   0.007   4.050
   51        1.262   2.780   0.007   4.049
   52        1.262   2.780   0.007   4.049
   53        1.266   2.776   0.008   4.049
   54        1.266   2.776   0.008   4.049
   55        1.263   2.777   0.007   4.047
   56        1.263   2.777   0.007   4.047
   57        1.267   2.772   0.007   4.046
   58        1.267   2.772   0.007   4.046
--------------------------------------------------
tot          65.65   97.29  126.79  289.73
 
magnetization (x)
 
# of ion       s       p       d       tot
------------------------------------------
    1        0.006   0.012   0.001   0.019
    2        0.006   0.012   0.001   0.019
    3       -0.005  -0.007  -0.001  -0.012
    4       -0.005  -0.007  -0.001  -0.012
    5        0.001   0.006  -0.001   0.007
    6        0.001   0.006  -0.001   0.007
    7        0.002   0.006   0.001   0.009
    8        0.002   0.006   0.001   0.009
    9       -0.005  -0.007  -0.001  -0.013
   10       -0.005  -0.007  -0.001  -0.013
   11        0.004  -0.000   0.658   0.661
   12       -0.005  -0.000  -0.590  -0.595
   13       -0.005  -0.000  -0.590  -0.595
   14       -0.001   0.000  -0.173  -0.173
   15       -0.001   0.000  -0.173  -0.173
   16        0.001  -0.000   0.332   0.332
   17        0.005  -0.000   0.520   0.525
   18       -0.003  -0.000  -0.481  -0.484
   19        0.002   0.000   0.540   0.541
   20       -0.006  -0.000  -0.617  -0.623
   21       -0.006  -0.000  -0.617  -0.623
   22       -0.001   0.000  -0.070  -0.071
   23       -0.001   0.000  -0.070  -0.071
   24        0.001  -0.000   0.360   0.360
   25        0.006   0.000   0.598   0.604
   26        0.003   0.000   0.425   0.428
   27        0.003   0.025   0.000   0.028
   28        0.003   0.025   0.000   0.028
   29        0.003   0.039   0.000   0.043
   30        0.003   0.039   0.000   0.043
   31       -0.005  -0.069  -0.000  -0.074
   32       -0.005  -0.069  -0.000  -0.074
   33        0.002   0.022   0.000   0.024
   34        0.002   0.022   0.000   0.024
   35       -0.002  -0.048  -0.000  -0.050
   36       -0.002  -0.048  -0.000  -0.050
   37        0.002   0.011   0.000   0.013
   38        0.002   0.011   0.000   0.013
   39        0.001   0.002   0.000   0.003
   40        0.001   0.002   0.000   0.003
   41       -0.007  -0.078  -0.000  -0.085
   42       -0.007  -0.078  -0.000  -0.085
   43        0.005   0.054   0.000   0.059
   44        0.005   0.054   0.000   0.059
   45        0.005   0.077   0.000   0.082
   46        0.005   0.077   0.000   0.082
   47       -0.002  -0.041  -0.000  -0.043
   48       -0.002  -0.041  -0.000  -0.043
   49        0.006   0.020   0.000   0.026
   50        0.006   0.020   0.000   0.026
   51       -0.006  -0.067  -0.000  -0.073
   52       -0.006  -0.067  -0.000  -0.073
   53       -0.002  -0.007  -0.000  -0.009
   54       -0.002  -0.007  -0.000  -0.009
   55        0.003   0.022   0.000   0.025
   56        0.003   0.022   0.000   0.025
   57        0.000   0.004   0.000   0.004
   58        0.000   0.004   0.000   0.004
--------------------------------------------------
tot           0.00   -0.05    0.05    0.01
 

 total amount of memory used by VASP MPI-rank0   100113. kBytes
=======================================================================

   base      :      30000. kBytes
   nonlr-proj:      24208. kBytes
   fftplans  :       6149. kBytes
   grid      :      35266. kBytes
   one-center:        902. kBytes
   wavefun   :       3588. kBytes
 
  
  
 General timing and accounting informations for this job:
 ========================================================
  
                  Total CPU time used (sec):      717.768
                            User time (sec):      712.556
                          System time (sec):        5.213
                         Elapsed time (sec):      724.647
  
                   Maximum memory used (kb):      151656.
                   Average memory used (kb):           0.
  
                          Minor page faults:        37561
                          Major page faults:           47
                 Voluntary context switches:         1311
