 vasp.5.4.4.18Apr17-6-g9f103f2a35 (build May 12 2020 05:39:39) gamma-only       
  
 MD_VERSION_INFO: Compiled 2020-05-12T12:39:39-UTC in devlin.sd.materialsdesign.
 com:/home/medea2/data/build/wwolf/vasp-gpu5.4.4/13047/x86_64/src/src/build/gam 
 from svn 13047
 
 This VASP executable licensed from Materials Design, Inc.
 
 executed on                        Lin64 date 2023.03.07  03:51:48
 running on   16 total cores
 distrk:  each k-point on   16 cores,    1 groups
 distr:  one band on NCORES_PER_BAND=   1 cores,   16 groups


--------------------------------------------------------------------------------------------------------


 INCAR:
 POTCAR:    PAW_PBE Li_sv 10Sep2004               
 POTCAR:    PAW_PBE Ni 02Aug2007                  
 POTCAR:    PAW_PBE O 08Apr2002                   

 ----------------------------------------------------------------------------- 
|                                                                             |
|           W    W    AA    RRRRR   N    N  II  N    N   GGGG   !!!           |
|           W    W   A  A   R    R  NN   N  II  NN   N  G    G  !!!           |
|           W    W  A    A  R    R  N N  N  II  N N  N  G       !!!           |
|           W WW W  AAAAAA  RRRRR   N  N N  II  N  N N  G  GGG   !            |
|           WW  WW  A    A  R   R   N   NN  II  N   NN  G    G                |
|           W    W  A    A  R    R  N    N  II  N    N   GGGG   !!!           |
|                                                                             |
|      For optimal performance we recommend to set                            |
|        NCORE= 4 - approx SQRT( number of cores)                             |
|      NCORE specifies how many cores store one orbital (NPAR=cpu/NCORE).     |
|      This setting can  greatly improve the performance of VASP for DFT.     |
|      The default,   NCORE=1            might be grossly inefficient         |
|      on modern multi-core architectures or massively parallel machines.     |
|      Do your own testing !!!!                                               |
|      Unfortunately you need to use the default for GW and RPA calculations. |
|      (for HF NCORE is supported but not extensively tested yet)             |
|                                                                             |
 ----------------------------------------------------------------------------- 

 POTCAR:    PAW_PBE Li_sv 10Sep2004               
  local pseudopotential read in
  atomic valenz-charges read in
  non local Contribution for L=           0  read in
    real space projection operators read in
  non local Contribution for L=           0  read in
    real space projection operators read in
  non local Contribution for L=           1  read in
    real space projection operators read in
    PAW grid and wavefunctions read in
 
   number of l-projection  operators is LMAX  =           3
   number of lm-projection operators is LMMAX =           5
 
 POTCAR:    PAW_PBE Ni 02Aug2007                  
  local pseudopotential read in
  partial core-charges read in
  partial kinetic energy density read in
  atomic valenz-charges read in
  non local Contribution for L=           2  read in
    real space projection operators read in
  non local Contribution for L=           2  read in
    real space projection operators read in
  non local Contribution for L=           0  read in
    real space projection operators read in
  non local Contribution for L=           0  read in
    real space projection operators read in
  non local Contribution for L=           1  read in
    real space projection operators read in
  non local Contribution for L=           1  read in
    real space projection operators read in
    PAW grid and wavefunctions read in
 
   number of l-projection  operators is LMAX  =           6
   number of lm-projection operators is LMMAX =          18
 
 POTCAR:    PAW_PBE O 08Apr2002                   
  local pseudopotential read in
  partial core-charges read in
  partial kinetic energy density read in
  kinetic energy density of atom read in
  atomic valenz-charges read in
  non local Contribution for L=           0  read in
    real space projection operators read in
  non local Contribution for L=           0  read in
    real space projection operators read in
  non local Contribution for L=           1  read in
    real space projection operators read in
  non local Contribution for L=           1  read in
    real space projection operators read in
    PAW grid and wavefunctions read in
 
   number of l-projection  operators is LMAX  =           4
   number of lm-projection operators is LMMAX =           8
 
 Optimization of the real space projectors (new method)

 maximal supplied QI-value         = 22.11
 optimisation between [QCUT,QGAM] = [ 11.28, 22.77] = [ 35.61,145.23] Ry 
 Optimized for a Real-space Cutoff    1.10 Angstroem

   l    n(q)    QCUT    max X(q) W(low)/X(q) W(high)/X(q)  e(spline) 
   0      7    11.276    10.506    0.54E-04    0.58E-04    0.16E-07
   0      7    11.276     8.367    0.11E-03    0.14E-03    0.35E-07
   1      7    11.276     8.983    0.23E-03    0.43E-03    0.86E-07
 Optimization of the real space projectors (new method)

 maximal supplied QI-value         = 16.25
 optimisation between [QCUT,QGAM] = [ 11.38, 22.75] = [ 36.24,144.96] Ry 
 Optimized for a Real-space Cutoff    1.47 Angstroem

   l    n(q)    QCUT    max X(q) W(low)/X(q) W(high)/X(q)  e(spline) 
   2      9    11.376    60.317    0.17E-03    0.16E-04    0.16E-06
   2      9    11.376    55.921    0.17E-03    0.16E-04    0.17E-06
   0     10    11.376    51.690    0.45E-04    0.60E-04    0.21E-06
   0     10    11.376    30.015    0.37E-04    0.55E-04    0.19E-06
   1     10    11.376    18.849    0.83E-04    0.11E-03    0.92E-07
   1     10    11.376    14.624    0.69E-04    0.92E-04    0.82E-07
 Optimization of the real space projectors (new method)

 maximal supplied QI-value         = 24.76
 optimisation between [QCUT,QGAM] = [ 11.39, 22.77] = [ 36.31,145.25] Ry 
 Optimized for a Real-space Cutoff    1.10 Angstroem

   l    n(q)    QCUT    max X(q) W(low)/X(q) W(high)/X(q)  e(spline) 
   0      7    11.387    20.381    0.22E-03    0.48E-03    0.18E-06
   0      7    11.387    15.268    0.22E-03    0.52E-03    0.19E-06
   1      7    11.387     5.964    0.22E-03    0.73E-03    0.24E-06
   1      7    11.387     5.382    0.19E-03    0.60E-03    0.21E-06

 ----------------------------------------------------------------------------- 
|                                                                             |
|  ADVICE TO THIS USER RUNNING 'VASP/VAMP'   (HEAR YOUR MASTER'S VOICE ...):  |
|                                                                             |
|      You enforced a specific xc-type in the INCAR file,                     |
|      a different type was found on the POTCAR file                          |
|          I HOPE YOU KNOW, WHAT YOU ARE  DOING                               |
|                                                                             |
 ----------------------------------------------------------------------------- 

  PAW_PBE Li_sv 10Sep2004               :
 energy of atom  1       EATOM= -202.7858
 kinetic energy error for atom=    0.0143 (will be added to EATOM!!)
  PAW_PBE Ni 02Aug2007                  :
 energy of atom  2       EATOM=-1077.6739
 kinetic energy error for atom=    0.0030 (will be added to EATOM!!)
  PAW_PBE O 08Apr2002                   :
 energy of atom  3       EATOM= -432.3788
 kinetic energy error for atom=    0.0224 (will be added to EATOM!!)
 
 
 POSCAR: ce11567_1                               
  positions in direct lattice
  No initial velocities read in
 exchange correlation table for  LEXCH =       14
   RHO(1)=    0.500       N(1)  =     2000
   RHO(2)=  100.500       N(2)  =     4000
 


--------------------------------------------------------------------------------------------------------


 ion  position               nearest neighbor table
   1  0.999  0.250  0.250-  26 2.11  32 2.13  35 2.14  44 2.14  40 2.14  47 2.14
   2  0.221  0.752  0.501-  27 2.02  25 2.05  45 2.19  49 2.19  39 2.22  37 2.25  14 2.81
   3  0.500  0.249  0.249-  38 2.03  52 2.12  32 2.14  35 2.15  44 2.15  47 2.15
   4  0.547  0.751  0.750-  34 2.02  46 2.03  39 2.04  53 2.14  11 2.75  20 2.79
   5  0.997  0.247  0.751-  42 2.03  51 2.13  31 2.14  48 2.14  24 2.15  28 2.15
   6  0.209  0.751  0.002-  43 2.00  41 2.02  29 2.17  33 2.19  55 2.27  22 2.81   8 2.81
   7  0.545  0.752  0.251-  50 2.01  30 2.03  37 2.11  55 2.12  12 2.77  19 2.77
   8  0.999  0.002  0.001-  35 1.85  34 1.86  33 1.86  32 1.86  43 2.05  42 2.06  13 2.76  13 2.78
                             6 2.81  12 2.81  10 2.83   9 2.84  11 2.84
   9  0.250  0.999  0.251-  43 1.83  38 1.84  26 1.84  55 1.85  32 1.91  49 1.92  12 2.77  12 2.77
                            14 2.82  15 2.83  13 2.83   8 2.84
  10  0.249  0.998  0.749-  39 1.83  42 1.83  54 1.84  27 1.85  48 1.90  33 1.95  11 2.77  11 2.77
                            15 2.82   8 2.83  13 2.83  14 2.83
  11  0.749  0.997  0.747-  42 1.83  54 1.84  39 1.86  27 1.86  51 1.90  34 1.90   4 2.75  10 2.77
                            10 2.77  15 2.80  14 2.82  13 2.84   8 2.84
  12  0.751  0.999  0.248-  38 1.83  43 1.85  26 1.85  55 1.87  50 1.89  35 1.91   9 2.77   7 2.77
                             9 2.77   8 2.81  13 2.82  14 2.83  15 2.85
  13  0.500  0.003  0.001-  33 1.85  34 1.85  35 1.86  32 1.88  54 1.95  55 2.02   8 2.76   8 2.78
                            12 2.82  10 2.83   9 2.83  11 2.84
  14  1.000  0.000  0.499-  51 1.85  48 1.85  50 1.86  49 1.87  27 1.96  26 2.00  15 2.76  15 2.78
                             2 2.81   9 2.82  11 2.82  12 2.83  10 2.83
  15  0.501  0.007  0.503-  51 1.84  50 1.84  49 1.85  48 1.85  38 2.08  39 2.12  14 2.76  14 2.78
                            11 2.80  10 2.82   9 2.83  12 2.85
  16  0.999  0.497  0.500-  46 1.86  47 1.86  45 1.86  44 1.87  25 1.97  24 1.99  21 2.76  21 2.78
                            19 2.82  17 2.83  20 2.83  18 2.84
  17  0.250  0.500  0.751-  36 1.84  53 1.84  24 1.84  41 1.84  28 1.92  45 1.96  20 2.77  20 2.77
                            23 2.81  16 2.83  22 2.83  21 2.83
  18  0.249  0.503  0.250-  37 1.84  40 1.84  25 1.84  52 1.84  44 1.93  29 1.95  19 2.77  19 2.77
                            22 2.82  23 2.84  21 2.84  16 2.84
  19  0.750  0.504  0.253-  52 1.84  40 1.84  25 1.86  37 1.86  30 1.91  47 1.93  18 2.77  18 2.77
                             7 2.77  21 2.82  16 2.82  22 2.83  23 2.85
  20  0.750  0.501  0.752-  36 1.83  24 1.84  41 1.86  53 1.86  31 1.91  46 1.91  17 2.77  17 2.77
                             4 2.79  23 2.80  22 2.82  16 2.83  21 2.84
  21  0.501  0.496  0.499-  45 1.84  46 1.85  47 1.85  44 1.87  36 1.97  37 2.05  16 2.76  16 2.78
                            19 2.82  17 2.83  18 2.84  20 2.84
  22  0.999  0.500  0.001-  28 1.84  31 1.84  30 1.86  29 1.87  41 1.95  40 1.99  23 2.77  23 2.77
                             6 2.81  18 2.82  20 2.82  17 2.83  19 2.83
  23  0.500  0.495  0.997-  30 1.85  29 1.85  31 1.85  28 1.86  52 2.00  53 2.02  22 2.77  22 2.77
                            20 2.80  17 2.81  18 2.84  19 2.85
  24  0.999  0.399  0.643-  17 1.84  20 1.84  16 1.99   5 2.15
  25  0.003  0.602  0.365-  18 1.84  19 1.86  16 1.97   2 2.05
  26  0.999  0.102  0.358-   9 1.84  12 1.85  14 2.00   1 2.11
  27  0.002  0.897  0.635-  10 1.85  11 1.86  14 1.96   2 2.02
  28  0.244  0.400  0.885-  22 1.84  23 1.86  17 1.92   5 2.15
  29  0.256  0.600  0.110-  23 1.85  22 1.87  18 1.95   6 2.17
  30  0.745  0.596  0.113-  23 1.85  22 1.86  19 1.91   7 2.03
  31  0.754  0.400  0.884-  22 1.84  23 1.85  20 1.91   5 2.14
  32  0.247  0.101  0.119-   8 1.86  13 1.88   9 1.91   1 2.13   3 2.14
  33  0.251  0.902  0.889-  13 1.85   8 1.86  10 1.95   6 2.19
  34  0.749  0.904  0.885-  13 1.85   8 1.86  11 1.90   4 2.02
  35  0.752  0.100  0.117-   8 1.85  13 1.86  12 1.91   1 2.14   3 2.15
  36  0.501  0.400  0.642-  20 1.83  17 1.84  21 1.97
  37  0.495  0.607  0.360-  18 1.84  19 1.86  21 2.05   7 2.11   2 2.25
  38  0.502  0.106  0.350-  12 1.83   9 1.84   3 2.03  15 2.08
  39  0.495  0.890  0.645-  10 1.83  11 1.86   4 2.04  15 2.12   2 2.22
  40  0.998  0.401  0.143-  18 1.84  19 1.84  22 1.99   1 2.14
  41  0.003  0.600  0.864-  17 1.84  20 1.86  22 1.95   6 2.02
  42  0.998  0.103  0.851-  10 1.83  11 1.83   5 2.03   8 2.06
  43  0.004  0.895  0.143-   9 1.83  12 1.85   6 2.00   8 2.05
  44  0.249  0.399  0.382-  16 1.87  21 1.87  18 1.93   1 2.14   3 2.15
  45  0.253  0.598  0.610-  21 1.84  16 1.86  17 1.96   2 2.19
  46  0.747  0.595  0.614-  21 1.85  16 1.86  20 1.91   4 2.03
  47  0.750  0.399  0.383-  21 1.85  16 1.86  19 1.93   1 2.14   3 2.15
  48  0.246  0.098  0.618-  15 1.85  14 1.85  10 1.90   5 2.14
  49  0.258  0.903  0.388-  15 1.85  14 1.87   9 1.92   2 2.19
  50  0.744  0.906  0.386-  15 1.84  14 1.86  12 1.89   7 2.01
  51  0.753  0.098  0.617-  15 1.84  14 1.85  11 1.90   5 2.13
  52  0.501  0.400  0.144-  19 1.84  18 1.84  23 2.00   3 2.12
  53  0.496  0.604  0.860-  17 1.84  20 1.86  23 2.02   4 2.14
  54  0.501  0.098  0.859-  11 1.84  10 1.84  13 1.95
  55  0.496  0.895  0.139-   9 1.85  12 1.87  13 2.02   7 2.12   6 2.27
 
  LATTYP: Found a triclinic cell.
 ALAT       =    11.3105683901
 B/A-ratio  =     0.4898102884
 C/A-ratio  =     1.0206884068
 COS(alpha) =     0.0001805027
 COS(beta)  =     0.4851691840
 COS(gamma) =     0.4898131277
  
  Lattice vectors:
  
 A1 = (  -9.8602546010,   5.5400457557,  -0.1105872241)
 A2 = (  -0.0000039392,   5.5400327321,  -0.0006084901)
 A3 = (  -6.3159571944,   0.0010179286,  -9.6636270882)


Analysis of symmetry for initial positions (statically):
=====================================================================
 Subroutine PRICEL returns:
 Original cell was already a primitive cell.
 

 Routine SETGRP: Setting up the symmetry group for a 
 triclinic supercell.


 Subroutine GETGRP returns: Found  1 space group operations
 (whereof  1 operations were pure point group operations)
 out of a pool of  2 trial point group operations.


The static configuration has the point symmetry C_1 .


Analysis of symmetry for dynamics (positions and initial velocities):
=====================================================================
 Subroutine PRICEL returns:
 Original cell was already a primitive cell.
 

 Routine SETGRP: Setting up the symmetry group for a 
 triclinic supercell.


 Subroutine GETGRP returns: Found  1 space group operations
 (whereof  1 operations were pure point group operations)
 out of a pool of  2 trial point group operations.


The dynamic configuration has the point symmetry C_1 .


Analysis of structural, dynamic, and magnetic symmetry:
=====================================================================
 Subroutine PRICEL returns:
 Original cell was already a primitive cell.
 

 Routine SETGRP: Setting up the symmetry group for a 
 triclinic supercell.


 Subroutine GETGRP returns: Found  1 space group operations
 (whereof  1 operations were pure point group operations)
 out of a pool of  2 trial point group operations.


The magnetic configuration has the point symmetry C_1 .


 Subroutine INISYM returns: Found  1 space group operations
 (whereof  1 operations are pure point group operations),
 and found     1 'primitive' translations

 
 
 KPOINTS: Automatic mesh                          

Automatic generation of k-mesh.
Space group operators:
 irot       det(A)        alpha          n_x          n_y          n_z        tau_x        tau_y        tau_z
    1     1.000000     0.000000     1.000000     0.000000     0.000000     0.000000     0.000000     0.000000
 
 Subroutine IBZKPT returns following result:
 ===========================================
 
 Found      1 irreducible k-points:
 
 Following reciprocal coordinates:
            Coordinates               Weight
  0.000000  0.000000  0.000000      1.000000
 
 Following cartesian coordinates:
            Coordinates               Weight
  0.000000  0.000000  0.000000      1.000000
 


--------------------------------------------------------------------------------------------------------




 Dimension of arrays:
   k-points           NKPTS =      1   k-points in BZ     NKDIM =      1   number of bands    NBANDS=    256
   number of dos      NEDOS =    301   number of ions     NIONS =     55
   non local maximal  LDIM  =      6   non local SUM 2l+1 LMDIM =     18
   total plane-waves  NPLWV = 230400
   max r-space proj   IRMAX =   5952   max aug-charges    IRDMAX=  14449
   dimension x,y,z NGX =    40 NGY =   80 NGZ =   72
   dimension x,y,z NGXF=    80 NGYF=  160 NGZF=  144
   support grid    NGXF=    80 NGYF=  160 NGZF=  144
   ions per type =               7  16  32
   NGX,Y,Z   is equivalent  to a cutoff of  12.00, 13.05, 12.14 a.u.
   NGXF,Y,Z  is equivalent  to a cutoff of  24.01, 26.10, 24.28 a.u.

 SYSTEM =  unknown system                          
 POSCAR =  ce11567_1                               

 Startparameter for this run:
   NWRITE =      1    write-flag & timer
   PREC   = accura    normal or accurate (medium, high low for compatibility)
   ISTART =      0    job   : 0-new  1-cont  2-samecut
   ICHARG =      2    charge: 1-file 2-atom 10-const
   ISPIN  =      2    spin polarized calculation?
   LNONCOLLINEAR =      F non collinear calculations
   LSORBIT =      F    spin-orbit coupling
   INIWAV =      1    electr: 0-lowe 1-rand  2-diag
   LASPH  =      F    aspherical Exc in radial PAW
   METAGGA=      F    non-selfconsistent MetaGGA calc.

 Electronic Relaxation 1
   ENCUT  =  500.0 eV  36.75 Ry    6.06 a.u.  10.10 18.58 17.98*2*pi/ulx,y,z
   ENINI  =  500.0     initial cutoff
   ENAUG  =  628.9 eV  augmentation charge cutoff
   NELM   =     80;   NELMIN=  2; NELMDL= -5     # of ELM steps 
   EDIFF  = 0.1E-04   stopping-criterion for ELM
   LREAL  =      T    real-space projection
   NLSPLINE    = F    spline interpolate recip. space projectors
   LCOMPAT=      F    compatible to vasp.4.4
   GGA_COMPAT  = T    GGA compatible to vasp.4.4-vasp.4.6
   LMAXPAW     = -100 max onsite density
   LMAXMIX     =    2 max onsite mixed and CHGCAR
   VOSKOWN=      1    Vosko Wilk Nusair interpolation
   ROPT   =   -0.00025  -0.00025  -0.00025
 Ionic relaxation
   EDIFFG = -.2E-01   stopping-criterion for IOM
   NSW    =     20    number of steps for IOM
   NBLOCK =      1;   KBLOCK =     20    inner block; outer block 
   IBRION =      1    ionic relax: 0-MD 1-quasi-New 2-CG
   NFREE  =      0    steps in history (QN), initial steepest desc. (CG)
   ISIF   =      3    stress and relaxation
   IWAVPR =     11    prediction:  0-non 1-charg 2-wave 3-comb
   ISYM   =      2    0-nonsym 1-usesym 2-fastsym
   LCORR  =      T    Harris-Foulkes like correction to forces

   POTIM  = 0.5000    time-step for ionic-motion
   TEIN   =    0.0    initial temperature
   TEBEG  =    0.0;   TEEND  =   0.0 temperature during run
   SMASS  =  -3.00    Nose mass-parameter (am)
   estimated Nose-frequenzy (Omega)   =  0.10E-29 period in steps =****** mass=  -0.701E-27a.u.
   SCALEE = 1.0000    scale energy and forces
   NPACO  =    256;   APACO  = 16.0  distance and # of slots for P.C.
   PSTRESS=    0.0 pullay stress

  Mass of Ions in am
   POMASS =   7.01 58.69 16.00
  Ionic Valenz
   ZVAL   =   3.00 10.00  6.00
  Atomic Wigner-Seitz radii
   RWIGS  =   1.23  1.15  0.73
  virtual crystal weights 
   VCA    =   1.00  1.00  1.00
   NELECT =     373.0000    total number of electrons
   NUPDOWN=      -1.0000    fix difference up-down

 DOS related values:
   EMIN   =  10.00;   EMAX   =-10.00  energy-range for DOS
   EFERMI =   0.00
   ISMEAR =     0;   SIGMA  =   0.05  broadening in eV -4-tet -1-fermi 0-gaus

 Electronic relaxation 2 (details)
   IALGO  =     38    algorithm
   LDIAG  =      T    sub-space diagonalisation (order eigenvalues)
   LSUBROT=      F    optimize rotation matrix (better conditioning)
   TURBO    =      0    0=normal 1=particle mesh
   IRESTART =      0    0=no restart 2=restart with 2 vectors
   NREBOOT  =      0    no. of reboots
   NMIN     =      0    reboot dimension
   EREF     =   0.00    reference energy to select bands
   IMIX   =      4    mixing-type and parameters
     AMIX     =   0.40;   BMIX     =  1.00
     AMIX_MAG =   1.60;   BMIX_MAG =  1.00
     AMIN     =   0.10
     WC   =   100.;   INIMIX=   1;  MIXPRE=   1;  MAXMIX= -45

 Intra band minimization:
   WEIMIN = 0.0010     energy-eigenvalue tresh-hold
   EBREAK =  0.98E-08  absolut break condition
   DEPER  =   0.30     relativ break condition  

   TIME   =   0.40     timestep for ELM

  volume/ion in A,a.u.               =       9.53        64.30
  Fermi-wavevector in a.u.,A,eV,Ry     =   1.461695  2.762203 29.069565  2.136553
  Thomas-Fermi vector in A             =   2.577996
 
 Write flags
   LWAVE        =      F    write WAVECAR
   LDOWNSAMPLE  =      F    k-point downsampling of WAVECAR
   LCHARG       =      T    write CHGCAR
   LVTOT        =      F    write LOCPOT, total local potential
   LVHAR        =      F    write LOCPOT, Hartree potential only
   LELF         =      F    write electronic localiz. function (ELF)
   LORBIT       =      0    0 simple, 1 ext, 2 COOP (PROOUT), +10 PAW based schemes


 Dipole corrections
   LMONO  =      F    monopole corrections only (constant potential shift)
   LDIPOL =      F    correct potential (dipole corrections)
   IDIPOL =      0    1-x, 2-y, 3-z, 4-all directions 
   EPSILON=  1.0000000 bulk dielectric constant

 Exchange correlation treatment:
   GGA     =    PS    GGA type
   LEXCH   =    14    internal setting for exchange type
   VOSKOWN=      1    Vosko Wilk Nusair interpolation
   LHFCALC =     F    Hartree Fock is set to
   LHFONE  =     F    Hartree Fock one center treatment
   AEXX    =    0.0000 exact exchange contribution

 Linear response parameters
   LEPSILON=     F    determine dielectric tensor
   LRPA    =     F    only Hartree local field effects (RPA)
   LNABLA  =     F    use nabla operator in PAW spheres
   LVEL    =     F    velocity operator in full k-point grid
   LINTERFAST=   F  fast interpolation
   KINTER  =     0    interpolate to denser k-point grid
   CSHIFT  =0.1000    complex shift for real part using Kramers Kronig
   OMEGAMAX=  -1.0    maximum frequency
   DEG_THRESHOLD= 0.2000000E-02 threshold for treating states as degnerate
   RTIME   =   -0.100 relaxation time in fs
  (WPLASMAI=    0.000 imaginary part of plasma frequency in eV, 0.658/RTIME)
   DFIELD  = 0.0000000 0.0000000 0.0000000 field for delta impulse in time
 
 Orbital magnetization related:
   ORBITALMAG=     F  switch on orbital magnetization
   LCHIMAG   =     F  perturbation theory with respect to B field
   DQ        =  0.001000  dq finite difference perturbation B field
   LLRAUG    =     F  two centre corrections for induced B field



--------------------------------------------------------------------------------------------------------


 quasi-Newton-method for relaxation of ions
 charge density and potential will be updated during run
 spin polarized calculation
 Variant of blocked Davidson
 Davidson routine will perform the subspace rotation
 perform sub-space diagonalisation
    after iterative eigenvector-optimisation
 modified Broyden-mixing scheme, WC =      100.0
 initial mixing is a Kerker type mixing with AMIX =  0.4000 and BMIX =      1.0000
 Hartree-type preconditioning will be used
 using additional bands           69
 real space projection scheme for non local part
 use partial core corrections
 calculate Harris-corrections to forces 
   (improved forces if not selfconsistent)
 use gradient corrections 
 use of overlap-Matrix (Vanderbilt PP)
 Gauss-broadening in eV      SIGMA  =   0.05


--------------------------------------------------------------------------------------------------------


  energy-cutoff  :      500.00
  volume of cell :      524.04
      direct lattice vectors                 reciprocal lattice vectors
    -0.000003939  5.540032732 -0.000608490     0.000000027  0.180504351  0.000018996
    -3.544293467 -0.001004905  9.553648354    -0.001162674  0.000011448  0.104240717
     9.860250662 -0.000013024  0.109978734     0.100999374  0.000004187  0.037469604

  length of vectors
     5.540032766 10.189907461  9.860863980     0.180504352  0.104247201  0.107725785


 
 k-points in units of 2pi/SCALE and weight: Automatic mesh                          
   0.00000000  0.00000000  0.00000000       1.000
 
 k-points in reciprocal lattice and weights: Automatic mesh                          
   0.00000000  0.00000000  0.00000000       1.000
 
 position of ions in fractional coordinates (direct lattice) 
   0.99887983  0.24987275  0.25047632
   0.22058087  0.75225360  0.50084509
   0.50000316  0.24921870  0.24897261
   0.54704134  0.75104146  0.75031219
   0.99680444  0.24748481  0.75076274
   0.20883454  0.75122094  0.00177971
   0.54508841  0.75153053  0.25079365
   0.99937077  0.00224933  0.00059113
   0.25007175  0.99941789  0.25051997
   0.24938739  0.99811008  0.74923088
   0.74900764  0.99697116  0.74712235
   0.75062585  0.99853648  0.24805598
   0.50037994  0.00317025  0.00117259
   0.99951905  0.00049517  0.49944946
   0.50064589  0.00658369  0.50317196
   0.99936480  0.49713883  0.49986823
   0.25020273  0.49961588  0.75056319
   0.24933012  0.50258067  0.25012935
   0.74988481  0.50374336  0.25250411
   0.74983305  0.50084443  0.75204737
   0.50050993  0.49604057  0.49862900
   0.99920195  0.49955850  0.00054105
   0.50000941  0.49470886  0.99685923
   0.99918668  0.39858636  0.64282868
   0.00318349  0.60193682  0.36465433
   0.99932698  0.10208457  0.35750793
   0.00248959  0.89709911  0.63510514
   0.24394141  0.39954963  0.88454599
   0.25583145  0.59987390  0.11022261
   0.74477617  0.59637244  0.11283758
   0.75415788  0.40021146  0.88409268
   0.24717198  0.10093800  0.11925954
   0.25145811  0.90162915  0.88928399
   0.74873048  0.90437688  0.88546767
   0.75226896  0.10044705  0.11730445
   0.50140232  0.40044665  0.64221994
   0.49512791  0.60709057  0.35988660
   0.50237369  0.10577641  0.35011573
   0.49461993  0.88957410  0.64509783
   0.99841498  0.40054617  0.14331576
   0.00327277  0.60041402  0.86398015
   0.99783331  0.10259978  0.85098136
   0.00354970  0.89544336  0.14306858
   0.24878155  0.39850518  0.38165350
   0.25313885  0.59817890  0.61030171
   0.74739174  0.59525296  0.61399330
   0.75026574  0.39898662  0.38267790
   0.24592508  0.09789601  0.61787758
   0.25802171  0.90310433  0.38772592
   0.74379758  0.90624288  0.38575049
   0.75312130  0.09804681  0.61714991
   0.50124160  0.39960729  0.14439508
   0.49595747  0.60431305  0.85997286
   0.50102461  0.09773574  0.85898300
   0.49594889  0.89461883  0.13904401
 
 position of ions in cartesian coordinates  (Angst):
   1.58413301  5.53357259  2.41413565
   2.27224974  1.22126277  7.24171446
   1.57162616  2.76978019  2.40802527
   4.73635277  3.02986243  7.25737152
   6.52554608  5.52207075  2.44634424
  -2.64499991  1.15619526  7.17696935
  -0.19075864  3.01904915  7.20710870
  -0.00214753  5.53654451  0.02094621
  -1.07204158  1.38439810  9.57548678
   3.85000826  1.38060154  9.61784044
   3.83325233  4.14851525  9.60642369
  -1.09321514  4.15748511  9.56649053
   0.00032376  2.77211805  0.03011194
   4.92293790  5.53736125  0.05905130
   4.93806515  2.77358145  0.11793184
   3.16681620  5.53600762  4.80385634
   5.62995491  1.38561947  4.85554817
   0.68504372  1.38078872  4.82883619
   0.70433656  4.15387689  4.83990071
   5.64023298  4.15358655  4.86714452
   3.15849160  2.77233643  4.79353121
  -1.76525098  5.53510949  4.77205774
   8.07588653  2.76955838  4.83560355
   4.92574095  5.53511800  3.87804341
   1.46214235  0.01702700  5.79079499
   3.16329619  5.53619694  1.01399027
   3.08271335  0.01288264  8.64041598
   7.30572308  1.35103037  3.91428948
  -1.03930759  1.41671036  5.74295077
  -1.00111505  4.12548359  5.70948913
   7.29890560  4.17764565  3.92025205
   0.81817409  1.36923787  0.97729177
   5.57292375  1.39216853  8.71149716
   5.52555316  4.14707102  8.73702571
   0.80063449  4.16749219  0.97207904
   4.91314717  2.77737449  3.89605192
   1.39686299  2.74241007  5.83920842
   3.07732424  2.78305583  1.04875022
   3.20791269  2.73930826  8.56932421
  -0.00652779  5.53084729  3.84183142
   6.39101734  0.01751664  5.83116187
   8.02724186  5.52791501  1.07318490
  -1.76302200  0.01876376  8.57048332
   2.35077889  1.37785250  3.84900074
   3.89760528  1.40178845  5.78175704
   3.94437372  4.13996853  5.75390889
   2.35917139  4.15609083  3.85340777
   5.74545466  1.36232657  1.00306781
   0.62220697  1.42853614  8.67042580
   0.59160287  4.11974723  8.69989756
   5.73774317  4.17221009  1.00411984
   0.00744420  2.77649142  3.83328292
   6.33768321  2.74700214  5.86767132
   8.12338158  2.77558334  1.02789789
  -1.79978484  2.74667227  8.56186382
 


--------------------------------------------------------------------------------------------------------


 use serial FFT for orbitals x direction half grid
 k-point  1 :   0.0000 0.0000 0.0000  plane waves:    6634

 maximum and minimum number of plane-waves per node :      6634     6634

 maximum number of plane-waves:      6634
 maximum index in each direction: 
   IXMAX=   10   IYMAX=   18   IZMAX=   17
   IXMIN=    0   IYMIN=  -18   IZMIN=  -17

 The following grids will avoid any aliasing or wrap around errors in the Hartre
 e energy
  - symmetry arguments have not been applied
  - exchange correlation energies might require even more grid points
  - we recommend to set PREC=Normal or Accurate and rely on VASP defaults
 WARNING: aliasing errors must be expected set NGX to    42 to avoid them
 NGY is ok and might be reduce to    80
 NGZ is ok and might be reduce to    70

 serial   3D FFT for wavefunctions
 parallel 3D FFT for charge:
    minimum data exchange during FFTs selected (reduces bandwidth)


 total amount of memory used by VASP MPI-rank0    88644. kBytes
=======================================================================

   base      :      30000. kBytes
   nonlr-proj:      20567. kBytes
   fftplans  :       4884. kBytes
   grid      :      28787. kBytes
   one-center:        855. kBytes
   wavefun   :       3551. kBytes
 
     INWAV:  cpu time    0.0000: real time    0.0000
 Broyden mixing: mesh for mixing (old mesh)
   NGX = 21   NGY = 37   NGZ = 35
  (NGX  = 80   NGY  =160   NGZ  =144)
  gives a total of  27195 points

 initial charge density was supplied:
 charge density of overlapping atoms calculated
 number of electron     373.0000000 magnetization      40.0000000
 keeping initial charge density in first step


--------------------------------------------------------------------------------------------------------


 Maximum index for non-local projection operator         5755
 Maximum index for augmentation-charges         1002 (set IRDMAX)


--------------------------------------------------------------------------------------------------------


 First call to EWALD:  gamma=   0.220
 Maximum number of real-space cells 4x 2x 2
 Maximum number of reciprocal cells 2x 3x 3

    FEWALD:  cpu time    0.0035: real time    0.0035


--------------------------------------- Iteration      1(   1)  ---------------------------------------


    POTLOK:  cpu time    0.1469: real time    0.1485
    SETDIJ:  cpu time    0.0194: real time    0.0195
     EDDAV:  cpu time    1.6207: real time    1.6428
    --------------------------------------------
      LOOP:  cpu time    1.7875: real time    1.8113

 eigenvalue-minimisations  :  1040
 total energy-change (2. order) : 0.6401002E+04  (-0.1643387E+05)
 number of electron     373.0000000 magnetization      40.0000000
 augmentation part      373.0000000 magnetization      40.0000000

 Free energy of the ion-electron system (eV)
  ---------------------------------------------------
  alpha Z        PSCENC =      1146.53127826
  Ewald energy   TEWEN  =    -21399.55532813
  -Hartree energ DENC   =    -11725.86560954
  -exchange      EXHF   =         0.00000000
  -V(xc)+E(xc)   XCENC  =      1516.44601572
  PAW double counting   =     27022.10826369   -28244.36586763
  entropy T*S    EENTRO =        -0.00173489
  eigenvalues    EBANDS =      5664.91129545
  atomic energy  EATOM  =     32420.79373756
  Solvation  Ediel_sol  =         0.00000000
  ---------------------------------------------------
  free energy    TOTEN  =      6401.00205049 eV

  energy without entropy =     6401.00378538  energy(sigma->0) =     6401.00291794


--------------------------------------------------------------------------------------------------------




--------------------------------------- Iteration      1(   2)  ---------------------------------------


     EDDAV:  cpu time    1.7077: real time    1.7117
    --------------------------------------------
      LOOP:  cpu time    1.7075: real time    1.7116

 eigenvalue-minimisations  :  1104
 total energy-change (2. order) :-0.5226518E+04  (-0.4616988E+04)
 number of electron     373.0000000 magnetization      40.0000000
 augmentation part      373.0000000 magnetization      40.0000000

 Free energy of the ion-electron system (eV)
  ---------------------------------------------------
  alpha Z        PSCENC =      1146.53127826
  Ewald energy   TEWEN  =    -21399.55532813
  -Hartree energ DENC   =    -11725.86560954
  -exchange      EXHF   =         0.00000000
  -V(xc)+E(xc)   XCENC  =      1516.44601572
  PAW double counting   =     27022.10826369   -28244.36586763
  entropy T*S    EENTRO =        -0.00353921
  eigenvalues    EBANDS =       438.39548996
  atomic energy  EATOM  =     32420.79373756
  Solvation  Ediel_sol  =         0.00000000
  ---------------------------------------------------
  free energy    TOTEN  =      1174.48444069 eV

  energy without entropy =     1174.48797990  energy(sigma->0) =     1174.48621029


--------------------------------------------------------------------------------------------------------




--------------------------------------- Iteration      1(   3)  ---------------------------------------


     EDDAV:  cpu time    1.7905: real time    1.7947
    --------------------------------------------
      LOOP:  cpu time    1.7905: real time    1.7947

 eigenvalue-minimisations  :  1168
 total energy-change (2. order) :-0.1411170E+04  (-0.1169977E+04)
 number of electron     373.0000000 magnetization      40.0000000
 augmentation part      373.0000000 magnetization      40.0000000

 Free energy of the ion-electron system (eV)
  ---------------------------------------------------
  alpha Z        PSCENC =      1146.53127826
  Ewald energy   TEWEN  =    -21399.55532813
  -Hartree energ DENC   =    -11725.86560954
  -exchange      EXHF   =         0.00000000
  -V(xc)+E(xc)   XCENC  =      1516.44601572
  PAW double counting   =     27022.10826369   -28244.36586763
  entropy T*S    EENTRO =        -0.10207081
  eigenvalues    EBANDS =      -972.67564926
  atomic energy  EATOM  =     32420.79373756
  Solvation  Ediel_sol  =         0.00000000
  ---------------------------------------------------
  free energy    TOTEN  =      -236.68523013 eV

  energy without entropy =     -236.58315933  energy(sigma->0) =     -236.63419473


--------------------------------------------------------------------------------------------------------




--------------------------------------- Iteration      1(   4)  ---------------------------------------


     EDDAV:  cpu time    1.8966: real time    1.9011
    --------------------------------------------
      LOOP:  cpu time    1.8966: real time    1.9011

 eigenvalue-minimisations  :  1264
 total energy-change (2. order) :-0.2029253E+03  (-0.1972314E+03)
 number of electron     373.0000000 magnetization      40.0000000
 augmentation part      373.0000000 magnetization      40.0000000

 Free energy of the ion-electron system (eV)
  ---------------------------------------------------
  alpha Z        PSCENC =      1146.53127826
  Ewald energy   TEWEN  =    -21399.55532813
  -Hartree energ DENC   =    -11725.86560954
  -exchange      EXHF   =         0.00000000
  -V(xc)+E(xc)   XCENC  =      1516.44601572
  PAW double counting   =     27022.10826369   -28244.36586763
  entropy T*S    EENTRO =        -0.13204316
  eigenvalues    EBANDS =     -1175.57096023
  atomic energy  EATOM  =     32420.79373756
  Solvation  Ediel_sol  =         0.00000000
  ---------------------------------------------------
  free energy    TOTEN  =      -439.61051345 eV

  energy without entropy =     -439.47847030  energy(sigma->0) =     -439.54449188


--------------------------------------------------------------------------------------------------------




--------------------------------------- Iteration      1(   5)  ---------------------------------------


     EDDAV:  cpu time    2.2439: real time    2.2493
    CHARGE:  cpu time    0.1082: real time    0.1084
    MIXING:  cpu time    0.0028: real time    0.0028
    --------------------------------------------
      LOOP:  cpu time    2.3545: real time    2.3601

 eigenvalue-minimisations  :  1552
 total energy-change (2. order) :-0.8863124E+01  (-0.8783348E+01)
 number of electron     373.0000110 magnetization      38.6510166
 augmentation part      110.6121469 magnetization      29.8970792

 Broyden mixing:
  rms(total) = 0.11709E+02    rms(broyden)= 0.11707E+02
  rms(prec ) = 0.14271E+02
  weight for this iteration     100.00

 Free energy of the ion-electron system (eV)
  ---------------------------------------------------
  alpha Z        PSCENC =      1146.53127826
  Ewald energy   TEWEN  =    -21399.55532813
  -Hartree energ DENC   =    -11725.86560954
  -exchange      EXHF   =         0.00000000
  -V(xc)+E(xc)   XCENC  =      1516.44601572
  PAW double counting   =     27022.10826369   -28244.36586763
  entropy T*S    EENTRO =        -0.13129220
  eigenvalues    EBANDS =     -1184.43483513
  atomic energy  EATOM  =     32420.79373756
  Solvation  Ediel_sol  =         0.00000000
  ---------------------------------------------------
  free energy    TOTEN  =      -448.47363739 eV

  energy without entropy =     -448.34234520  energy(sigma->0) =     -448.40799130


--------------------------------------------------------------------------------------------------------




--------------------------------------- Iteration      1(   6)  ---------------------------------------


    POTLOK:  cpu time    0.1258: real time    0.1261
    SETDIJ:  cpu time    0.0198: real time    0.0199
     EDDAV:  cpu time    2.2615: real time    2.2669
    CHARGE:  cpu time    0.1033: real time    0.1035
    MIXING:  cpu time    0.0032: real time    0.0032
    --------------------------------------------
      LOOP:  cpu time    2.5137: real time    2.5197

 eigenvalue-minimisations  :  1584
 total energy-change (2. order) :-0.6077901E+02  (-0.1098347E+03)
 number of electron     373.0000144 magnetization      33.7721215
 augmentation part      140.2785681 magnetization      32.4735918

 Broyden mixing:
  rms(total) = 0.21008E+02    rms(broyden)= 0.21007E+02
  rms(prec ) = 0.23238E+02
  weight for this iteration     100.00

 eigenvalues of (default mixing * dielectric matrix)
  average eigenvalue GAMMA=   0.2065
  0.2065

 Free energy of the ion-electron system (eV)
  ---------------------------------------------------
  alpha Z        PSCENC =      1146.53127826
  Ewald energy   TEWEN  =    -21399.55532813
  -Hartree energ DENC   =    -11203.81050916
  -exchange      EXHF   =         0.00000000
  -V(xc)+E(xc)   XCENC  =      1521.73071602
  PAW double counting   =     29923.46126217   -30973.13821742
  entropy T*S    EENTRO =        -0.05871694
  eigenvalues    EBANDS =     -1945.20687160
  atomic energy  EATOM  =     32420.79373756
  Solvation  Ediel_sol  =         0.00000000
  ---------------------------------------------------
  free energy    TOTEN  =      -509.25264925 eV

  energy without entropy =     -509.19393231  energy(sigma->0) =     -509.22329078


--------------------------------------------------------------------------------------------------------




--------------------------------------- Iteration      1(   7)  ---------------------------------------


    POTLOK:  cpu time    0.1255: real time    0.1258
    SETDIJ:  cpu time    0.0197: real time    0.0198
     EDDAV:  cpu time    2.0603: real time    2.0652
    CHARGE:  cpu time    0.1010: real time    0.1012
    MIXING:  cpu time    0.0031: real time    0.0031
    --------------------------------------------
      LOOP:  cpu time    2.3096: real time    2.3151

 eigenvalue-minimisations  :  1408
 total energy-change (2. order) : 0.1335580E+03  (-0.3358751E+02)
 number of electron     373.0000145 magnetization      25.7192033
 augmentation part      132.2328233 magnetization      24.9521723

 Broyden mixing:
  rms(total) = 0.78717E+01    rms(broyden)= 0.78708E+01
  rms(prec ) = 0.93729E+01
  weight for this iteration     100.00

 eigenvalues of (default mixing * dielectric matrix)
  average eigenvalue GAMMA=   0.5185
  0.5185  0.5185

 Free energy of the ion-electron system (eV)
  ---------------------------------------------------
  alpha Z        PSCENC =      1146.53127826
  Ewald energy   TEWEN  =    -21399.55532813
  -Hartree energ DENC   =    -11375.16191678
  -exchange      EXHF   =         0.00000000
  -V(xc)+E(xc)   XCENC  =      1514.34088687
  PAW double counting   =     31085.79007306   -32241.35285944
  entropy T*S    EENTRO =        -0.02194991
  eigenvalues    EBANDS =     -1527.05856290
  atomic energy  EATOM  =     32420.79373756
  Solvation  Ediel_sol  =         0.00000000
  ---------------------------------------------------
  free energy    TOTEN  =      -375.69464143 eV

  energy without entropy =     -375.67269151  energy(sigma->0) =     -375.68366647


--------------------------------------------------------------------------------------------------------




--------------------------------------- Iteration      1(   8)  ---------------------------------------


    POTLOK:  cpu time    0.1263: real time    0.1266
    SETDIJ:  cpu time    0.0196: real time    0.0197
     EDDAV:  cpu time    2.1929: real time    2.1981
    CHARGE:  cpu time    0.1028: real time    0.1030
    MIXING:  cpu time    0.0036: real time    0.0036
    --------------------------------------------
      LOOP:  cpu time    2.4451: real time    2.4510

 eigenvalue-minimisations  :  1536
 total energy-change (2. order) : 0.1980171E+02  (-0.1497325E+02)
 number of electron     373.0000134 magnetization      21.7908535
 augmentation part      121.3374837 magnetization      19.4252288

 Broyden mixing:
  rms(total) = 0.70456E+01    rms(broyden)= 0.70442E+01
  rms(prec ) = 0.10322E+02
  weight for this iteration     100.00

 eigenvalues of (default mixing * dielectric matrix)
  average eigenvalue GAMMA=   0.5025
  0.6147  0.6147  0.2781

 Free energy of the ion-electron system (eV)
  ---------------------------------------------------
  alpha Z        PSCENC =      1146.53127826
  Ewald energy   TEWEN  =    -21399.55532813
  -Hartree energ DENC   =    -11482.87716029
  -exchange      EXHF   =         0.00000000
  -V(xc)+E(xc)   XCENC  =      1508.18275832
  PAW double counting   =     32297.39469413   -33541.68876765
  entropy T*S    EENTRO =        -0.06195138
  eigenvalues    EBANDS =     -1304.61219541
  atomic energy  EATOM  =     32420.79373756
  Solvation  Ediel_sol  =         0.00000000
  ---------------------------------------------------
  free energy    TOTEN  =      -355.89293459 eV

  energy without entropy =     -355.83098322  energy(sigma->0) =     -355.86195891


--------------------------------------------------------------------------------------------------------




--------------------------------------- Iteration      1(   9)  ---------------------------------------


    POTLOK:  cpu time    0.1270: real time    0.1273
    SETDIJ:  cpu time    0.0196: real time    0.0196
     EDDAV:  cpu time    2.0182: real time    2.0231
    CHARGE:  cpu time    0.1037: real time    0.1040
    MIXING:  cpu time    0.0037: real time    0.0037
    --------------------------------------------
      LOOP:  cpu time    2.2723: real time    2.2777

 eigenvalue-minimisations  :  1392
 total energy-change (2. order) :-0.1775344E+02  (-0.2206884E+02)
 number of electron     373.0000126 magnetization      18.7603830
 augmentation part      120.3230142 magnetization      15.3513873

 Broyden mixing:
  rms(total) = 0.94247E+01    rms(broyden)= 0.94241E+01
  rms(prec ) = 0.12606E+02
  weight for this iteration     100.00

 eigenvalues of (default mixing * dielectric matrix)
  average eigenvalue GAMMA=   0.4342
  0.6333  0.6211  0.3744  0.1081

 Free energy of the ion-electron system (eV)
  ---------------------------------------------------
  alpha Z        PSCENC =      1146.53127826
  Ewald energy   TEWEN  =    -21399.55532813
  -Hartree energ DENC   =    -11445.21510121
  -exchange      EXHF   =         0.00000000
  -V(xc)+E(xc)   XCENC  =      1505.49723392
  PAW double counting   =     32919.66095685   -34168.81070166
  entropy T*S    EENTRO =        -0.04235810
  eigenvalues    EBANDS =     -1352.50609306
  atomic energy  EATOM  =     32420.79373756
  Solvation  Ediel_sol  =         0.00000000
  ---------------------------------------------------
  free energy    TOTEN  =      -373.64637558 eV

  energy without entropy =     -373.60401748  energy(sigma->0) =     -373.62519653


--------------------------------------------------------------------------------------------------------




--------------------------------------- Iteration      1(  10)  ---------------------------------------


    POTLOK:  cpu time    0.1257: real time    0.1260
    SETDIJ:  cpu time    0.0202: real time    0.0203
     EDDAV:  cpu time    2.0940: real time    2.0990
    CHARGE:  cpu time    0.1006: real time    0.1008
    MIXING:  cpu time    0.0035: real time    0.0035
    --------------------------------------------
      LOOP:  cpu time    2.3440: real time    2.3496

 eigenvalue-minimisations  :  1440
 total energy-change (2. order) : 0.1036783E+02  (-0.1529924E+02)
 number of electron     373.0000137 magnetization      17.2262506
 augmentation part      121.1160430 magnetization      16.1474004

 Broyden mixing:
  rms(total) = 0.70514E+01    rms(broyden)= 0.70509E+01
  rms(prec ) = 0.85719E+01
  weight for this iteration     100.00

 eigenvalues of (default mixing * dielectric matrix)
  average eigenvalue GAMMA=   0.3664
  0.6889  0.5901  0.3642  0.0944  0.0944

 Free energy of the ion-electron system (eV)
  ---------------------------------------------------
  alpha Z        PSCENC =      1146.53127826
  Ewald energy   TEWEN  =    -21399.55532813
  -Hartree energ DENC   =    -11425.91296795
  -exchange      EXHF   =         0.00000000
  -V(xc)+E(xc)   XCENC  =      1504.34451035
  PAW double counting   =     33523.34214554   -34780.87896448
  entropy T*S    EENTRO =        -0.03331008
  eigenvalues    EBANDS =     -1351.90965036
  atomic energy  EATOM  =     32420.79373756
  Solvation  Ediel_sol  =         0.00000000
  ---------------------------------------------------
  free energy    TOTEN  =      -363.27854929 eV

  energy without entropy =     -363.24523922  energy(sigma->0) =     -363.26189425


--------------------------------------------------------------------------------------------------------




--------------------------------------- Iteration      1(  11)  ---------------------------------------


    POTLOK:  cpu time    0.1232: real time    0.1235
    SETDIJ:  cpu time    0.0198: real time    0.0199
     EDDAV:  cpu time    2.0285: real time    2.0334
    CHARGE:  cpu time    0.1016: real time    0.1019
    MIXING:  cpu time    0.0041: real time    0.0041
    --------------------------------------------
      LOOP:  cpu time    2.2772: real time    2.2826

 eigenvalue-minimisations  :  1392
 total energy-change (2. order) : 0.1252241E+02  (-0.4134515E+01)
 number of electron     373.0000136 magnetization      13.9635006
 augmentation part      122.0033950 magnetization      13.0251513

 Broyden mixing:
  rms(total) = 0.49262E+01    rms(broyden)= 0.49258E+01
  rms(prec ) = 0.58749E+01
  weight for this iteration     100.00

 eigenvalues of (default mixing * dielectric matrix)
  average eigenvalue GAMMA=   0.4223
  0.7491  0.7491  0.3478  0.2905  0.2905  0.1066

 Free energy of the ion-electron system (eV)
  ---------------------------------------------------
  alpha Z        PSCENC =      1146.53127826
  Ewald energy   TEWEN  =    -21399.55532813
  -Hartree energ DENC   =    -11421.37718531
  -exchange      EXHF   =         0.00000000
  -V(xc)+E(xc)   XCENC  =      1503.98677540
  PAW double counting   =     33760.06030023   -35021.90210009
  entropy T*S    EENTRO =        -0.03005070
  eigenvalues    EBANDS =     -1339.26356761
  atomic energy  EATOM  =     32420.79373756
  Solvation  Ediel_sol  =         0.00000000
  ---------------------------------------------------
  free energy    TOTEN  =      -350.75614041 eV

  energy without entropy =     -350.72608971  energy(sigma->0) =     -350.74111506


--------------------------------------------------------------------------------------------------------




--------------------------------------- Iteration      1(  12)  ---------------------------------------


    POTLOK:  cpu time    0.1262: real time    0.1265
    SETDIJ:  cpu time    0.0199: real time    0.0200
     EDDAV:  cpu time    1.9791: real time    1.9838
    CHARGE:  cpu time    0.0968: real time    0.0971
    MIXING:  cpu time    0.0041: real time    0.0041
    --------------------------------------------
      LOOP:  cpu time    2.2261: real time    2.2314

 eigenvalue-minimisations  :  1360
 total energy-change (2. order) : 0.3922590E+01  (-0.2870922E+01)
 number of electron     373.0000137 magnetization      11.0465065
 augmentation part      122.6103827 magnetization       9.0250830

 Broyden mixing:
  rms(total) = 0.44280E+01    rms(broyden)= 0.44273E+01
  rms(prec ) = 0.57088E+01
  weight for this iteration     100.00

 eigenvalues of (default mixing * dielectric matrix)
  average eigenvalue GAMMA=   0.4589
  1.2192  0.4847  0.4847  0.3569  0.3569  0.2013  0.1086

 Free energy of the ion-electron system (eV)
  ---------------------------------------------------
  alpha Z        PSCENC =      1146.53127826
  Ewald energy   TEWEN  =    -21399.55532813
  -Hartree energ DENC   =    -11423.61817885
  -exchange      EXHF   =         0.00000000
  -V(xc)+E(xc)   XCENC  =      1504.01822164
  PAW double counting   =     34039.12422585   -35301.33835470
  entropy T*S    EENTRO =        -0.04587460
  eigenvalues    EBANDS =     -1332.74327746
  atomic energy  EATOM  =     32420.79373756
  Solvation  Ediel_sol  =         0.00000000
  ---------------------------------------------------
  free energy    TOTEN  =      -346.83355043 eV

  energy without entropy =     -346.78767583  energy(sigma->0) =     -346.81061313


--------------------------------------------------------------------------------------------------------




--------------------------------------- Iteration      1(  13)  ---------------------------------------


    POTLOK:  cpu time    0.1248: real time    0.1251
    SETDIJ:  cpu time    0.0194: real time    0.0195
     EDDAV:  cpu time    2.0608: real time    2.0657
    CHARGE:  cpu time    0.1009: real time    0.1011
    MIXING:  cpu time    0.0041: real time    0.0042
    --------------------------------------------
      LOOP:  cpu time    2.3100: real time    2.3155

 eigenvalue-minimisations  :  1408
 total energy-change (2. order) : 0.5955559E+01  (-0.4621301E+01)
 number of electron     373.0000138 magnetization       8.0991007
 augmentation part      122.5822072 magnetization       6.7450225

 Broyden mixing:
  rms(total) = 0.20865E+01    rms(broyden)= 0.20853E+01
  rms(prec ) = 0.27477E+01
  weight for this iteration     100.00

 eigenvalues of (default mixing * dielectric matrix)
  average eigenvalue GAMMA=   0.4839
  1.4860  0.5077  0.5077  0.3961  0.3961  0.2828  0.1870  0.1076

 Free energy of the ion-electron system (eV)
  ---------------------------------------------------
  alpha Z        PSCENC =      1146.53127826
  Ewald energy   TEWEN  =    -21399.55532813
  -Hartree energ DENC   =    -11429.27368669
  -exchange      EXHF   =         0.00000000
  -V(xc)+E(xc)   XCENC  =      1504.01062786
  PAW double counting   =     34478.94279482   -35748.17135574
  entropy T*S    EENTRO =        -0.02432230
  eigenvalues    EBANDS =     -1314.13173699
  atomic energy  EATOM  =     32420.79373756
  Solvation  Ediel_sol  =         0.00000000
  ---------------------------------------------------
  free energy    TOTEN  =      -340.87799136 eV

  energy without entropy =     -340.85366906  energy(sigma->0) =     -340.86583021


--------------------------------------------------------------------------------------------------------




--------------------------------------- Iteration      1(  14)  ---------------------------------------


    POTLOK:  cpu time    0.1237: real time    0.1240
    SETDIJ:  cpu time    0.0202: real time    0.0202
     EDDAV:  cpu time    2.0105: real time    2.0152
    CHARGE:  cpu time    0.1008: real time    0.1010
    MIXING:  cpu time    0.0044: real time    0.0044
    --------------------------------------------
      LOOP:  cpu time    2.2596: real time    2.2650

 eigenvalue-minimisations  :  1376
 total energy-change (2. order) :-0.7613904E+00  (-0.2065572E+01)
 number of electron     373.0000139 magnetization       6.5421992
 augmentation part      123.1230833 magnetization       5.1346426

 Broyden mixing:
  rms(total) = 0.23856E+01    rms(broyden)= 0.23848E+01
  rms(prec ) = 0.30430E+01
  weight for this iteration     100.00

 eigenvalues of (default mixing * dielectric matrix)
  average eigenvalue GAMMA=   0.4764
  1.5715  0.4660  0.4660  0.4342  0.4342  0.3860  0.2640  0.1076  0.1583

 Free energy of the ion-electron system (eV)
  ---------------------------------------------------
  alpha Z        PSCENC =      1146.53127826
  Ewald energy   TEWEN  =    -21399.55532813
  -Hartree energ DENC   =    -11421.94389643
  -exchange      EXHF   =         0.00000000
  -V(xc)+E(xc)   XCENC  =      1503.57214946
  PAW double counting   =     34941.38233655   -36214.47059825
  entropy T*S    EENTRO =        -0.02109302
  eigenvalues    EBANDS =     -1317.92796780
  atomic energy  EATOM  =     32420.79373756
  Solvation  Ediel_sol  =         0.00000000
  ---------------------------------------------------
  free energy    TOTEN  =      -341.63938180 eV

  energy without entropy =     -341.61828878  energy(sigma->0) =     -341.62883529


--------------------------------------------------------------------------------------------------------




--------------------------------------- Iteration      1(  15)  ---------------------------------------


    POTLOK:  cpu time    0.1267: real time    0.1270
    SETDIJ:  cpu time    0.0199: real time    0.0199
     EDDAV:  cpu time    1.9537: real time    1.9583
    CHARGE:  cpu time    0.1016: real time    0.1018
    MIXING:  cpu time    0.0050: real time    0.0050
    --------------------------------------------
      LOOP:  cpu time    2.2069: real time    2.2121

 eigenvalue-minimisations  :  1328
 total energy-change (2. order) : 0.5699421E+00  (-0.1709600E+01)
 number of electron     373.0000137 magnetization       5.0815678
 augmentation part      123.3460130 magnetization       3.7116746

 Broyden mixing:
  rms(total) = 0.18432E+01    rms(broyden)= 0.18424E+01
  rms(prec ) = 0.23510E+01
  weight for this iteration     100.00

 eigenvalues of (default mixing * dielectric matrix)
  average eigenvalue GAMMA=   0.4856
  1.6839  0.5750  0.5750  0.4790  0.3907  0.3907  0.3183  0.1075  0.1799  0.1563

 Free energy of the ion-electron system (eV)
  ---------------------------------------------------
  alpha Z        PSCENC =      1146.53127826
  Ewald energy   TEWEN  =    -21399.55532813
  -Hartree energ DENC   =    -11420.98077781
  -exchange      EXHF   =         0.00000000
  -V(xc)+E(xc)   XCENC  =      1503.52192166
  PAW double counting   =     35191.52826581   -36466.81770008
  entropy T*S    EENTRO =        -0.00808193
  eigenvalues    EBANDS =     -1316.08275506
  atomic energy  EATOM  =     32420.79373756
  Solvation  Ediel_sol  =         0.00000000
  ---------------------------------------------------
  free energy    TOTEN  =      -341.06943974 eV

  energy without entropy =     -341.06135781  energy(sigma->0) =     -341.06539877


--------------------------------------------------------------------------------------------------------




--------------------------------------- Iteration      1(  16)  ---------------------------------------


    POTLOK:  cpu time    0.1269: real time    0.1272
    SETDIJ:  cpu time    0.0202: real time    0.0202
     EDDAV:  cpu time    1.9417: real time    1.9463
    CHARGE:  cpu time    0.0972: real time    0.0975
    MIXING:  cpu time    0.0049: real time    0.0049
    --------------------------------------------
      LOOP:  cpu time    2.1909: real time    2.1961

 eigenvalue-minimisations  :  1312
 total energy-change (2. order) : 0.3961946E+00  (-0.8012561E+00)
 number of electron     373.0000139 magnetization       4.3102226
 augmentation part      123.5378160 magnetization       2.9993757

 Broyden mixing:
  rms(total) = 0.14255E+01    rms(broyden)= 0.14249E+01
  rms(prec ) = 0.18236E+01
  weight for this iteration     100.00

 eigenvalues of (default mixing * dielectric matrix)
  average eigenvalue GAMMA=   0.5000
  1.8039  0.6802  0.6802  0.4690  0.4690  0.3648  0.3648  0.2536  0.1739  0.1075
  0.1324

 Free energy of the ion-electron system (eV)
  ---------------------------------------------------
  alpha Z        PSCENC =      1146.53127826
  Ewald energy   TEWEN  =    -21399.55532813
  -Hartree energ DENC   =    -11420.73813471
  -exchange      EXHF   =         0.00000000
  -V(xc)+E(xc)   XCENC  =      1503.57202016
  PAW double counting   =     35434.09209605   -36711.45165820
  entropy T*S    EENTRO =        -0.00827832
  eigenvalues    EBANDS =     -1313.90897776
  atomic energy  EATOM  =     32420.79373756
  Solvation  Ediel_sol  =         0.00000000
  ---------------------------------------------------
  free energy    TOTEN  =      -340.67324509 eV

  energy without entropy =     -340.66496677  energy(sigma->0) =     -340.66910593


--------------------------------------------------------------------------------------------------------




--------------------------------------- Iteration      1(  17)  ---------------------------------------


    POTLOK:  cpu time    0.1257: real time    0.1260
    SETDIJ:  cpu time    0.0202: real time    0.0203
     EDDAV:  cpu time    1.9335: real time    1.9381
    CHARGE:  cpu time    0.1001: real time    0.1003
    MIXING:  cpu time    0.0054: real time    0.0054
    --------------------------------------------
      LOOP:  cpu time    2.1849: real time    2.1901

 eigenvalue-minimisations  :  1296
 total energy-change (2. order) : 0.3671424E+00  (-0.2630103E+00)
 number of electron     373.0000140 magnetization       4.1476416
 augmentation part      123.4358554 magnetization       2.9312150

 Broyden mixing:
  rms(total) = 0.86673E+00    rms(broyden)= 0.86622E+00
  rms(prec ) = 0.10596E+01
  weight for this iteration     100.00

 eigenvalues of (default mixing * dielectric matrix)
  average eigenvalue GAMMA=   0.5063
  1.7825  0.7958  0.7958  0.5286  0.5286  0.3766  0.3766  0.2844  0.2072  0.1664
  0.1075  0.1251

 Free energy of the ion-electron system (eV)
  ---------------------------------------------------
  alpha Z        PSCENC =      1146.53127826
  Ewald energy   TEWEN  =    -21399.55532813
  -Hartree energ DENC   =    -11423.99838735
  -exchange      EXHF   =         0.00000000
  -V(xc)+E(xc)   XCENC  =      1503.66041918
  PAW double counting   =     35591.43458121   -36871.27530778
  entropy T*S    EENTRO =        -0.00352345
  eigenvalues    EBANDS =     -1307.89357221
  atomic energy  EATOM  =     32420.79373756
  Solvation  Ediel_sol  =         0.00000000
  ---------------------------------------------------
  free energy    TOTEN  =      -340.30610272 eV

  energy without entropy =     -340.30257926  energy(sigma->0) =     -340.30434099


--------------------------------------------------------------------------------------------------------




--------------------------------------- Iteration      1(  18)  ---------------------------------------


    POTLOK:  cpu time    0.1256: real time    0.1259
    SETDIJ:  cpu time    0.0202: real time    0.0203
     EDDAV:  cpu time    2.0597: real time    2.0646
    CHARGE:  cpu time    0.1006: real time    0.1008
    MIXING:  cpu time    0.0052: real time    0.0052
    --------------------------------------------
      LOOP:  cpu time    2.3113: real time    2.3168

 eigenvalue-minimisations  :  1424
 total energy-change (2. order) : 0.3068876E-01  (-0.1724970E+00)
 number of electron     373.0000140 magnetization       3.9644670
 augmentation part      123.3298041 magnetization       2.9278822

 Broyden mixing:
  rms(total) = 0.85247E+00    rms(broyden)= 0.85217E+00
  rms(prec ) = 0.10599E+01
  weight for this iteration     100.00

 eigenvalues of (default mixing * dielectric matrix)
  average eigenvalue GAMMA=   0.5073
  1.7776  0.9020  0.9020  0.5409  0.5409  0.3811  0.3811  0.3255  0.2703  0.1726
  0.1726  0.1075  0.1214

 Free energy of the ion-electron system (eV)
  ---------------------------------------------------
  alpha Z        PSCENC =      1146.53127826
  Ewald energy   TEWEN  =    -21399.55532813
  -Hartree energ DENC   =    -11425.95949158
  -exchange      EXHF   =         0.00000000
  -V(xc)+E(xc)   XCENC  =      1503.69876143
  PAW double counting   =     35669.88915392   -36950.83892870
  entropy T*S    EENTRO =        -0.02054279
  eigenvalues    EBANDS =     -1304.81405392
  atomic energy  EATOM  =     32420.79373756
  Solvation  Ediel_sol  =         0.00000000
  ---------------------------------------------------
  free energy    TOTEN  =      -340.27541396 eV

  energy without entropy =     -340.25487117  energy(sigma->0) =     -340.26514256


--------------------------------------------------------------------------------------------------------




--------------------------------------- Iteration      1(  19)  ---------------------------------------


    POTLOK:  cpu time    0.1233: real time    0.1236
    SETDIJ:  cpu time    0.0204: real time    0.0204
     EDDAV:  cpu time    1.9551: real time    1.9597
    CHARGE:  cpu time    0.1028: real time    0.1031
    MIXING:  cpu time    0.0060: real time    0.0060
    --------------------------------------------
      LOOP:  cpu time    2.2077: real time    2.2130

 eigenvalue-minimisations  :  1328
 total energy-change (2. order) : 0.6069206E-01  (-0.1193476E+00)
 number of electron     373.0000139 magnetization       3.6947397
 augmentation part      123.2912234 magnetization       2.6750938

 Broyden mixing:
  rms(total) = 0.60318E+00    rms(broyden)= 0.60290E+00
  rms(prec ) = 0.70335E+00
  weight for this iteration     100.00

 eigenvalues of (default mixing * dielectric matrix)
  average eigenvalue GAMMA=   0.5235
  1.7546  1.0814  1.0814  0.5638  0.5638  0.4663  0.3898  0.3898  0.2929  0.2036
  0.1718  0.1075  0.1425  0.1195

 Free energy of the ion-electron system (eV)
  ---------------------------------------------------
  alpha Z        PSCENC =      1146.53127826
  Ewald energy   TEWEN  =    -21399.55532813
  -Hartree energ DENC   =    -11426.96705054
  -exchange      EXHF   =         0.00000000
  -V(xc)+E(xc)   XCENC  =      1503.71706718
  PAW double counting   =     35726.76969424   -37008.39566958
  entropy T*S    EENTRO =        -0.00111532
  eigenvalues    EBANDS =     -1303.10733556
  atomic energy  EATOM  =     32420.79373756
  Solvation  Ediel_sol  =         0.00000000
  ---------------------------------------------------
  free energy    TOTEN  =      -340.21472190 eV

  energy without entropy =     -340.21360658  energy(sigma->0) =     -340.21416424


--------------------------------------------------------------------------------------------------------




--------------------------------------- Iteration      1(  20)  ---------------------------------------


    POTLOK:  cpu time    0.1334: real time    0.1337
    SETDIJ:  cpu time    0.0211: real time    0.0212
     EDDAV:  cpu time    2.1044: real time    2.1095
    CHARGE:  cpu time    0.1075: real time    0.1078
    MIXING:  cpu time    0.0062: real time    0.0062
    --------------------------------------------
      LOOP:  cpu time    2.3727: real time    2.3784

 eigenvalue-minimisations  :  1376
 total energy-change (2. order) :-0.3041345E-01  (-0.7836677E-01)
 number of electron     373.0000140 magnetization       3.6485062
 augmentation part      123.3627913 magnetization       2.6731159

 Broyden mixing:
  rms(total) = 0.61387E+00    rms(broyden)= 0.61369E+00
  rms(prec ) = 0.77325E+00
  weight for this iteration     100.00

 eigenvalues of (default mixing * dielectric matrix)
  average eigenvalue GAMMA=   0.5067
  1.7146  1.1383  1.1383  0.5685  0.5685  0.4781  0.3871  0.3871  0.2959  0.1996
  0.1996  0.1589  0.1074  0.1411  0.1175

 Free energy of the ion-electron system (eV)
  ---------------------------------------------------
  alpha Z        PSCENC =      1146.53127826
  Ewald energy   TEWEN  =    -21399.55532813
  -Hartree energ DENC   =    -11426.59600070
  -exchange      EXHF   =         0.00000000
  -V(xc)+E(xc)   XCENC  =      1503.73176101
  PAW double counting   =     35816.84525375   -37098.33280719
  entropy T*S    EENTRO =        -0.01418616
  eigenvalues    EBANDS =     -1303.64884374
  atomic energy  EATOM  =     32420.79373756
  Solvation  Ediel_sol  =         0.00000000
  ---------------------------------------------------
  free energy    TOTEN  =      -340.24513535 eV

  energy without entropy =     -340.23094918  energy(sigma->0) =     -340.23804227


--------------------------------------------------------------------------------------------------------




--------------------------------------- Iteration      1(  21)  ---------------------------------------


    POTLOK:  cpu time    0.1305: real time    0.1309
    SETDIJ:  cpu time    0.0209: real time    0.0209
     EDDAV:  cpu time    2.0332: real time    2.0381
    CHARGE:  cpu time    0.0958: real time    0.0960
    MIXING:  cpu time    0.0060: real time    0.0060
    --------------------------------------------
      LOOP:  cpu time    2.2863: real time    2.2918

 eigenvalue-minimisations  :  1376
 total energy-change (2. order) : 0.7053641E-01  (-0.5490094E-01)
 number of electron     373.0000140 magnetization       3.5881424
 augmentation part      123.3793095 magnetization       2.6390159

 Broyden mixing:
  rms(total) = 0.35607E+00    rms(broyden)= 0.35593E+00
  rms(prec ) = 0.43678E+00
  weight for this iteration     100.00

 eigenvalues of (default mixing * dielectric matrix)
  average eigenvalue GAMMA=   0.5572
  1.7168  1.7168  1.1014  0.6301  0.6301  0.5683  0.5683  0.3876  0.3876  0.2948
  0.2200  0.1692  0.1692  0.1074  0.1305  0.1173

 Free energy of the ion-electron system (eV)
  ---------------------------------------------------
  alpha Z        PSCENC =      1146.53127826
  Ewald energy   TEWEN  =    -21399.55532813
  -Hartree energ DENC   =    -11426.99876119
  -exchange      EXHF   =         0.00000000
  -V(xc)+E(xc)   XCENC  =      1503.75259718
  PAW double counting   =     35840.40797764   -37121.75102741
  entropy T*S    EENTRO =        -0.00637772
  eigenvalues    EBANDS =     -1303.34869512
  atomic energy  EATOM  =     32420.79373756
  Solvation  Ediel_sol  =         0.00000000
  ---------------------------------------------------
  free energy    TOTEN  =      -340.17459894 eV

  energy without entropy =     -340.16822122  energy(sigma->0) =     -340.17141008


--------------------------------------------------------------------------------------------------------




--------------------------------------- Iteration      1(  22)  ---------------------------------------


    POTLOK:  cpu time    0.1275: real time    0.1278
    SETDIJ:  cpu time    0.0207: real time    0.0208
     EDDAV:  cpu time    2.0181: real time    2.0229
    CHARGE:  cpu time    0.1033: real time    0.1036
    MIXING:  cpu time    0.0061: real time    0.0061
    --------------------------------------------
      LOOP:  cpu time    2.2758: real time    2.2812

 eigenvalue-minimisations  :  1376
 total energy-change (2. order) :-0.1277132E-01  (-0.2611634E-01)
 number of electron     373.0000140 magnetization       3.4913944
 augmentation part      123.3682173 magnetization       2.5243850

 Broyden mixing:
  rms(total) = 0.36861E+00    rms(broyden)= 0.36852E+00
  rms(prec ) = 0.47465E+00
  weight for this iteration     100.00

 eigenvalues of (default mixing * dielectric matrix)
  average eigenvalue GAMMA=   0.5633
  1.8101  1.8101  1.1799  0.6471  0.6471  0.5936  0.5936  0.3881  0.3881  0.3396
  0.2886  0.2084  0.1713  0.1580  0.1074  0.1275  0.1170

 Free energy of the ion-electron system (eV)
  ---------------------------------------------------
  alpha Z        PSCENC =      1146.53127826
  Ewald energy   TEWEN  =    -21399.55532813
  -Hartree energ DENC   =    -11428.99733762
  -exchange      EXHF   =         0.00000000
  -V(xc)+E(xc)   XCENC  =      1503.85870704
  PAW double counting   =     35884.37333397   -37165.51026782
  entropy T*S    EENTRO =        -0.01524115
  eigenvalues    EBANDS =     -1301.66625236
  atomic energy  EATOM  =     32420.79373756
  Solvation  Ediel_sol  =         0.00000000
  ---------------------------------------------------
  free energy    TOTEN  =      -340.18737026 eV

  energy without entropy =     -340.17212911  energy(sigma->0) =     -340.17974968


--------------------------------------------------------------------------------------------------------




--------------------------------------- Iteration      1(  23)  ---------------------------------------


    POTLOK:  cpu time    0.1254: real time    0.1257
    SETDIJ:  cpu time    0.0192: real time    0.0193
     EDDAV:  cpu time    2.0359: real time    2.0408
    CHARGE:  cpu time    0.1019: real time    0.1022
    MIXING:  cpu time    0.0066: real time    0.0066
    --------------------------------------------
      LOOP:  cpu time    2.2890: real time    2.2945

 eigenvalue-minimisations  :  1376
 total energy-change (2. order) : 0.1445571E-01  (-0.2433070E-01)
 number of electron     373.0000139 magnetization       3.3442748
 augmentation part      123.3702725 magnetization       2.4159272

 Broyden mixing:
  rms(total) = 0.28533E+00    rms(broyden)= 0.28524E+00
  rms(prec ) = 0.38517E+00
  weight for this iteration     100.00

 eigenvalues of (default mixing * dielectric matrix)
  average eigenvalue GAMMA=   0.5781
  1.9691  1.9691  0.9216  0.9216  0.7850  0.6090  0.6090  0.4759  0.3882  0.3882
  0.2907  0.2164  0.1811  0.1698  0.1594  0.1074  0.1278  0.1169

 Free energy of the ion-electron system (eV)
  ---------------------------------------------------
  alpha Z        PSCENC =      1146.53127826
  Ewald energy   TEWEN  =    -21399.55532813
  -Hartree energ DENC   =    -11429.98111020
  -exchange      EXHF   =         0.00000000
  -V(xc)+E(xc)   XCENC  =      1503.90978768
  PAW double counting   =     35911.38013543   -37192.62406059
  entropy T*S    EENTRO =        -0.00845522
  eigenvalues    EBANDS =     -1300.61889934
  atomic energy  EATOM  =     32420.79373756
  Solvation  Ediel_sol  =         0.00000000
  ---------------------------------------------------
  free energy    TOTEN  =      -340.17291455 eV

  energy without entropy =     -340.16445933  energy(sigma->0) =     -340.16868694


--------------------------------------------------------------------------------------------------------




--------------------------------------- Iteration      1(  24)  ---------------------------------------


    POTLOK:  cpu time    0.1275: real time    0.1278
    SETDIJ:  cpu time    0.0200: real time    0.0200
     EDDAV:  cpu time    2.0587: real time    2.0636
    CHARGE:  cpu time    0.1027: real time    0.1029
    MIXING:  cpu time    0.0066: real time    0.0066
    --------------------------------------------
      LOOP:  cpu time    2.3154: real time    2.3209

 eigenvalue-minimisations  :  1424
 total energy-change (2. order) : 0.8056724E-02  (-0.1201789E-01)
 number of electron     373.0000140 magnetization       3.2846025
 augmentation part      123.3797793 magnetization       2.3698114

 Broyden mixing:
  rms(total) = 0.24960E+00    rms(broyden)= 0.24953E+00
  rms(prec ) = 0.33435E+00
  weight for this iteration     100.00

 eigenvalues of (default mixing * dielectric matrix)
  average eigenvalue GAMMA=   0.5676
  2.0462  1.8148  1.0621  1.0621  0.7376  0.6044  0.6044  0.4943  0.3880  0.3880
  0.2889  0.2486  0.2140  0.1074  0.1691  0.1676  0.1171  0.1272  0.1428

 Free energy of the ion-electron system (eV)
  ---------------------------------------------------
  alpha Z        PSCENC =      1146.53127826
  Ewald energy   TEWEN  =    -21399.55532813
  -Hartree energ DENC   =    -11430.71791243
  -exchange      EXHF   =         0.00000000
  -V(xc)+E(xc)   XCENC  =      1503.95812258
  PAW double counting   =     35943.41422589   -37224.75108593
  entropy T*S    EENTRO =        -0.00652146
  eigenvalues    EBANDS =     -1299.83137415
  atomic energy  EATOM  =     32420.79373756
  Solvation  Ediel_sol  =         0.00000000
  ---------------------------------------------------
  free energy    TOTEN  =      -340.16485783 eV

  energy without entropy =     -340.15833636  energy(sigma->0) =     -340.16159710


--------------------------------------------------------------------------------------------------------




--------------------------------------- Iteration      1(  25)  ---------------------------------------


    POTLOK:  cpu time    0.1272: real time    0.1275
    SETDIJ:  cpu time    0.0202: real time    0.0202
     EDDAV:  cpu time    2.0397: real time    2.0446
    CHARGE:  cpu time    0.1016: real time    0.1018
    MIXING:  cpu time    0.0070: real time    0.0070
    --------------------------------------------
      LOOP:  cpu time    2.2957: real time    2.3011

 eigenvalue-minimisations  :  1408
 total energy-change (2. order) : 0.8049239E-02  (-0.6425037E-02)
 number of electron     373.0000140 magnetization       3.2620460
 augmentation part      123.3921072 magnetization       2.3577444

 Broyden mixing:
  rms(total) = 0.19068E+00    rms(broyden)= 0.19062E+00
  rms(prec ) = 0.24073E+00
  weight for this iteration     100.00

 eigenvalues of (default mixing * dielectric matrix)
  average eigenvalue GAMMA=   0.5436
  2.0745  1.7940  1.0742  1.0742  0.7210  0.6024  0.6024  0.4959  0.3879  0.3879
  0.2875  0.2541  0.2153  0.1693  0.1693  0.1074  0.1430  0.1276  0.1173  0.0673

 Free energy of the ion-electron system (eV)
  ---------------------------------------------------
  alpha Z        PSCENC =      1146.53127826
  Ewald energy   TEWEN  =    -21399.55532813
  -Hartree energ DENC   =    -11430.79410637
  -exchange      EXHF   =         0.00000000
  -V(xc)+E(xc)   XCENC  =      1503.96657484
  PAW double counting   =     35950.48294048   -37231.76311223
  entropy T*S    EENTRO =        -0.00472030
  eigenvalues    EBANDS =     -1299.81407269
  atomic energy  EATOM  =     32420.79373756
  Solvation  Ediel_sol  =         0.00000000
  ---------------------------------------------------
  free energy    TOTEN  =      -340.15680859 eV

  energy without entropy =     -340.15208829  energy(sigma->0) =     -340.15444844


--------------------------------------------------------------------------------------------------------




--------------------------------------- Iteration      1(  26)  ---------------------------------------


    POTLOK:  cpu time    0.1248: real time    0.1251
    SETDIJ:  cpu time    0.0200: real time    0.0201
     EDDAV:  cpu time    2.0776: real time    2.0825
    CHARGE:  cpu time    0.1014: real time    0.1017
    MIXING:  cpu time    0.0072: real time    0.0072
    --------------------------------------------
      LOOP:  cpu time    2.3310: real time    2.3366

 eigenvalue-minimisations  :  1440
 total energy-change (2. order) : 0.4453898E-03  (-0.9270715E-03)
 number of electron     373.0000140 magnetization       3.2698324
 augmentation part      123.3854230 magnetization       2.3649970

 Broyden mixing:
  rms(total) = 0.18406E+00    rms(broyden)= 0.18405E+00
  rms(prec ) = 0.22877E+00
  weight for this iteration     100.00

 eigenvalues of (default mixing * dielectric matrix)
  average eigenvalue GAMMA=   0.5562
  2.1408  1.7886  1.0531  1.0531  0.5745  0.7281  0.6085  0.6085  0.4927  0.3877
  0.3877  0.3415  0.2928  0.2178  0.1867  0.1708  0.1074  0.1588  0.1169  0.1265
  0.1366

 Free energy of the ion-electron system (eV)
  ---------------------------------------------------
  alpha Z        PSCENC =      1146.53127826
  Ewald energy   TEWEN  =    -21399.55532813
  -Hartree energ DENC   =    -11430.89135611
  -exchange      EXHF   =         0.00000000
  -V(xc)+E(xc)   XCENC  =      1503.96992585
  PAW double counting   =     35952.01510923   -37233.30529151
  entropy T*S    EENTRO =        -0.00472251
  eigenvalues    EBANDS =     -1299.70971581
  atomic energy  EATOM  =     32420.79373756
  Solvation  Ediel_sol  =         0.00000000
  ---------------------------------------------------
  free energy    TOTEN  =      -340.15636320 eV

  energy without entropy =     -340.15164068  energy(sigma->0) =     -340.15400194


--------------------------------------------------------------------------------------------------------




--------------------------------------- Iteration      1(  27)  ---------------------------------------


    POTLOK:  cpu time    0.1252: real time    0.1255
    SETDIJ:  cpu time    0.0199: real time    0.0200
     EDDAV:  cpu time    2.2054: real time    2.2107
    CHARGE:  cpu time    0.1014: real time    0.1017
    MIXING:  cpu time    0.0077: real time    0.0078
    --------------------------------------------
      LOOP:  cpu time    2.4598: real time    2.4656

 eigenvalue-minimisations  :  1536
 total energy-change (2. order) : 0.4042161E-03  (-0.1245292E-03)
 number of electron     373.0000140 magnetization       3.2557668
 augmentation part      123.3872522 magnetization       2.3491854

 Broyden mixing:
  rms(total) = 0.19442E+00    rms(broyden)= 0.19441E+00
  rms(prec ) = 0.24005E+00
  weight for this iteration     100.00

 eigenvalues of (default mixing * dielectric matrix)
  average eigenvalue GAMMA=   0.5292
  2.1468  1.7997  1.0377  1.0377  0.7402  0.6085  0.6085  0.4868  0.3879  0.3879
  0.2839  0.2839  0.3216  0.2928  0.2173  0.1842  0.1710  0.1074  0.1588  0.1169
  0.1265  0.1365

 Free energy of the ion-electron system (eV)
  ---------------------------------------------------
  alpha Z        PSCENC =      1146.53127826
  Ewald energy   TEWEN  =    -21399.55532813
  -Hartree energ DENC   =    -11430.88557279
  -exchange      EXHF   =         0.00000000
  -V(xc)+E(xc)   XCENC  =      1503.97073050
  PAW double counting   =     35952.03392447   -37233.32407599
  entropy T*S    EENTRO =        -0.00538650
  eigenvalues    EBANDS =     -1299.71526635
  atomic energy  EATOM  =     32420.79373756
  Solvation  Ediel_sol  =         0.00000000
[...]
 -----------------------------------------------------------------------------------------------
   0.224E+01 0.294E+00 -.241E+01   -.217E+01 -.254E+00 0.233E+01   -.761E-01 -.380E-01 0.836E-01   0.289E-02 -.173E-02 -.261E-02
   0.304E+00 0.120E+01 0.762E+00   -.212E+00 -.185E+01 -.724E+00   -.908E-01 0.639E+00 -.416E-01   0.155E-02 -.204E-02 0.242E-02
   0.420E+01 -.116E+00 -.495E+01   -.397E+01 0.104E+00 0.466E+01   -.231E+00 0.103E-01 0.290E+00   0.209E-02 0.167E-02 -.245E-02
   -.401E+01 -.372E+00 0.479E+01   0.374E+01 0.107E+01 -.448E+01   0.269E+00 -.652E+00 -.308E+00   0.125E-02 -.108E-02 -.405E-02
   0.177E+01 -.327E+00 -.542E+01   -.160E+01 0.289E+00 0.516E+01   -.171E+00 0.354E-01 0.257E+00   -.202E-02 0.204E-02 0.304E-02
   0.399E+01 -.989E+00 0.384E+01   -.388E+01 0.129E+00 -.380E+01   -.114E+00 0.841E+00 -.422E-01   -.283E-03 -.269E-03 -.271E-02
   -.503E+00 -.648E+00 0.241E+01   0.541E+00 0.136E+01 -.232E+01   -.377E-01 -.689E+00 -.895E-01   -.252E-02 0.222E-02 0.101E-02
   0.492E+02 0.908E+01 -.167E+02   -.500E+02 -.938E+01 0.167E+02   0.823E+00 0.291E+00 -.591E-01   0.135E-01 0.509E-02 0.104E-01
   -.460E+02 0.122E+02 0.159E+02   0.467E+02 -.123E+02 -.161E+02   -.755E+00 0.295E-01 0.198E+00   0.122E-01 -.465E-02 0.514E-02
   -.209E+02 -.430E+00 -.205E+02   0.210E+02 0.595E+00 0.211E+02   -.177E+00 -.157E+00 -.589E+00   -.321E-02 -.115E-01 0.912E-03
   0.799E+01 -.111E+00 0.239E+01   -.795E+01 0.104E+00 -.191E+01   -.373E-01 -.127E-02 -.478E+00   -.442E-02 0.956E-02 0.600E-02
   -.178E+02 -.139E+02 0.386E+02   0.184E+02 0.141E+02 -.389E+02   -.635E+00 -.171E+00 0.301E+00   0.108E-01 0.370E-02 0.966E-02
   0.207E+02 -.755E+01 -.356E+02   -.217E+02 0.774E+01 0.360E+02   0.103E+01 -.183E+00 -.402E+00   0.185E-01 -.758E-02 0.497E-02
   0.286E+02 0.966E+01 -.145E+02   -.289E+02 -.999E+01 0.147E+02   0.293E+00 0.330E+00 -.217E+00   -.670E-02 0.518E-02 0.697E-02
   -.163E+02 -.754E+01 -.889E+02   0.159E+02 0.774E+01 0.900E+02   0.399E+00 -.193E+00 -.107E+01   -.772E-02 -.760E-02 0.237E-02
   -.478E+02 0.970E+01 0.154E+02   0.485E+02 -.995E+01 -.153E+02   -.727E+00 0.262E+00 -.163E-01   0.140E-01 -.556E-02 -.991E-02
   0.235E+02 0.450E+00 0.237E+02   -.238E+02 -.353E+00 -.245E+02   0.271E+00 -.938E-01 0.713E+00   0.181E-02 -.275E-02 -.135E-02
   0.426E+02 0.125E+02 -.198E+02   -.432E+02 -.125E+02 0.200E+02   0.632E+00 0.324E-02 -.255E+00   -.840E-02 -.340E-02 -.216E-02
   0.146E+02 -.138E+02 -.439E+02   -.152E+02 0.139E+02 0.442E+02   0.565E+00 -.139E+00 -.361E+00   -.852E-02 0.283E-02 -.728E-02
   -.274E+01 -.192E+01 0.340E+01   0.260E+01 0.196E+01 -.400E+01   0.127E+00 -.427E-01 0.605E+00   0.285E-02 0.158E-02 -.750E-02
   -.186E+02 -.817E+01 0.363E+02   0.197E+02 0.833E+01 -.368E+02   -.108E+01 -.168E+00 0.470E+00   0.123E-01 0.339E-02 -.433E-02
   -.308E+02 0.101E+02 0.178E+02   0.312E+02 -.104E+02 -.182E+02   -.406E+00 0.315E+00 0.338E+00   -.210E-01 -.521E-02 -.870E-02
   0.125E+02 -.779E+01 0.862E+02   -.121E+02 0.796E+01 -.872E+02   -.377E+00 -.181E+00 0.102E+01   -.214E-01 0.333E-02 -.224E-02
   0.409E+02 0.375E-01 0.370E+03   -.453E+02 -.148E+00 -.391E+03   0.444E+01 0.900E-01 0.209E+02   -.104E-01 0.194E-01 0.851E-03
   -.854E+01 0.277E+02 -.371E+03   0.917E+01 -.300E+02 0.392E+03   -.664E+00 0.226E+01 -.203E+02   0.245E-01 -.260E-01 0.147E-01
   -.729E+02 0.836E-01 -.360E+03   0.782E+02 -.274E+00 0.381E+03   -.531E+01 0.178E+00 -.204E+02   0.171E-01 0.119E-01 -.421E-02
   0.427E+01 0.283E+02 0.361E+03   -.424E+01 -.308E+02 -.381E+03   0.124E-01 0.247E+01 0.200E+02   -.271E-01 0.517E-02 -.241E-02
   -.151E+02 -.278E+02 0.378E+03   0.152E+02 0.297E+02 -.400E+03   -.875E-01 -.197E+01 0.228E+02   -.948E-03 -.101E-02 0.161E-01
   -.768E+01 0.163E+02 -.333E+03   0.103E+02 -.170E+02 0.352E+03   -.264E+01 0.651E+00 -.189E+02   -.413E-01 0.204E-02 0.193E-02
   0.221E+02 -.235E+02 -.342E+03   -.231E+02 0.251E+02 0.362E+03   0.105E+01 -.163E+01 -.199E+02   -.137E-01 -.226E-03 -.125E-01
   -.128E+02 0.276E+02 0.372E+03   0.127E+02 -.295E+02 -.395E+03   0.240E-01 0.188E+01 0.229E+02   0.218E-01 0.200E-02 0.842E-02
   0.490E+02 0.102E+01 -.338E+03   -.505E+02 -.889E+00 0.356E+03   0.149E+01 -.135E+00 -.178E+02   0.387E-02 -.136E-02 -.732E-02
   0.152E+02 0.216E+02 0.339E+03   -.181E+02 -.230E+02 -.358E+03   0.291E+01 0.136E+01 0.189E+02   0.917E-02 -.484E-04 -.545E-02
   -.161E+02 -.289E+02 0.345E+03   0.171E+02 0.313E+02 -.365E+03   -.104E+01 -.241E+01 0.196E+02   0.134E-01 0.179E-02 -.547E-02
   0.453E+02 -.144E+01 -.334E+03   -.465E+02 0.134E+01 0.352E+03   0.127E+01 0.949E-01 -.183E+02   -.594E-02 0.269E-02 0.169E-02
   0.119E+02 0.958E+00 0.400E+03   -.138E+02 -.951E+00 -.425E+03   0.191E+01 0.105E-01 0.249E+02   -.570E-02 -.190E-01 -.543E-03
   -.417E+02 -.223E+02 -.356E+03   0.468E+02 0.237E+02 0.374E+03   -.510E+01 -.140E+01 -.176E+02   0.196E-01 0.250E-01 0.177E-01
   -.846E+02 0.442E+00 -.366E+03   0.916E+02 -.383E+00 0.386E+03   -.704E+01 -.507E-01 -.196E+02   0.123E-02 -.106E-01 0.299E-02
   0.502E+02 -.219E+02 0.337E+03   -.563E+02 0.234E+02 -.355E+03   0.608E+01 -.146E+01 0.172E+02   -.111E-01 -.627E-02 -.147E-01
   0.653E+02 0.573E+00 0.361E+03   -.701E+02 -.753E+00 -.381E+03   0.480E+01 0.209E+00 0.204E+02   -.249E-01 -.284E-01 -.120E-01
   0.412E+01 0.267E+02 -.360E+03   -.470E+01 -.291E+02 0.380E+03   0.564E+00 0.234E+01 -.200E+02   0.145E-01 0.199E-01 -.532E-02
   -.467E+02 -.119E+00 -.370E+03   0.520E+02 -.475E-01 0.390E+03   -.538E+01 0.163E+00 -.204E+02   0.658E-02 0.418E-02 0.130E-01
   0.102E+02 0.283E+02 0.371E+03   -.110E+02 -.306E+02 -.391E+03   0.782E+00 0.236E+01 0.201E+02   -.192E-02 0.130E-01 -.236E-02
   -.395E+02 -.233E+00 0.336E+03   0.403E+02 0.489E+00 -.354E+03   -.857E+00 -.251E+00 0.181E+02   0.425E-01 -.488E-02 -.829E-02
   -.208E+02 0.211E+02 -.337E+03   0.240E+02 -.224E+02 0.356E+03   -.327E+01 0.128E+01 -.192E+02   0.962E-02 -.255E-02 -.126E-01
   0.108E+02 -.278E+02 -.344E+03   -.114E+02 0.299E+02 0.364E+03   0.701E+00 -.213E+01 -.202E+02   -.170E-01 0.404E-02 -.673E-02
   -.367E+02 -.493E+00 0.331E+03   0.375E+02 0.425E+00 -.350E+03   -.843E+00 0.616E-01 0.186E+02   0.133E-01 0.521E-02 0.745E-02
   0.170E+02 -.287E+02 -.373E+03   -.171E+02 0.307E+02 0.395E+03   0.121E+00 -.197E+01 -.224E+02   -.196E-01 -.186E-01 0.538E-03
   0.597E+00 0.168E+02 0.331E+03   -.269E+01 -.175E+02 -.350E+03   0.210E+01 0.669E+00 0.189E+02   -.292E-02 -.156E-01 0.113E-01
   -.289E+02 -.229E+02 0.339E+03   0.304E+02 0.244E+02 -.358E+03   -.149E+01 -.152E+01 0.198E+02   0.102E-01 0.171E-01 0.401E-02
   0.141E+02 0.277E+02 -.367E+03   -.140E+02 -.294E+02 0.390E+03   -.213E-01 0.173E+01 -.226E+02   -.206E-01 0.199E-01 0.142E-02
   0.712E+02 0.267E+00 0.368E+03   -.767E+02 -.220E+00 -.388E+03   0.552E+01 -.772E-01 0.198E+02   -.240E-01 0.287E-01 -.130E-01
   -.366E+02 -.202E+02 -.343E+03   0.414E+02 0.216E+02 0.362E+03   -.477E+01 -.134E+01 -.182E+02   0.143E-01 -.207E-01 -.262E-02
   -.879E+01 0.534E+00 -.402E+03   0.101E+02 -.478E+00 0.427E+03   -.132E+01 -.534E-01 -.251E+02   0.826E-02 -.389E-02 0.146E-01
   0.402E+02 -.214E+02 0.360E+03   -.450E+02 0.228E+02 -.378E+03   0.472E+01 -.138E+01 0.180E+02   -.396E-02 -.128E-01 -.456E-02
 -----------------------------------------------------------------------------------------------
   0.184E+01 -.646E-01 0.103E+00   0.341E-12 -.533E-13 0.171E-12   -.184E+01 0.656E-01 -.100E+00   0.659E-02 -.299E-02 -.575E-02
 
 
 POSITION                                       TOTAL-FORCE (eV/Angst)
 -----------------------------------------------------------------------------------
      1.59139      5.53743      2.43957        -0.001230      0.000738      0.001805
      2.30297      1.20537      7.30244         0.002519     -0.017414     -0.001329
      1.57765      2.76964      2.43825         0.000886     -0.000396      0.001995
      4.75883      3.07324      7.32692        -0.000581      0.041229     -0.000491
      6.51692      5.52365      2.49620        -0.003452     -0.000135     -0.000795
     -2.61589      1.13587      7.22071        -0.003646     -0.017844      0.001323
     -0.16671      3.05250      7.26243        -0.002036      0.029980     -0.000860
      0.00425      5.53774      0.02996         0.003371     -0.000503      0.005796
     -1.03456      1.38152      9.65026         0.003448      0.001352      0.001067
      3.89133      1.37940      9.71354         0.006476     -0.002846      0.002321
      3.87510      4.14805      9.70475         0.004819      0.001434      0.004783
     -1.05174      4.15402      9.64222         0.002752     -0.003233      0.004197
      0.00274      2.77199      0.03876         0.004734     -0.001665      0.003017
      4.92300      5.53986      0.08239         0.004057     -0.001306      0.002306
      4.93830      2.77449      0.13962         0.003577     -0.001657      0.000023
      3.17419      5.53790      4.84869        -0.003909     -0.001590     -0.004752
      5.63672      1.38447      4.91776        -0.002879      0.000870      0.000648
      0.70559      1.37988      4.86887        -0.003985     -0.000870     -0.001041
      0.72365      4.15460      4.87647        -0.003084      0.000657     -0.003855
      5.64800      4.15236      4.92376        -0.002278     -0.001188     -0.002527
      3.17095      2.77143      4.83817        -0.003552      0.000039     -0.002180
     -1.75018      5.53642      4.79753        -0.003809     -0.000420     -0.003900
      8.08159      2.77094      4.90294        -0.004326     -0.000782     -0.000794
      4.94577      5.53550      3.92975         0.002409     -0.000675     -0.002054
      1.46243      0.01520      5.84189        -0.007087     -0.001416     -0.002911
      3.15277      5.53678      1.02524        -0.001678     -0.000653      0.002457
      3.13281      0.01043      8.73784         0.009221     -0.001805     -0.000219
      7.30538      1.35329      3.98563         0.001255      0.000153     -0.000168
     -1.02322      1.41452      5.76528        -0.013667     -0.001652     -0.002332
     -0.98491      4.12521      5.73769        -0.007848      0.000710     -0.002848
      7.31125      4.17912      3.98580         0.004275     -0.001643     -0.000632
      0.81543      1.37479      0.99051        -0.000773     -0.000189      0.003792
      5.61538      1.38982      8.81736         0.012860     -0.002724      0.004787
      5.57311      4.14332      8.83966         0.010080     -0.000460      0.003404
      0.79856      4.16240      0.98851        -0.003082     -0.001983      0.004046
      4.93722      2.77500      3.94873         0.001968     -0.001250     -0.000741
      1.40283      2.74450      5.88466        -0.008099      0.002423     -0.002948
      3.08023      2.78109      1.05997        -0.001941     -0.001588      0.000816
      3.23936      2.73973      8.66600         0.009939      0.000637     -0.000202
      0.01604      5.53184      3.87765         0.001621      0.000031     -0.000958
      6.39138      0.01357      5.89471        -0.007738     -0.001936     -0.002527
      8.04881      5.53282      1.09918        -0.004850      0.000462     -0.000795
     -1.74784      0.01327      8.65478         0.009253     -0.001623      0.003943
      2.36321      1.37593      3.89232         0.004258     -0.000343     -0.002809
      3.90940      1.39992      5.82791        -0.011050     -0.002910     -0.005320
      3.94902      4.14222      5.80364        -0.010051      0.000452     -0.005051
      2.37520      4.15722      3.89162         0.002286     -0.001025     -0.001903
      5.74250      1.36085      1.02852        -0.001840     -0.001593     -0.001274
      0.67008      1.42247      8.75762         0.009202     -0.003348      0.001859
      0.63426      4.11856      8.78194         0.007542      0.000932      0.002380
      5.73095      4.17807      1.02918        -0.002271     -0.000634      0.000342
      0.04410      2.77600      3.86571        -0.000887     -0.000799     -0.000370
      6.33106      2.74863      5.93371        -0.007659      0.001207     -0.004313
      8.09440      2.77558      1.06544        -0.002058     -0.001301     -0.000369
     -1.73851      2.74501      8.63331         0.008543      0.000091      0.006162
 -----------------------------------------------------------------------------------
    total drift:                                0.004926     -0.001970     -0.003165


--------------------------------------------------------------------------------------------------------



  FREE ENERGIE OF THE ION-ELECTRON SYSTEM (eV)
  ---------------------------------------------------
  free  energy   TOTEN  =      -340.2177686021 eV

  energy  without entropy=     -340.2171041022  energy(sigma->0) =     -340.21743635
 
 d Force = 0.1106009E-03[ 0.107E-03, 0.114E-03]  d Energy = 0.1208385E-03-0.102E-04
 d Force =-0.5994648E+00[-0.600E+00,-0.599E+00]  d Ewald  =-0.6441173E+00 0.447E-01


--------------------------------------------------------------------------------------------------------


    POTLOK:  cpu time    0.1201: real time    0.1204


--------------------------------------------------------------------------------------------------------


 Quasi-Newton relaxation of ions (Broydens 2nd method)
  g(Force)  = 0.271E-03   g(Stress)= 0.221E-03

 retain information from N=  2 steps
 eigenvalues of (default step * inverse Hessian matrix)
  average eigenvalue of G=   0.7186
 eigenvalue spectrum of G is  0.2100  1.2272


--------------------------------------------------------------------------------------------------------


     LOOP+:  cpu time    8.3057: real time    8.4048
    4ORBIT:  cpu time    0.0000: real time    0.0000

volume of typ            1:    10.3 %

volume of typ            2:    19.3 %

volume of typ            3:     9.9 %
 
total charge     
 
# of ion       s       p       d       tot
------------------------------------------
    1        2.070   0.218   0.081   2.368
    2        2.065   0.198   0.074   2.338
    3        2.076   0.230   0.086   2.392
    4        2.073   0.226   0.084   2.384
    5        2.067   0.207   0.078   2.353
    6        2.066   0.204   0.077   2.347
    7        2.070   0.221   0.082   2.374
    8        0.273   0.367   7.864   8.504
    9        0.298   0.427   7.845   8.571
   10        0.298   0.425   7.841   8.565
   11        0.296   0.420   7.837   8.554
   12        0.297   0.422   7.842   8.561
   13        0.278   0.375   7.860   8.513
   14        0.280   0.381   7.854   8.515
   15        0.272   0.362   7.868   8.503
   16        0.276   0.374   7.850   8.500
   17        0.296   0.420   7.845   8.561
   18        0.295   0.419   7.853   8.567
   19        0.293   0.414   7.847   8.554
   20        0.295   0.416   7.842   8.553
   21        0.278   0.375   7.859   8.512
   22        0.284   0.391   7.849   8.524
   23        0.276   0.375   7.853   8.503
   24        1.275   2.751   0.007   4.033
   25        1.270   2.762   0.007   4.039
   26        1.274   2.754   0.007   4.035
   27        1.270   2.763   0.007   4.040
   28        1.273   2.752   0.008   4.033
   29        1.267   2.771   0.007   4.044
   30        1.269   2.769   0.007   4.045
   31        1.272   2.757   0.008   4.037
   32        1.263   2.781   0.007   4.051
   33        1.267   2.769   0.007   4.044
   34        1.269   2.770   0.007   4.046
   35        1.262   2.786   0.007   4.055
   36        1.285   2.724   0.008   4.017
   37        1.266   2.773   0.007   4.046
   38        1.274   2.755   0.007   4.037
   39        1.266   2.774   0.006   4.046
   40        1.274   2.754   0.007   4.035
   41        1.270   2.765   0.007   4.043
   42        1.275   2.754   0.007   4.036
   43        1.269   2.766   0.007   4.042
   44        1.263   2.779   0.007   4.049
   45        1.268   2.767   0.007   4.042
   46        1.269   2.768   0.007   4.044
   47        1.262   2.783   0.007   4.052
   48        1.272   2.756   0.008   4.036
   49        1.265   2.775   0.007   4.047
   50        1.267   2.775   0.008   4.049
   51        1.271   2.762   0.008   4.041
   52        1.275   2.752   0.007   4.034
   53        1.268   2.769   0.007   4.043
   54        1.284   2.724   0.008   4.016
   55        1.267   2.771   0.007   4.045
--------------------------------------------------
tot          59.71   96.30  126.41  282.42
 
magnetization (x)
 
# of ion       s       p       d       tot
------------------------------------------
    1        0.004   0.004   0.000   0.008
    2       -0.001  -0.000  -0.000  -0.001
    3        0.002   0.006   0.001   0.009
    4        0.002   0.007   0.001   0.010
    5        0.000   0.002  -0.000   0.002
    6        0.000  -0.001  -0.000  -0.000
    7        0.004   0.006   0.000   0.010
    8       -0.001   0.000  -0.328  -0.329
    9       -0.000  -0.000  -0.013  -0.014
   10       -0.001  -0.000  -0.019  -0.020
   11       -0.000  -0.000  -0.036  -0.037
   12       -0.000  -0.000   0.008   0.007
   13        0.001   0.000   0.375   0.376
   14        0.001  -0.000   0.311   0.312
   15        0.005  -0.000   0.560   0.565
   16        0.000  -0.000   0.286   0.287
   17       -0.001   0.000  -0.057  -0.058
   18       -0.000   0.000   0.029   0.028
   19       -0.001   0.000  -0.055  -0.055
   20       -0.001   0.000  -0.006  -0.006
   21        0.001   0.000   0.447   0.448
   22        0.001  -0.000   0.252   0.252
   23        0.002   0.000   0.378   0.380
   24        0.002   0.018   0.000   0.020
   25        0.003   0.031   0.000   0.034
   26        0.003   0.021   0.000   0.025
   27        0.003   0.028   0.000   0.030
   28        0.001   0.003   0.000   0.004
   29        0.001   0.009   0.000   0.011
   30        0.000   0.004   0.000   0.004
   31        0.001   0.005   0.000   0.006
   32       -0.000  -0.004   0.000  -0.005
   33       -0.001   0.000   0.000  -0.001
   34       -0.001  -0.003   0.000  -0.004
   35        0.000  -0.002   0.000  -0.002
   36        0.004   0.071   0.000   0.075
   37        0.004   0.038   0.000   0.042
   38        0.006   0.078   0.000   0.084
   39        0.005   0.072   0.000   0.077
   40        0.002   0.016   0.000   0.018
   41        0.002   0.021   0.000   0.023
   42       -0.004  -0.054  -0.000  -0.058
   43       -0.003  -0.051  -0.000  -0.054
   44        0.003   0.011   0.000   0.014
   45        0.001   0.002   0.000   0.003
   46        0.002   0.013   0.000   0.015
   47        0.002  -0.002   0.000  -0.000
   48        0.002   0.013   0.000   0.015
   49        0.001   0.008   0.000   0.009
   50        0.002   0.015   0.000   0.017
   51        0.001   0.008   0.000   0.010
   52        0.003   0.035   0.000   0.038
   53        0.004   0.037   0.000   0.041
   54        0.004   0.060   0.000   0.064
   55        0.004   0.032   0.000   0.036
--------------------------------------------------
tot           0.07    0.56    2.13    2.76
 

 total amount of memory used by VASP MPI-rank0    88644. kBytes
=======================================================================

   base      :      30000. kBytes
   nonlr-proj:      20567. kBytes
   fftplans  :       4884. kBytes
   grid      :      28787. kBytes
   one-center:        855. kBytes
   wavefun   :       3551. kBytes
 
  
  
 General timing and accounting informations for this job:
 ========================================================
  
                  Total CPU time used (sec):      437.456
                            User time (sec):      434.389
                          System time (sec):        3.067
                         Elapsed time (sec):      449.227
  
                   Maximum memory used (kb):      143612.
                   Average memory used (kb):           0.
  
                          Minor page faults:        37225
                          Major page faults:           58
                 Voluntary context switches:         1520
