 vasp.5.4.4.18Apr17-6-g9f103f2a35 (build May 12 2020 05:39:39) gamma-only       
  
 MD_VERSION_INFO: Compiled 2020-05-12T12:39:39-UTC in devlin.sd.materialsdesign.
 com:/home/medea2/data/build/wwolf/vasp-gpu5.4.4/13047/x86_64/src/src/build/gam 
 from svn 13047
 
 This VASP executable licensed from Materials Design, Inc.
 
 executed on                        Lin64 date 2023.03.07  03:42:16
 running on   16 total cores
 distrk:  each k-point on   16 cores,    1 groups
 distr:  one band on NCORES_PER_BAND=   1 cores,   16 groups


--------------------------------------------------------------------------------------------------------


 INCAR:
 POTCAR:    PAW_PBE Li_sv 10Sep2004               
 POTCAR:    PAW_PBE Ni 02Aug2007                  
 POTCAR:    PAW_PBE O 08Apr2002                   

 ----------------------------------------------------------------------------- 
|                                                                             |
|           W    W    AA    RRRRR   N    N  II  N    N   GGGG   !!!           |
|           W    W   A  A   R    R  NN   N  II  NN   N  G    G  !!!           |
|           W    W  A    A  R    R  N N  N  II  N N  N  G       !!!           |
|           W WW W  AAAAAA  RRRRR   N  N N  II  N  N N  G  GGG   !            |
|           WW  WW  A    A  R   R   N   NN  II  N   NN  G    G                |
|           W    W  A    A  R    R  N    N  II  N    N   GGGG   !!!           |
|                                                                             |
|      For optimal performance we recommend to set                            |
|        NCORE= 4 - approx SQRT( number of cores)                             |
|      NCORE specifies how many cores store one orbital (NPAR=cpu/NCORE).     |
|      This setting can  greatly improve the performance of VASP for DFT.     |
|      The default,   NCORE=1            might be grossly inefficient         |
|      on modern multi-core architectures or massively parallel machines.     |
|      Do your own testing !!!!                                               |
|      Unfortunately you need to use the default for GW and RPA calculations. |
|      (for HF NCORE is supported but not extensively tested yet)             |
|                                                                             |
 ----------------------------------------------------------------------------- 

 POTCAR:    PAW_PBE Li_sv 10Sep2004               
  local pseudopotential read in
  atomic valenz-charges read in
  non local Contribution for L=           0  read in
    real space projection operators read in
  non local Contribution for L=           0  read in
    real space projection operators read in
  non local Contribution for L=           1  read in
    real space projection operators read in
    PAW grid and wavefunctions read in
 
   number of l-projection  operators is LMAX  =           3
   number of lm-projection operators is LMMAX =           5
 
 POTCAR:    PAW_PBE Ni 02Aug2007                  
  local pseudopotential read in
  partial core-charges read in
  partial kinetic energy density read in
  atomic valenz-charges read in
  non local Contribution for L=           2  read in
    real space projection operators read in
  non local Contribution for L=           2  read in
    real space projection operators read in
  non local Contribution for L=           0  read in
    real space projection operators read in
  non local Contribution for L=           0  read in
    real space projection operators read in
  non local Contribution for L=           1  read in
    real space projection operators read in
  non local Contribution for L=           1  read in
    real space projection operators read in
    PAW grid and wavefunctions read in
 
   number of l-projection  operators is LMAX  =           6
   number of lm-projection operators is LMMAX =          18
 
 POTCAR:    PAW_PBE O 08Apr2002                   
  local pseudopotential read in
  partial core-charges read in
  partial kinetic energy density read in
  kinetic energy density of atom read in
  atomic valenz-charges read in
  non local Contribution for L=           0  read in
    real space projection operators read in
  non local Contribution for L=           0  read in
    real space projection operators read in
  non local Contribution for L=           1  read in
    real space projection operators read in
  non local Contribution for L=           1  read in
    real space projection operators read in
    PAW grid and wavefunctions read in
 
   number of l-projection  operators is LMAX  =           4
   number of lm-projection operators is LMMAX =           8
 
 Optimization of the real space projectors (new method)

 maximal supplied QI-value         = 22.11
 optimisation between [QCUT,QGAM] = [ 11.28, 22.77] = [ 35.61,145.23] Ry 
 Optimized for a Real-space Cutoff    1.10 Angstroem

   l    n(q)    QCUT    max X(q) W(low)/X(q) W(high)/X(q)  e(spline) 
   0      7    11.276    10.506    0.54E-04    0.58E-04    0.16E-07
   0      7    11.276     8.367    0.11E-03    0.14E-03    0.35E-07
   1      7    11.276     8.983    0.23E-03    0.43E-03    0.86E-07
 Optimization of the real space projectors (new method)

 maximal supplied QI-value         = 16.25
 optimisation between [QCUT,QGAM] = [ 11.38, 22.75] = [ 36.24,144.96] Ry 
 Optimized for a Real-space Cutoff    1.47 Angstroem

   l    n(q)    QCUT    max X(q) W(low)/X(q) W(high)/X(q)  e(spline) 
   2      9    11.376    60.317    0.17E-03    0.16E-04    0.16E-06
   2      9    11.376    55.921    0.17E-03    0.16E-04    0.17E-06
   0     10    11.376    51.690    0.45E-04    0.60E-04    0.21E-06
   0     10    11.376    30.015    0.37E-04    0.55E-04    0.19E-06
   1     10    11.376    18.849    0.83E-04    0.11E-03    0.92E-07
   1     10    11.376    14.624    0.69E-04    0.92E-04    0.82E-07
 Optimization of the real space projectors (new method)

 maximal supplied QI-value         = 24.76
 optimisation between [QCUT,QGAM] = [ 11.39, 22.77] = [ 36.31,145.25] Ry 
 Optimized for a Real-space Cutoff    1.10 Angstroem

   l    n(q)    QCUT    max X(q) W(low)/X(q) W(high)/X(q)  e(spline) 
   0      7    11.387    20.381    0.22E-03    0.48E-03    0.18E-06
   0      7    11.387    15.268    0.22E-03    0.52E-03    0.19E-06
   1      7    11.387     5.964    0.22E-03    0.73E-03    0.24E-06
   1      7    11.387     5.382    0.19E-03    0.60E-03    0.21E-06

 ----------------------------------------------------------------------------- 
|                                                                             |
|  ADVICE TO THIS USER RUNNING 'VASP/VAMP'   (HEAR YOUR MASTER'S VOICE ...):  |
|                                                                             |
|      You enforced a specific xc-type in the INCAR file,                     |
|      a different type was found on the POTCAR file                          |
|          I HOPE YOU KNOW, WHAT YOU ARE  DOING                               |
|                                                                             |
 ----------------------------------------------------------------------------- 

  PAW_PBE Li_sv 10Sep2004               :
 energy of atom  1       EATOM= -202.7858
 kinetic energy error for atom=    0.0143 (will be added to EATOM!!)
  PAW_PBE Ni 02Aug2007                  :
 energy of atom  2       EATOM=-1077.6739
 kinetic energy error for atom=    0.0030 (will be added to EATOM!!)
  PAW_PBE O 08Apr2002                   :
 energy of atom  3       EATOM= -432.3788
 kinetic energy error for atom=    0.0224 (will be added to EATOM!!)
 
 
 POSCAR: ce4422_1                                
  positions in direct lattice
  No initial velocities read in
 exchange correlation table for  LEXCH =       14
   RHO(1)=    0.500       N(1)  =     2000
   RHO(2)=  100.500       N(2)  =     4000
 


--------------------------------------------------------------------------------------------------------


 ion  position               nearest neighbor table
   1  0.995  0.253  0.241-  41 2.05  38 2.09  46 2.09  53 2.11  50 2.12  32 2.23  14 2.81  25 2.84

   2  0.249  0.250  0.501-  42 2.08  32 2.08  30 2.12  44 2.13  54 2.13  50 2.17  23 2.84  20 2.84

   3  0.249  0.750  0.499-  51 2.10  31 2.11  33 2.12  45 2.12  43 2.12  55 2.12  24 2.80  16 2.81

   4  0.751  0.750  0.499-  31 2.09  43 2.09  45 2.09  33 2.10  56 2.19  52 2.21  25 2.82  17 2.83

   5  0.750  0.250  0.502-  57 2.07  53 2.08  42 2.10  32 2.11  30 2.13  44 2.13  20 2.83  26 2.84

   6  0.506  0.252  0.243-  58 2.04  41 2.08  38 2.12  53 2.13  50 2.16  44 2.16  19 2.78  27 2.84

   7  0.498  0.749  0.749-  59 2.07  45 2.09  39 2.13  52 2.13  51 2.13  40 2.16  16 2.83
   8  0.995  0.248  0.759-  48 2.05  37 2.08  34 2.11  57 2.13  30 2.13  54 2.16  28 2.76
   9  0.999  0.751  0.250-  31 2.06  49 2.09  56 2.13  35 2.14  55 2.14  36 2.15
  10  0.254  0.249  0.001-  34 2.04  38 2.06  60 2.12  58 2.14  46 2.15  48 2.16  19 2.83
  11  0.251  0.750  1.000-  47 2.10  61 2.11  59 2.13  49 2.13  39 2.13  35 2.16
  12  0.750  0.750  0.998-  40 2.08  36 2.09  47 2.13  59 2.13  49 2.14  61 2.14  26 2.84
  13  0.504  0.247  0.759-  37 2.05  34 2.08  60 2.09  57 2.10  54 2.12  42 2.25  29 2.80
  14  0.999  0.002  1.000-  40 1.85  38 1.86  41 1.87  39 1.87  48 2.06  49 2.11  19 2.77  19 2.78
                             1 2.81  17 2.87  16 2.88  18 2.91  15 2.91
  15  0.251  1.000  0.251-  61 1.86  44 1.86  49 1.86  32 1.88  55 2.08  38 2.13  18 2.77  18 2.78
                            21 2.88  19 2.89  20 2.90  14 2.91
  16  0.249  0.994  0.748-  48 1.84  60 1.86  33 1.86  45 1.87  39 2.04  54 2.09  17 2.77  17 2.79
                             3 2.81   7 2.83  20 2.88  14 2.88  21 2.89  19 2.90
  17  0.751  0.997  0.750-  48 1.86  33 1.86  45 1.86  60 1.87  40 2.08  57 2.13  16 2.77  16 2.79
                             4 2.83  14 2.87  19 2.89  20 2.89  21 2.90
  18  0.750  0.999  0.251-  44 1.86  49 1.86  61 1.88  32 1.90  41 1.98  56 2.00  15 2.77  15 2.78
                            21 2.89  19 2.89  20 2.89  14 2.91
  19  0.501  0.005  0.002-  40 1.84  39 1.86  38 1.87  41 1.88  61 1.97  60 2.01  14 2.77   6 2.78
                            14 2.78  10 2.83  17 2.89  18 2.89  15 2.89  16 2.90
  20  0.000  0.005  0.503-  55 1.84  56 1.86  57 1.87  54 1.88  33 1.99  32 2.04  21 2.77  21 2.78
                             5 2.83   2 2.84  16 2.88  18 2.89  17 2.89  15 2.90
  21  0.500  0.001  0.501-  55 1.86  57 1.86  54 1.86  56 1.87  45 2.10  44 2.11  20 2.77  20 2.78
                            15 2.88  18 2.89  16 2.89  17 2.90
  22  0.000  0.499  0.500-  51 1.84  53 1.85  52 1.86  50 1.87  30 2.15  31 2.16  27 2.77  27 2.78
                            23 2.88  26 2.88  24 2.90  25 2.91
  23  0.249  0.500  0.750-  30 1.85  59 1.85  47 1.86  42 1.88  51 2.11  34 2.17  26 2.77  26 2.78
                             2 2.84  22 2.88  28 2.89  27 2.90  29 2.91
  24  0.251  0.506  0.252-  58 1.84  31 1.86  46 1.87  43 1.87  35 2.02  50 2.06  25 2.77  25 2.78
                             3 2.80  27 2.89  29 2.89  28 2.90  22 2.90
  25  0.749  0.503  0.250-  58 1.85  31 1.85  43 1.86  46 1.87  36 2.11  53 2.16  24 2.77  24 2.78
                             4 2.82   1 2.84  29 2.86  28 2.89  27 2.90  22 2.91
  26  0.751  0.501  0.749-  30 1.85  59 1.86  47 1.89  42 1.91  37 1.97  52 1.99  23 2.77  23 2.78
                            12 2.84   5 2.84  22 2.88  27 2.89  28 2.89  29 2.90
  27  0.500  0.495  0.498-  51 1.84  53 1.86  52 1.87  50 1.89  43 1.98  42 2.02  22 2.77  22 2.78
                             6 2.84  24 2.89  26 2.89  25 2.90  23 2.90
  28  0.000  0.495  0.998-  36 1.84  34 1.86  35 1.87  37 1.89  47 1.96  46 1.99   8 2.76  29 2.77
                            29 2.78  25 2.89  23 2.89  26 2.89  24 2.90
  29  0.502  0.498  0.000-  36 1.84  34 1.85  37 1.86  35 1.87  58 2.09  59 2.16  28 2.77  28 2.78
                            13 2.80  25 2.86  24 2.89  26 2.90  23 2.91
  30  0.000  0.389  0.645-  23 1.85  26 1.85   2 2.12   5 2.13   8 2.13  22 2.15
  31  0.997  0.614  0.358-  25 1.85  24 1.86   9 2.06   4 2.09   3 2.11  22 2.16
  32  0.002  0.110  0.365-  15 1.88  18 1.90  20 2.04   2 2.08   5 2.11   1 2.23
  33  0.997  0.896  0.631-  17 1.86  16 1.86  20 1.99   4 2.10   3 2.12
  34  0.254  0.386  0.894-  29 1.85  28 1.86  10 2.04  13 2.08   8 2.11  23 2.17
  35  0.248  0.604  0.110-  28 1.87  29 1.87  24 2.02   9 2.14  11 2.16
  36  0.754  0.606  0.102-  28 1.84  29 1.84  12 2.09  25 2.11   9 2.15
  37  0.745  0.396  0.880-  29 1.86  28 1.89  26 1.97  13 2.05   8 2.08
  38  0.247  0.113  0.110-  14 1.86  19 1.87  10 2.06   1 2.09   6 2.12  15 2.13
  39  0.254  0.895  0.891-  19 1.86  14 1.87  16 2.04   7 2.13  11 2.13
  40  0.746  0.894  0.895-  19 1.84  14 1.85  12 2.08  17 2.08   7 2.16
  41  0.754  0.104  0.120-  14 1.87  19 1.88  18 1.98   1 2.05   6 2.08
  42  0.496  0.391  0.634-  23 1.88  26 1.91  27 2.02   2 2.08   5 2.10  13 2.25
  43  0.504  0.604  0.369-  25 1.86  24 1.87  27 1.98   4 2.09   3 2.12
  44  0.500  0.110  0.359-  15 1.86  18 1.86  21 2.11   5 2.13   2 2.13   6 2.16
  45  0.503  0.888  0.638-  17 1.86  16 1.87   7 2.09   4 2.09  21 2.10   3 2.12
  46  0.002  0.399  0.138-  24 1.87  25 1.87  28 1.99   1 2.09  10 2.15
  47  0.005  0.600  0.870-  23 1.86  26 1.89  28 1.96  11 2.10  12 2.13
  48  0.004  0.103  0.857-  16 1.84  17 1.86   8 2.05  14 2.06  10 2.16
  49  0.001  0.892  0.141-  15 1.86  18 1.86   9 2.09  14 2.11  11 2.13  12 2.14
  50  0.245  0.392  0.383-  22 1.87  27 1.89  24 2.06   1 2.12   6 2.16   2 2.17
  51  0.254  0.605  0.604-  27 1.84  22 1.84   3 2.10  23 2.11   7 2.13
  52  0.748  0.601  0.613-  22 1.86  27 1.87  26 1.99   7 2.13   4 2.21
  53  0.754  0.388  0.392-  22 1.85  27 1.86   5 2.08   1 2.11   6 2.13  25 2.16
  54  0.254  0.110  0.615-  21 1.86  20 1.88  16 2.09  13 2.12   2 2.13   8 2.16
  55  0.245  0.896  0.394-  20 1.84  21 1.86  15 2.08   3 2.12   9 2.14
  56  0.754  0.899  0.388-  20 1.86  21 1.87  18 2.00   9 2.13   4 2.19
  57  0.746  0.112  0.611-  21 1.86  20 1.87   5 2.07  13 2.10   8 2.13  17 2.13
  58  0.497  0.396  0.146-  24 1.84  25 1.85   6 2.04  29 2.09  10 2.14
  59  0.499  0.610  0.855-  23 1.85  26 1.86   7 2.07  11 2.13  12 2.13  29 2.16
  60  0.497  0.101  0.861-  16 1.86  17 1.87  19 2.01  13 2.09  10 2.12
  61  0.497  0.899  0.132-  15 1.86  18 1.88  19 1.97  11 2.11  12 2.14
 
  LATTYP: Found a triclinic cell.
 ALAT       =    15.0133290951
 B/A-ratio  =     0.3697063795
 C/A-ratio  =     0.7585338664
 COS(alpha) =     0.0001065212
 COS(beta)  =     0.3766144960
 COS(gamma) =     0.7400426435
  
  Lattice vectors:
  
 A1 = (   3.7303846358, -11.1057627338,  -9.3886269010)
 A2 = (   0.0022672697,  -5.5505227552,  -0.0019029520)
 A3 = (  -6.4176323422,  -0.0006092161,  -9.4076160221)


Analysis of symmetry for initial positions (statically):
=====================================================================
 Subroutine PRICEL returns:
 Original cell was already a primitive cell.
 

 Routine SETGRP: Setting up the symmetry group for a 
 triclinic supercell.


 Subroutine GETGRP returns: Found  1 space group operations
 (whereof  1 operations were pure point group operations)
 out of a pool of  2 trial point group operations.


The static configuration has the point symmetry C_1 .


Analysis of symmetry for dynamics (positions and initial velocities):
=====================================================================
 Subroutine PRICEL returns:
 Original cell was already a primitive cell.
 

 Routine SETGRP: Setting up the symmetry group for a 
 triclinic supercell.


 Subroutine GETGRP returns: Found  1 space group operations
 (whereof  1 operations were pure point group operations)
 out of a pool of  2 trial point group operations.


The dynamic configuration has the point symmetry C_1 .


Analysis of structural, dynamic, and magnetic symmetry:
=====================================================================
 Subroutine PRICEL returns:
 Original cell was already a primitive cell.
 

 Routine SETGRP: Setting up the symmetry group for a 
 triclinic supercell.


 Subroutine GETGRP returns: Found  1 space group operations
 (whereof  1 operations were pure point group operations)
 out of a pool of  2 trial point group operations.


The magnetic configuration has the point symmetry C_1 .


 Subroutine INISYM returns: Found  1 space group operations
 (whereof  1 operations are pure point group operations),
 and found     1 'primitive' translations

 
 
 KPOINTS: Automatic mesh                          

Automatic generation of k-mesh.
Space group operators:
 irot       det(A)        alpha          n_x          n_y          n_z        tau_x        tau_y        tau_z
    1     1.000000     0.000000     1.000000     0.000000     0.000000     0.000000     0.000000     0.000000
 
 Subroutine IBZKPT returns following result:
 ===========================================
 
 Found      1 irreducible k-points:
 
 Following reciprocal coordinates:
            Coordinates               Weight
  0.000000  0.000000  0.000000      1.000000
 
 Following cartesian coordinates:
            Coordinates               Weight
  0.000000  0.000000  0.000000      1.000000
 


--------------------------------------------------------------------------------------------------------




 Dimension of arrays:
   k-points           NKPTS =      1   k-points in BZ     NKDIM =      1   number of bands    NBANDS=    256
   number of dos      NEDOS =    301   number of ions     NIONS =     61
   non local maximal  LDIM  =      6   non local SUM 2l+1 LMDIM =     18
   total plane-waves  NPLWV = 256000
   max r-space proj   IRMAX =   6548   max aug-charges    IRDMAX=  15889
   dimension x,y,z NGX =    40 NGY =   80 NGZ =   80
   dimension x,y,z NGXF=    80 NGYF=  160 NGZF=  160
   support grid    NGXF=    80 NGYF=  160 NGZF=  160
   ions per type =              13  16  32
   NGX,Y,Z   is equivalent  to a cutoff of  11.98, 13.17, 13.11 a.u.
   NGXF,Y,Z  is equivalent  to a cutoff of  23.96, 26.34, 26.22 a.u.

 SYSTEM =  unknown system                          
 POSCAR =  ce4422_1                                

 Startparameter for this run:
   NWRITE =      1    write-flag & timer
   PREC   = accura    normal or accurate (medium, high low for compatibility)
   ISTART =      0    job   : 0-new  1-cont  2-samecut
   ICHARG =      2    charge: 1-file 2-atom 10-const
   ISPIN  =      2    spin polarized calculation?
   LNONCOLLINEAR =      F non collinear calculations
   LSORBIT =      F    spin-orbit coupling
   INIWAV =      1    electr: 0-lowe 1-rand  2-diag
   LASPH  =      F    aspherical Exc in radial PAW
   METAGGA=      F    non-selfconsistent MetaGGA calc.

 Electronic Relaxation 1
   ENCUT  =  500.0 eV  36.75 Ry    6.06 a.u.  10.12 18.41 18.49*2*pi/ulx,y,z
   ENINI  =  500.0     initial cutoff
   ENAUG  =  628.9 eV  augmentation charge cutoff
   NELM   =     80;   NELMIN=  2; NELMDL= -5     # of ELM steps 
   EDIFF  = 0.1E-04   stopping-criterion for ELM
   LREAL  =      T    real-space projection
   NLSPLINE    = F    spline interpolate recip. space projectors
   LCOMPAT=      F    compatible to vasp.4.4
   GGA_COMPAT  = T    GGA compatible to vasp.4.4-vasp.4.6
   LMAXPAW     = -100 max onsite density
   LMAXMIX     =    2 max onsite mixed and CHGCAR
   VOSKOWN=      1    Vosko Wilk Nusair interpolation
   ROPT   =   -0.00025  -0.00025  -0.00025
 Ionic relaxation
   EDIFFG = -.2E-01   stopping-criterion for IOM
   NSW    =     20    number of steps for IOM
   NBLOCK =      1;   KBLOCK =     20    inner block; outer block 
   IBRION =      1    ionic relax: 0-MD 1-quasi-New 2-CG
   NFREE  =      0    steps in history (QN), initial steepest desc. (CG)
   ISIF   =      3    stress and relaxation
   IWAVPR =     11    prediction:  0-non 1-charg 2-wave 3-comb
   ISYM   =      2    0-nonsym 1-usesym 2-fastsym
   LCORR  =      T    Harris-Foulkes like correction to forces

   POTIM  = 0.5000    time-step for ionic-motion
   TEIN   =    0.0    initial temperature
   TEBEG  =    0.0;   TEEND  =   0.0 temperature during run
   SMASS  =  -3.00    Nose mass-parameter (am)
   estimated Nose-frequenzy (Omega)   =  0.10E-29 period in steps =****** mass=  -0.704E-27a.u.
   SCALEE = 1.0000    scale energy and forces
   NPACO  =    256;   APACO  = 16.0  distance and # of slots for P.C.
   PSTRESS=    0.0 pullay stress

  Mass of Ions in am
   POMASS =   7.01 58.69 16.00
  Ionic Valenz
   ZVAL   =   3.00 10.00  6.00
  Atomic Wigner-Seitz radii
   RWIGS  =   1.23  1.15  0.73
  virtual crystal weights 
   VCA    =   1.00  1.00  1.00
   NELECT =     391.0000    total number of electrons
   NUPDOWN=      -1.0000    fix difference up-down

 DOS related values:
   EMIN   =  10.00;   EMAX   =-10.00  energy-range for DOS
   EFERMI =   0.00
   ISMEAR =     0;   SIGMA  =   0.05  broadening in eV -4-tet -1-fermi 0-gaus

 Electronic relaxation 2 (details)
   IALGO  =     38    algorithm
   LDIAG  =      T    sub-space diagonalisation (order eigenvalues)
   LSUBROT=      F    optimize rotation matrix (better conditioning)
   TURBO    =      0    0=normal 1=particle mesh
   IRESTART =      0    0=no restart 2=restart with 2 vectors
   NREBOOT  =      0    no. of reboots
   NMIN     =      0    reboot dimension
   EREF     =   0.00    reference energy to select bands
   IMIX   =      4    mixing-type and parameters
     AMIX     =   0.40;   BMIX     =  1.00
     AMIX_MAG =   1.60;   BMIX_MAG =  1.00
     AMIN     =   0.10
     WC   =   100.;   INIMIX=   1;  MIXPRE=   1;  MAXMIX= -45

 Intra band minimization:
   WEIMIN = 0.0010     energy-eigenvalue tresh-hold
   EBREAK =  0.98E-08  absolut break condition
   DEPER  =   0.30     relativ break condition  

   TIME   =   0.40     timestep for ELM

  volume/ion in A,a.u.               =       8.67        58.51
  Fermi-wavevector in a.u.,A,eV,Ry     =   1.480320  2.797400 29.815104  2.191348
  Thomas-Fermi vector in A             =   2.594369
 
 Write flags
   LWAVE        =      F    write WAVECAR
   LDOWNSAMPLE  =      F    k-point downsampling of WAVECAR
   LCHARG       =      T    write CHGCAR
   LVTOT        =      F    write LOCPOT, total local potential
   LVHAR        =      F    write LOCPOT, Hartree potential only
   LELF         =      F    write electronic localiz. function (ELF)
   LORBIT       =      0    0 simple, 1 ext, 2 COOP (PROOUT), +10 PAW based schemes


 Dipole corrections
   LMONO  =      F    monopole corrections only (constant potential shift)
   LDIPOL =      F    correct potential (dipole corrections)
   IDIPOL =      0    1-x, 2-y, 3-z, 4-all directions 
   EPSILON=  1.0000000 bulk dielectric constant

 Exchange correlation treatment:
   GGA     =    PS    GGA type
   LEXCH   =    14    internal setting for exchange type
   VOSKOWN=      1    Vosko Wilk Nusair interpolation
   LHFCALC =     F    Hartree Fock is set to
   LHFONE  =     F    Hartree Fock one center treatment
   AEXX    =    0.0000 exact exchange contribution

 Linear response parameters
   LEPSILON=     F    determine dielectric tensor
   LRPA    =     F    only Hartree local field effects (RPA)
   LNABLA  =     F    use nabla operator in PAW spheres
   LVEL    =     F    velocity operator in full k-point grid
   LINTERFAST=   F  fast interpolation
   KINTER  =     0    interpolate to denser k-point grid
   CSHIFT  =0.1000    complex shift for real part using Kramers Kronig
   OMEGAMAX=  -1.0    maximum frequency
   DEG_THRESHOLD= 0.2000000E-02 threshold for treating states as degnerate
   RTIME   =   -0.100 relaxation time in fs
  (WPLASMAI=    0.000 imaginary part of plasma frequency in eV, 0.658/RTIME)
   DFIELD  = 0.0000000 0.0000000 0.0000000 field for delta impulse in time
 
 Orbital magnetization related:
   ORBITALMAG=     F  switch on orbital magnetization
   LCHIMAG   =     F  perturbation theory with respect to B field
   DQ        =  0.001000  dq finite difference perturbation B field
   LLRAUG    =     F  two centre corrections for induced B field



--------------------------------------------------------------------------------------------------------


 quasi-Newton-method for relaxation of ions
 charge density and potential will be updated during run
 spin polarized calculation
 Variant of blocked Davidson
 Davidson routine will perform the subspace rotation
 perform sub-space diagonalisation
    after iterative eigenvector-optimisation
 modified Broyden-mixing scheme, WC =      100.0
 initial mixing is a Kerker type mixing with AMIX =  0.4000 and BMIX =      1.0000
 Hartree-type preconditioning will be used
 using additional bands           60
 real space projection scheme for non local part
 use partial core corrections
 calculate Harris-corrections to forces 
   (improved forces if not selfconsistent)
 use gradient corrections 
 use of overlap-Matrix (Vanderbilt PP)
 Gauss-broadening in eV      SIGMA  =   0.05


--------------------------------------------------------------------------------------------------------


  energy-cutoff  :      500.00
  volume of cell :      528.85
      direct lattice vectors                 reciprocal lattice vectors
    -0.002267270  5.550522755  0.001902952     0.000073103  0.180163262 -0.000061536
    -3.725850096  0.004717223  9.384820997    -0.000239258 -0.000036597  0.106460073
    10.143482439 -0.004108007  0.022795025     0.098497605  0.000026828  0.039104335

  length of vectors
     5.550523544 10.097368288 10.143508884     0.180163287  0.106460349  0.105976072


 
 k-points in units of 2pi/SCALE and weight: Automatic mesh                          
   0.00000000  0.00000000  0.00000000       1.000
 
 k-points in reciprocal lattice and weights: Automatic mesh                          
   0.00000000  0.00000000  0.00000000       1.000
 
 position of ions in fractional coordinates (direct lattice) 
   0.99460608  0.25320198  0.24127711
   0.24895002  0.25028939  0.50057031
   0.24887829  0.74997146  0.49933697
   0.75091330  0.74967286  0.49942654
   0.75034531  0.24960335  0.50177193
   0.50639798  0.25175947  0.24336775
   0.49812099  0.74926399  0.74860347
   0.99546406  0.24796798  0.75918343
   0.99881369  0.75107737  0.24970295
   0.25376277  0.24931467  0.00075757
   0.25097469  0.74965866  0.99975495
   0.75016402  0.75026630  0.99797190
   0.50389643  0.24729384  0.75905649
   0.99925820  0.00165052  0.99995158
   0.25081553  0.99996156  0.25078343
   0.24942966  0.99384369  0.74801601
   0.75123024  0.99667874  0.75016073
   0.74950220  0.99941896  0.25081062
   0.50059874  0.00455125  0.00234124
   0.00001228  0.00516014  0.50276839
   0.49973523  0.00081638  0.50076437
   0.00046126  0.49912842  0.50026535
   0.24903214  0.50011061  0.74952202
   0.25054282  0.50562933  0.25204054
   0.74892189  0.50326529  0.24978963
   0.75067986  0.50056325  0.74939479
   0.50029916  0.49526792  0.49766596
   0.00008640  0.49479849  0.99781476
   0.50155491  0.49802640  0.00012278
   0.00047099  0.38857258  0.64522033
   0.99665484  0.61369202  0.35785498
   0.00243812  0.10994368  0.36474777
   0.99734078  0.89642603  0.63141770
   0.25427973  0.38562441  0.89375986
   0.24790656  0.60359575  0.11039095
   0.75421377  0.60575481  0.10232895
   0.74542330  0.39581724  0.87963109
   0.24675132  0.11304503  0.10987915
   0.25410973  0.89494123  0.89146380
   0.74582980  0.89446711  0.89521579
   0.75374136  0.10403686  0.11974135
   0.49632730  0.39087122  0.63379985
   0.50375493  0.60382508  0.36946395
   0.50013338  0.10976326  0.35899920
   0.50330694  0.88781781  0.63814151
   0.00235426  0.39867669  0.13805783
   0.00461376  0.60047605  0.86975582
   0.00414488  0.10271394  0.85718701
   0.00070871  0.89160327  0.14129840
   0.24484276  0.39168521  0.38338409
   0.25423465  0.60478526  0.60366320
   0.74778419  0.60089911  0.61340446
   0.75405563  0.38786796  0.39184082
   0.25401700  0.11006295  0.61469170
   0.24541325  0.89636498  0.39372883
   0.75368502  0.89940538  0.38821850
   0.74646246  0.11215755  0.61126375
   0.49683106  0.39593214  0.14596637
   0.49891455  0.60972904  0.85531469
   0.49655628  0.10094374  0.86096524
   0.49685389  0.89905816  0.13204888
 
 position of ions in cartesian coordinates  (Angst):
   1.50174247  5.52078692  2.38364786
   4.14442096  1.38092708  2.36080538
   2.27017028  1.38289111  7.05020391
   2.27105312  4.16944609  7.04835899
   4.15802886  4.16392487  2.35534853
   1.52943031  2.81096136  2.36922879
   4.80067147  2.76529107  7.04972076
   6.77461528  5.52339691  2.34633503
  -0.26780878  5.54645533  7.05631935
  -0.92180004  1.40968899  2.34027372
   7.34731196  1.39247003  7.05867936
   7.32582985  4.16324196  7.06529125
   6.77695393  2.79493693  2.33907002
  10.13457611  5.54230535  0.04018530
  -1.18245822  1.39584413  9.39065415
   3.88400913  1.38608033  9.34457083
   3.89406337  4.17134043  9.37218105
  -1.18129143  4.16381317  9.38651154
   0.00565606  2.77859655  0.04371865
   5.08059640 -0.00197287  0.05988763
   5.07531985  2.77173847  0.02002749
   3.21475407  0.00285964  4.69563532
   5.73886166  1.38153865  4.71100782
   0.67210166  1.39199341  4.75146279
   0.65694769  4.15825587  4.73017378
   5.73474726  4.16594839  4.71620748
   3.20163758  2.77721375  4.66029713
   8.27777130 -0.00128539  4.66634064
  -1.85546345  2.78624074  4.67484585
   5.09701683  0.00179665  3.66139282
   1.34111155  5.53338022  5.76944365
   3.29017340  0.01255308  1.04012083
   3.06256410  5.53739747  8.42908890
   7.62848218  1.40953293  3.63987322
  -1.12972069  1.37840481  5.66762619
  -1.22068972  4.18871781  5.68866828
   7.44607674  4.13574262  3.73614366
   0.69280894  1.36968069  1.06388163
   5.70755440  1.41100134  8.41966774
   5.74626428  4.14028712  8.41623946
   0.82525960  4.18365744  0.98053115
   4.97148477  2.75411615  3.68364840
   1.49674721  2.79743382  5.67617085
   3.23140669  2.77504471  1.03924367
   3.16395999  2.79518317  8.34751545
  -0.08502775  0.01438088  3.74466088
   6.58505868  0.02486840  5.65519513
   8.31215524  0.01996944  0.98349943
  -1.88872390  0.00755915  8.37075934
   2.42893428  1.35927803  3.68510076
   3.86933143  1.41150826  5.69004572
   3.98150193  4.15090787  5.65473615
   2.52778295  4.18562291  3.65043833
   5.82446049  1.40792117  1.04741638
   0.65350351  1.36478274  8.42166695
   0.58512911  4.18599375  8.45104217
   5.78076846  4.14127487  1.06793278
   0.00429706  2.75894017  3.72002501
   6.40297936  2.76859915  5.74264423
   8.35595872  2.75308625  0.96790958
  -2.01144694  2.76149742  8.44145544
 


--------------------------------------------------------------------------------------------------------


 use serial FFT for orbitals x direction half grid
 k-point  1 :   0.0000 0.0000 0.0000  plane waves:    6692

 maximum and minimum number of plane-waves per node :      6692     6692

 maximum number of plane-waves:      6692
 maximum index in each direction: 
   IXMAX=   10   IYMAX=   18   IZMAX=   18
   IXMIN=    0   IYMIN=  -18   IZMIN=  -18

 The following grids will avoid any aliasing or wrap around errors in the Hartre
 e energy
  - symmetry arguments have not been applied
  - exchange correlation energies might require even more grid points
  - we recommend to set PREC=Normal or Accurate and rely on VASP defaults
 WARNING: aliasing errors must be expected set NGX to    42 to avoid them
 NGY is ok and might be reduce to    80
 NGZ is ok and might be reduce to    80

 serial   3D FFT for wavefunctions
 parallel 3D FFT for charge:
    minimum data exchange during FFTs selected (reduces bandwidth)


 total amount of memory used by VASP MPI-rank0    95260. kBytes
=======================================================================

   base      :      30000. kBytes
   nonlr-proj:      23341. kBytes
   fftplans  :       5418. kBytes
   grid      :      31961. kBytes
   one-center:        948. kBytes
   wavefun   :       3592. kBytes
 
     INWAV:  cpu time    0.0000: real time    0.0000
 Broyden mixing: mesh for mixing (old mesh)
   NGX = 21   NGY = 37   NGZ = 37
  (NGX  = 80   NGY  =160   NGZ  =160)
  gives a total of  28749 points

 initial charge density was supplied:
 charge density of overlapping atoms calculated
 number of electron     391.0000000 magnetization      40.0000000
 keeping initial charge density in first step


--------------------------------------------------------------------------------------------------------


 Maximum index for non-local projection operator         6333
 Maximum index for augmentation-charges         1099 (set IRDMAX)


--------------------------------------------------------------------------------------------------------


 First call to EWALD:  gamma=   0.219
 Maximum number of real-space cells 4x 2x 2
 Maximum number of reciprocal cells 2x 3x 3

    FEWALD:  cpu time    0.0033: real time    0.0033


--------------------------------------- Iteration      1(   1)  ---------------------------------------


    POTLOK:  cpu time    0.1584: real time    0.1637
    SETDIJ:  cpu time    0.0209: real time    0.0210
     EDDAV:  cpu time    1.8306: real time    1.8574
    --------------------------------------------
      LOOP:  cpu time    2.0104: real time    2.0426

 eigenvalue-minimisations  :  1056
 total energy-change (2. order) : 0.6821522E+04  (-0.1733780E+05)
 number of electron     391.0000000 magnetization      40.0000000
 augmentation part      391.0000000 magnetization      40.0000000

 Free energy of the ion-electron system (eV)
  ---------------------------------------------------
  alpha Z        PSCENC =      1224.95891797
  Ewald energy   TEWEN  =    -24044.22219188
  -Hartree energ DENC   =    -10313.55432891
  -exchange      EXHF   =         0.00000000
  -V(xc)+E(xc)   XCENC  =      1596.46412273
  PAW double counting   =     27500.57083131   -28814.20024788
  entropy T*S    EENTRO =        -0.02472552
  eigenvalues    EBANDS =      6044.63168183
  atomic energy  EATOM  =     33626.89778075
  Solvation  Ediel_sol  =         0.00000000
  ---------------------------------------------------
  free energy    TOTEN  =      6821.52184039 eV

  energy without entropy =     6821.54656591  energy(sigma->0) =     6821.53420315


--------------------------------------------------------------------------------------------------------




--------------------------------------- Iteration      1(   2)  ---------------------------------------


     EDDAV:  cpu time    1.8460: real time    1.8504
    --------------------------------------------
      LOOP:  cpu time    1.8458: real time    1.8502

 eigenvalue-minimisations  :  1056
 total energy-change (2. order) :-0.5520736E+04  (-0.5008470E+04)
 number of electron     391.0000000 magnetization      40.0000000
 augmentation part      391.0000000 magnetization      40.0000000

 Free energy of the ion-electron system (eV)
  ---------------------------------------------------
  alpha Z        PSCENC =      1224.95891797
  Ewald energy   TEWEN  =    -24044.22219188
  -Hartree energ DENC   =    -10313.55432891
  -exchange      EXHF   =         0.00000000
  -V(xc)+E(xc)   XCENC  =      1596.46412273
  PAW double counting   =     27500.57083131   -28814.20024788
  entropy T*S    EENTRO =        -0.00004645
  eigenvalues    EBANDS =       523.87115930
  atomic energy  EATOM  =     33626.89778075
  Solvation  Ediel_sol  =         0.00000000
  ---------------------------------------------------
  free energy    TOTEN  =      1300.78599693 eV

  energy without entropy =     1300.78604338  energy(sigma->0) =     1300.78602016


--------------------------------------------------------------------------------------------------------




--------------------------------------- Iteration      1(   3)  ---------------------------------------


     EDDAV:  cpu time    1.9958: real time    2.0006
    --------------------------------------------
      LOOP:  cpu time    1.9959: real time    2.0006

 eigenvalue-minimisations  :  1184
 total energy-change (2. order) :-0.1521056E+04  (-0.1264659E+04)
 number of electron     391.0000000 magnetization      40.0000000
 augmentation part      391.0000000 magnetization      40.0000000

 Free energy of the ion-electron system (eV)
  ---------------------------------------------------
  alpha Z        PSCENC =      1224.95891797
  Ewald energy   TEWEN  =    -24044.22219188
  -Hartree energ DENC   =    -10313.55432891
  -exchange      EXHF   =         0.00000000
  -V(xc)+E(xc)   XCENC  =      1596.46412273
  PAW double counting   =     27500.57083131   -28814.20024788
  entropy T*S    EENTRO =        -0.11283064
  eigenvalues    EBANDS =      -997.07248886
  atomic energy  EATOM  =     33626.89778075
  Solvation  Ediel_sol  =         0.00000000
  ---------------------------------------------------
  free energy    TOTEN  =      -220.27043542 eV

  energy without entropy =     -220.15760478  energy(sigma->0) =     -220.21402010


--------------------------------------------------------------------------------------------------------




--------------------------------------- Iteration      1(   4)  ---------------------------------------


     EDDAV:  cpu time    2.0236: real time    2.0284
    --------------------------------------------
      LOOP:  cpu time    2.0236: real time    2.0284

 eigenvalue-minimisations  :  1296
 total energy-change (2. order) :-0.2439385E+03  (-0.2375510E+03)
 number of electron     391.0000000 magnetization      40.0000000
 augmentation part      391.0000000 magnetization      40.0000000

 Free energy of the ion-electron system (eV)
  ---------------------------------------------------
  alpha Z        PSCENC =      1224.95891797
  Ewald energy   TEWEN  =    -24044.22219188
  -Hartree energ DENC   =    -10313.55432891
  -exchange      EXHF   =         0.00000000
  -V(xc)+E(xc)   XCENC  =      1596.46412273
  PAW double counting   =     27500.57083131   -28814.20024788
  entropy T*S    EENTRO =        -0.14399161
  eigenvalues    EBANDS =     -1240.97980480
  atomic energy  EATOM  =     33626.89778075
  Solvation  Ediel_sol  =         0.00000000
  ---------------------------------------------------
  free energy    TOTEN  =      -464.20891234 eV

  energy without entropy =     -464.06492073  energy(sigma->0) =     -464.13691653


--------------------------------------------------------------------------------------------------------




--------------------------------------- Iteration      1(   5)  ---------------------------------------


     EDDAV:  cpu time    2.7228: real time    2.7292
    CHARGE:  cpu time    0.1180: real time    0.1183
    MIXING:  cpu time    0.0037: real time    0.0078
    --------------------------------------------
      LOOP:  cpu time    2.8442: real time    2.8551

 eigenvalue-minimisations  :  1792
 total energy-change (2. order) :-0.1298210E+02  (-0.1286748E+02)
 number of electron     391.0000035 magnetization      41.4843004
 augmentation part      118.6330144 magnetization      31.0914640

 Broyden mixing:
  rms(total) = 0.10900E+02    rms(broyden)= 0.10899E+02
  rms(prec ) = 0.13422E+02
  weight for this iteration     100.00

 Free energy of the ion-electron system (eV)
  ---------------------------------------------------
  alpha Z        PSCENC =      1224.95891797
  Ewald energy   TEWEN  =    -24044.22219188
  -Hartree energ DENC   =    -10313.55432891
  -exchange      EXHF   =         0.00000000
  -V(xc)+E(xc)   XCENC  =      1596.46412273
  PAW double counting   =     27500.57083131   -28814.20024788
  entropy T*S    EENTRO =        -0.14186525
  eigenvalues    EBANDS =     -1253.96403453
  atomic energy  EATOM  =     33626.89778075
  Solvation  Ediel_sol  =         0.00000000
  ---------------------------------------------------
  free energy    TOTEN  =      -477.19101570 eV

  energy without entropy =     -477.04915045  energy(sigma->0) =     -477.12008308


--------------------------------------------------------------------------------------------------------




--------------------------------------- Iteration      1(   6)  ---------------------------------------


    POTLOK:  cpu time    0.1436: real time    0.1440
    SETDIJ:  cpu time    0.0216: real time    0.0217
     EDDAV:  cpu time    2.4416: real time    2.4474
    CHARGE:  cpu time    0.1186: real time    0.1189
    MIXING:  cpu time    0.0037: real time    0.0037
    --------------------------------------------
      LOOP:  cpu time    2.7291: real time    2.7357

 eigenvalue-minimisations  :  1520
 total energy-change (2. order) :-0.1237725E+02  (-0.1115439E+03)
 number of electron     391.0000066 magnetization      35.8784943
 augmentation part      146.5106981 magnetization      33.4848792

 Broyden mixing:
  rms(total) = 0.18432E+02    rms(broyden)= 0.18431E+02
  rms(prec ) = 0.20180E+02
  weight for this iteration     100.00

 eigenvalues of (default mixing * dielectric matrix)
  average eigenvalue GAMMA=   0.2381
  0.2381

 Free energy of the ion-electron system (eV)
  ---------------------------------------------------
  alpha Z        PSCENC =      1224.95891797
  Ewald energy   TEWEN  =    -24044.22219188
  -Hartree energ DENC   =     -9848.78246897
  -exchange      EXHF   =         0.00000000
  -V(xc)+E(xc)   XCENC  =      1607.66299230
  PAW double counting   =     30210.25083644   -31360.57901810
  entropy T*S    EENTRO =        -0.04600644
  eigenvalues    EBANDS =     -1905.70911018
  atomic energy  EATOM  =     33626.89778075
  Solvation  Ediel_sol  =         0.00000000
  ---------------------------------------------------
  free energy    TOTEN  =      -489.56826813 eV

  energy without entropy =     -489.52226169  energy(sigma->0) =     -489.54526491


--------------------------------------------------------------------------------------------------------




--------------------------------------- Iteration      1(   7)  ---------------------------------------


    POTLOK:  cpu time    0.1418: real time    0.1421
    SETDIJ:  cpu time    0.0216: real time    0.0216
     EDDAV:  cpu time    2.2893: real time    2.2947
    CHARGE:  cpu time    0.1142: real time    0.1145
    MIXING:  cpu time    0.0038: real time    0.0038
    --------------------------------------------
      LOOP:  cpu time    2.5707: real time    2.5768

 eigenvalue-minimisations  :  1392
 total energy-change (2. order) : 0.1090724E+03  (-0.2677222E+02)
 number of electron     391.0000064 magnetization      27.0271757
 augmentation part      135.5506715 magnetization      25.0058862

 Broyden mixing:
  rms(total) = 0.62356E+01    rms(broyden)= 0.62351E+01
  rms(prec ) = 0.71876E+01
  weight for this iteration     100.00

 eigenvalues of (default mixing * dielectric matrix)
  average eigenvalue GAMMA=   0.5537
  0.5537  0.5537

 Free energy of the ion-electron system (eV)
  ---------------------------------------------------
  alpha Z        PSCENC =      1224.95891797
  Ewald energy   TEWEN  =    -24044.22219188
  -Hartree energ DENC   =    -10028.16373413
  -exchange      EXHF   =         0.00000000
  -V(xc)+E(xc)   XCENC  =      1596.78277375
  PAW double counting   =     31423.81599509   -32690.15344250
  entropy T*S    EENTRO =        -0.02499701
  eigenvalues    EBANDS =     -1490.38696336
  atomic energy  EATOM  =     33626.89778075
  Solvation  Ediel_sol  =         0.00000000
  ---------------------------------------------------
  free energy    TOTEN  =      -380.49586133 eV

  energy without entropy =     -380.47086432  energy(sigma->0) =     -380.48336283


--------------------------------------------------------------------------------------------------------




--------------------------------------- Iteration      1(   8)  ---------------------------------------


    POTLOK:  cpu time    0.1419: real time    0.1422
    SETDIJ:  cpu time    0.0216: real time    0.0216
     EDDAV:  cpu time    2.4276: real time    2.4334
    CHARGE:  cpu time    0.1160: real time    0.1163
    MIXING:  cpu time    0.0039: real time    0.0039
    --------------------------------------------
      LOOP:  cpu time    2.7110: real time    2.7174

 eigenvalue-minimisations  :  1504
 total energy-change (2. order) :-0.2465424E+01  (-0.1183323E+02)
 number of electron     391.0000052 magnetization      24.6241660
 augmentation part      128.1662490 magnetization      21.4118358

 Broyden mixing:
  rms(total) = 0.85573E+01    rms(broyden)= 0.85565E+01
  rms(prec ) = 0.11381E+02
  weight for this iteration     100.00

 eigenvalues of (default mixing * dielectric matrix)
  average eigenvalue GAMMA=   0.4611
  0.5997  0.5997  0.1838

 Free energy of the ion-electron system (eV)
  ---------------------------------------------------
  alpha Z        PSCENC =      1224.95891797
  Ewald energy   TEWEN  =    -24044.22219188
  -Hartree energ DENC   =    -10046.17314096
  -exchange      EXHF   =         0.00000000
  -V(xc)+E(xc)   XCENC  =      1587.93809205
  PAW double counting   =     32657.28504294   -33983.77671054
  entropy T*S    EENTRO =        -0.04887167
  eigenvalues    EBANDS =     -1405.82020371
  atomic energy  EATOM  =     33626.89778075
  Solvation  Ediel_sol  =         0.00000000
  ---------------------------------------------------
  free energy    TOTEN  =      -382.96128506 eV

  energy without entropy =     -382.91241339  energy(sigma->0) =     -382.93684922


--------------------------------------------------------------------------------------------------------




--------------------------------------- Iteration      1(   9)  ---------------------------------------


    POTLOK:  cpu time    0.1422: real time    0.1426
    SETDIJ:  cpu time    0.0215: real time    0.0216
     EDDAV:  cpu time    2.3053: real time    2.3107
    CHARGE:  cpu time    0.1168: real time    0.1170
    MIXING:  cpu time    0.0041: real time    0.0041
    --------------------------------------------
      LOOP:  cpu time    2.5899: real time    2.5960

 eigenvalue-minimisations  :  1408
 total energy-change (2. order) : 0.8228507E+01  (-0.1825759E+02)
 number of electron     391.0000061 magnetization      19.6437962
 augmentation part      129.5450240 magnetization      16.6592159

 Broyden mixing:
  rms(total) = 0.42786E+01    rms(broyden)= 0.42777E+01
  rms(prec ) = 0.50958E+01
  weight for this iteration     100.00

 eigenvalues of (default mixing * dielectric matrix)
  average eigenvalue GAMMA=   0.4858
  0.6920  0.6920  0.4246  0.1347

 Free energy of the ion-electron system (eV)
  ---------------------------------------------------
  alpha Z        PSCENC =      1224.95891797
  Ewald energy   TEWEN  =    -24044.22219188
  -Hartree energ DENC   =    -10029.35969044
  -exchange      EXHF   =         0.00000000
  -V(xc)+E(xc)   XCENC  =      1586.41064753
  PAW double counting   =     33051.35852567   -34385.06656551
  entropy T*S    EENTRO =        -0.04134153
  eigenvalues    EBANDS =     -1405.66886043
  atomic energy  EATOM  =     33626.89778075
  Solvation  Ediel_sol  =         0.00000000
  ---------------------------------------------------
  free energy    TOTEN  =      -374.73277788 eV

  energy without entropy =     -374.69143635  energy(sigma->0) =     -374.71210712


--------------------------------------------------------------------------------------------------------




--------------------------------------- Iteration      1(  10)  ---------------------------------------


    POTLOK:  cpu time    0.1421: real time    0.1425
    SETDIJ:  cpu time    0.0217: real time    0.0218
     EDDAV:  cpu time    2.1166: real time    2.1217
    CHARGE:  cpu time    0.1083: real time    0.1085
    MIXING:  cpu time    0.0041: real time    0.0041
    --------------------------------------------
      LOOP:  cpu time    2.3929: real time    2.3986

 eigenvalue-minimisations  :  1360
 total energy-change (2. order) : 0.5998979E+01  (-0.2364602E+01)
 number of electron     391.0000063 magnetization      13.7361546
 augmentation part      129.9962554 magnetization      11.1045695

 Broyden mixing:
  rms(total) = 0.20683E+01    rms(broyden)= 0.20674E+01
  rms(prec ) = 0.25929E+01
  weight for this iteration     100.00

 eigenvalues of (default mixing * dielectric matrix)
  average eigenvalue GAMMA=   0.5933
  1.3599  0.6280  0.4214  0.4214  0.1355

 Free energy of the ion-electron system (eV)
  ---------------------------------------------------
  alpha Z        PSCENC =      1224.95891797
  Ewald energy   TEWEN  =    -24044.22219188
  -Hartree energ DENC   =    -10020.56230619
  -exchange      EXHF   =         0.00000000
  -V(xc)+E(xc)   XCENC  =      1585.21651177
  PAW double counting   =     33888.05886530   -35236.41041220
  entropy T*S    EENTRO =        -0.04952159
  eigenvalues    EBANDS =     -1392.62144248
  atomic energy  EATOM  =     33626.89778075
  Solvation  Ediel_sol  =         0.00000000
  ---------------------------------------------------
  free energy    TOTEN  =      -368.73379856 eV

  energy without entropy =     -368.68427697  energy(sigma->0) =     -368.70903777


--------------------------------------------------------------------------------------------------------




--------------------------------------- Iteration      1(  11)  ---------------------------------------


    POTLOK:  cpu time    0.1371: real time    0.1374
    SETDIJ:  cpu time    0.0216: real time    0.0216
     EDDAV:  cpu time    2.2621: real time    2.2675
    CHARGE:  cpu time    0.1154: real time    0.1157
    MIXING:  cpu time    0.0044: real time    0.0044
    --------------------------------------------
      LOOP:  cpu time    2.5406: real time    2.5466

 eigenvalue-minimisations  :  1472
 total energy-change (2. order) :-0.1089114E+02  (-0.3995549E+01)
 number of electron     391.0000058 magnetization      10.9290114
 augmentation part      129.8383344 magnetization       8.4839020

 Broyden mixing:
  rms(total) = 0.57814E+01    rms(broyden)= 0.57807E+01
  rms(prec ) = 0.82593E+01
  weight for this iteration     100.00

 eigenvalues of (default mixing * dielectric matrix)
  average eigenvalue GAMMA=   0.5577
  1.5386  0.5932  0.4731  0.4731  0.1341  0.1341

 Free energy of the ion-electron system (eV)
  ---------------------------------------------------
  alpha Z        PSCENC =      1224.95891797
  Ewald energy   TEWEN  =    -24044.22219188
  -Hartree energ DENC   =    -10009.47047843
  -exchange      EXHF   =         0.00000000
  -V(xc)+E(xc)   XCENC  =      1584.89172803
  PAW double counting   =     34775.70494159   -36131.31775464
  entropy T*S    EENTRO =        -0.04222162
  eigenvalues    EBANDS =     -1407.02565577
  atomic energy  EATOM  =     33626.89778075
  Solvation  Ediel_sol  =         0.00000000
  ---------------------------------------------------
  free energy    TOTEN  =      -379.62493401 eV

  energy without entropy =     -379.58271239  energy(sigma->0) =     -379.60382320


--------------------------------------------------------------------------------------------------------




--------------------------------------- Iteration      1(  12)  ---------------------------------------


    POTLOK:  cpu time    0.1415: real time    0.1418
    SETDIJ:  cpu time    0.0215: real time    0.0216
     EDDAV:  cpu time    2.2850: real time    2.2904
    CHARGE:  cpu time    0.1150: real time    0.1153
    MIXING:  cpu time    0.0044: real time    0.0045
    --------------------------------------------
      LOOP:  cpu time    2.5674: real time    2.5735

 eigenvalue-minimisations  :  1392
 total energy-change (2. order) : 0.8819690E+01  (-0.4941243E+01)
 number of electron     391.0000066 magnetization       9.7824191
 augmentation part      130.3391457 magnetization       7.9240705

 Broyden mixing:
  rms(total) = 0.23132E+01    rms(broyden)= 0.23124E+01
  rms(prec ) = 0.33630E+01
  weight for this iteration     100.00

 eigenvalues of (default mixing * dielectric matrix)
  average eigenvalue GAMMA=   0.5372
  1.6443  0.5872  0.4858  0.4858  0.2976  0.1374  0.1220

 Free energy of the ion-electron system (eV)
  ---------------------------------------------------
  alpha Z        PSCENC =      1224.95891797
  Ewald energy   TEWEN  =    -24044.22219188
  -Hartree energ DENC   =    -10018.67185664
  -exchange      EXHF   =         0.00000000
  -V(xc)+E(xc)   XCENC  =      1585.16893666
  PAW double counting   =     35221.55035117   -36585.46818008
  entropy T*S    EENTRO =        -0.02166676
  eigenvalues    EBANDS =     -1380.99733504
  atomic energy  EATOM  =     33626.89778075
  Solvation  Ediel_sol  =         0.00000000
  ---------------------------------------------------
  free energy    TOTEN  =      -370.80524385 eV

  energy without entropy =     -370.78357710  energy(sigma->0) =     -370.79441048


--------------------------------------------------------------------------------------------------------




--------------------------------------- Iteration      1(  13)  ---------------------------------------


    POTLOK:  cpu time    0.1420: real time    0.1423
    SETDIJ:  cpu time    0.0216: real time    0.0217
     EDDAV:  cpu time    2.2008: real time    2.2061
    CHARGE:  cpu time    0.1163: real time    0.1166
    MIXING:  cpu time    0.0049: real time    0.0049
    --------------------------------------------
      LOOP:  cpu time    2.4857: real time    2.4916

 eigenvalue-minimisations  :  1312
 total energy-change (2. order) : 0.1657100E+01  (-0.1936611E+01)
 number of electron     391.0000061 magnetization       7.8778905
 augmentation part      130.4000217 magnetization       5.7041113

 Broyden mixing:
  rms(total) = 0.15568E+01    rms(broyden)= 0.15554E+01
  rms(prec ) = 0.21199E+01
  weight for this iteration     100.00

 eigenvalues of (default mixing * dielectric matrix)
  average eigenvalue GAMMA=   0.5434
  1.8480  0.5777  0.5777  0.4776  0.4776  0.1420  0.1353  0.1111

 Free energy of the ion-electron system (eV)
  ---------------------------------------------------
  alpha Z        PSCENC =      1224.95891797
  Ewald energy   TEWEN  =    -24044.22219188
  -Hartree energ DENC   =    -10021.29339221
  -exchange      EXHF   =         0.00000000
  -V(xc)+E(xc)   XCENC  =      1585.23571536
  PAW double counting   =     35383.71729237   -36751.13792282
  entropy T*S    EENTRO =        -0.04481277
  eigenvalues    EBANDS =     -1373.25953036
  atomic energy  EATOM  =     33626.89778075
  Solvation  Ediel_sol  =         0.00000000
  ---------------------------------------------------
  free energy    TOTEN  =      -369.14814361 eV

  energy without entropy =     -369.10333083  energy(sigma->0) =     -369.12573722


--------------------------------------------------------------------------------------------------------




--------------------------------------- Iteration      1(  14)  ---------------------------------------


    POTLOK:  cpu time    0.1420: real time    0.1424
    SETDIJ:  cpu time    0.0216: real time    0.0217
     EDDAV:  cpu time    2.3626: real time    2.3683
    CHARGE:  cpu time    0.1165: real time    0.1168
    MIXING:  cpu time    0.0050: real time    0.0050
    --------------------------------------------
      LOOP:  cpu time    2.6478: real time    2.6541

 eigenvalue-minimisations  :  1456
 total energy-change (2. order) : 0.5357133E-01  (-0.5705863E+00)
 number of electron     391.0000062 magnetization       7.4434757
 augmentation part      130.1498137 magnetization       5.3825360

 Broyden mixing:
  rms(total) = 0.13697E+01    rms(broyden)= 0.13691E+01
  rms(prec ) = 0.18227E+01
  weight for this iteration     100.00

 eigenvalues of (default mixing * dielectric matrix)
  average eigenvalue GAMMA=   0.5136
  1.8727  0.6113  0.6113  0.4613  0.4613  0.2297  0.1316  0.1316  0.1120

 Free energy of the ion-electron system (eV)
  ---------------------------------------------------
  alpha Z        PSCENC =      1224.95891797
  Ewald energy   TEWEN  =    -24044.22219188
  -Hartree energ DENC   =    -10026.23415650
  -exchange      EXHF   =         0.00000000
  -V(xc)+E(xc)   XCENC  =      1585.29243702
  PAW double counting   =     35676.50849869   -37048.40161224
  entropy T*S    EENTRO =        -0.04323677
  eigenvalues    EBANDS =     -1363.85100931
  atomic energy  EATOM  =     33626.89778075
  Solvation  Ediel_sol  =         0.00000000
  ---------------------------------------------------
  free energy    TOTEN  =      -369.09457227 eV

  energy without entropy =     -369.05133550  energy(sigma->0) =     -369.07295388


--------------------------------------------------------------------------------------------------------




--------------------------------------- Iteration      1(  15)  ---------------------------------------


    POTLOK:  cpu time    0.1422: real time    0.1425
    SETDIJ:  cpu time    0.0217: real time    0.0218
     EDDAV:  cpu time    2.3109: real time    2.3164
    CHARGE:  cpu time    0.1151: real time    0.1154
    MIXING:  cpu time    0.0051: real time    0.0051
    --------------------------------------------
      LOOP:  cpu time    2.5950: real time    2.6012

 eigenvalue-minimisations  :  1408
 total energy-change (2. order) : 0.3958931E+00  (-0.3932793E+00)
 number of electron     391.0000064 magnetization       6.8532195
 augmentation part      130.0915661 magnetization       4.9767058

 Broyden mixing:
  rms(total) = 0.76985E+00    rms(broyden)= 0.76926E+00
  rms(prec ) = 0.97329E+00
  weight for this iteration     100.00

 eigenvalues of (default mixing * dielectric matrix)
  average eigenvalue GAMMA=   0.5314
  1.9471  0.7378  0.7378  0.4760  0.4760  0.4101  0.1722  0.1349  0.1205  0.1010

 Free energy of the ion-electron system (eV)
  ---------------------------------------------------
  alpha Z        PSCENC =      1224.95891797
  Ewald energy   TEWEN  =    -24044.22219188
  -Hartree energ DENC   =    -10027.90771227
  -exchange      EXHF   =         0.00000000
  -V(xc)+E(xc)   XCENC  =      1585.31165264
  PAW double counting   =     35750.57994150   -37123.43739648
  entropy T*S    EENTRO =        -0.05881956
  eigenvalues    EBANDS =     -1360.82085178
  atomic energy  EATOM  =     33626.89778075
  Solvation  Ediel_sol  =         0.00000000
  ---------------------------------------------------
  free energy    TOTEN  =      -368.69867912 eV

  energy without entropy =     -368.63985957  energy(sigma->0) =     -368.66926934


--------------------------------------------------------------------------------------------------------




--------------------------------------- Iteration      1(  16)  ---------------------------------------


    POTLOK:  cpu time    0.1417: real time    0.1420
    SETDIJ:  cpu time    0.0216: real time    0.0217
     EDDAV:  cpu time    2.2406: real time    2.2459
    CHARGE:  cpu time    0.1098: real time    0.1101
    MIXING:  cpu time    0.0053: real time    0.0053
    --------------------------------------------
      LOOP:  cpu time    2.5190: real time    2.5250

 eigenvalue-minimisations  :  1408
 total energy-change (2. order) :-0.4005503E+00  (-0.3263955E+00)
 number of electron     391.0000062 magnetization       6.5789224
 augmentation part      129.9954138 magnetization       4.3051557

 Broyden mixing:
  rms(total) = 0.12208E+01    rms(broyden)= 0.12204E+01
  rms(prec ) = 0.15644E+01
  weight for this iteration     100.00

 eigenvalues of (default mixing * dielectric matrix)
  average eigenvalue GAMMA=   0.5089
  1.9846  0.7918  0.7918  0.4779  0.4779  0.3901  0.2173  0.1362  0.1259  0.1067
  0.0982

 Free energy of the ion-electron system (eV)
  ---------------------------------------------------
  alpha Z        PSCENC =      1224.95891797
  Ewald energy   TEWEN  =    -24044.22219188
  -Hartree energ DENC   =    -10029.81898352
  -exchange      EXHF   =         0.00000000
  -V(xc)+E(xc)   XCENC  =      1585.38024394
  PAW double counting   =     35845.79791809   -37218.97399058
  entropy T*S    EENTRO =        -0.02841103
  eigenvalues    EBANDS =     -1359.09051311
  atomic energy  EATOM  =     33626.89778075
  Solvation  Ediel_sol  =         0.00000000
  ---------------------------------------------------
  free energy    TOTEN  =      -369.09922937 eV

  energy without entropy =     -369.07081835  energy(sigma->0) =     -369.08502386


--------------------------------------------------------------------------------------------------------




--------------------------------------- Iteration      1(  17)  ---------------------------------------


    POTLOK:  cpu time    0.1368: real time    0.1371
    SETDIJ:  cpu time    0.0213: real time    0.0214
     EDDAV:  cpu time    2.0926: real time    2.0976
    CHARGE:  cpu time    0.1124: real time    0.1127
    MIXING:  cpu time    0.0058: real time    0.0058
    --------------------------------------------
      LOOP:  cpu time    2.3689: real time    2.3745

 eigenvalue-minimisations  :  1376
 total energy-change (2. order) : 0.2684966E+00  (-0.2156559E+00)
 number of electron     391.0000062 magnetization       6.5547523
 augmentation part      129.9702961 magnetization       4.4144368

 Broyden mixing:
  rms(total) = 0.64716E+00    rms(broyden)= 0.64659E+00
  rms(prec ) = 0.78754E+00
  weight for this iteration     100.00

 eigenvalues of (default mixing * dielectric matrix)
  average eigenvalue GAMMA=   0.4979
  1.9919  0.8036  0.8036  0.4767  0.4767  0.4016  0.4016  0.1418  0.1334  0.1334
  0.1175  0.0927

 Free energy of the ion-electron system (eV)
  ---------------------------------------------------
  alpha Z        PSCENC =      1224.95891797
  Ewald energy   TEWEN  =    -24044.22219188
  -Hartree energ DENC   =    -10031.14943089
  -exchange      EXHF   =         0.00000000
  -V(xc)+E(xc)   XCENC  =      1585.46002092
  PAW double counting   =     35911.48148318   -37284.94804012
  entropy T*S    EENTRO =        -0.03296901
  eigenvalues    EBANDS =     -1357.27630373
  atomic energy  EATOM  =     33626.89778075
  Solvation  Ediel_sol  =         0.00000000
  ---------------------------------------------------
  free energy    TOTEN  =      -368.83073282 eV

  energy without entropy =     -368.79776381  energy(sigma->0) =     -368.81424832


--------------------------------------------------------------------------------------------------------




--------------------------------------- Iteration      1(  18)  ---------------------------------------


    POTLOK:  cpu time    0.1437: real time    0.1440
    SETDIJ:  cpu time    0.0216: real time    0.0216
     EDDAV:  cpu time    2.3108: real time    2.3163
    CHARGE:  cpu time    0.1154: real time    0.1157
    MIXING:  cpu time    0.0058: real time    0.0058
    --------------------------------------------
      LOOP:  cpu time    2.5972: real time    2.6034

 eigenvalue-minimisations  :  1408
 total energy-change (2. order) :-0.1012773E+00  (-0.9224912E-01)
 number of electron     391.0000062 magnetization       6.5040167
 augmentation part      129.9646369 magnetization       4.6225714

 Broyden mixing:
  rms(total) = 0.74201E+00    rms(broyden)= 0.74171E+00
  rms(prec ) = 0.93864E+00
  weight for this iteration     100.00

 eigenvalues of (default mixing * dielectric matrix)
  average eigenvalue GAMMA=   0.4845
  2.0026  0.7896  0.7896  0.5262  0.5262  0.4297  0.4297  0.1751  0.1751  0.1355
  0.1183  0.1113  0.0896

 Free energy of the ion-electron system (eV)
  ---------------------------------------------------
  alpha Z        PSCENC =      1224.95891797
  Ewald energy   TEWEN  =    -24044.22219188
  -Hartree energ DENC   =    -10031.52766622
  -exchange      EXHF   =         0.00000000
  -V(xc)+E(xc)   XCENC  =      1585.55600813
  PAW double counting   =     35950.40513647   -37323.68432137
  entropy T*S    EENTRO =        -0.03593323
  eigenvalues    EBANDS =     -1357.27974077
  atomic energy  EATOM  =     33626.89778075
  Solvation  Ediel_sol  =         0.00000000
  ---------------------------------------------------
  free energy    TOTEN  =      -368.93201017 eV

  energy without entropy =     -368.89607694  energy(sigma->0) =     -368.91404355


--------------------------------------------------------------------------------------------------------




--------------------------------------- Iteration      1(  19)  ---------------------------------------


    POTLOK:  cpu time    0.1422: real time    0.1425
    SETDIJ:  cpu time    0.0217: real time    0.0217
     EDDAV:  cpu time    2.2707: real time    2.2760
    CHARGE:  cpu time    0.1171: real time    0.1174
    MIXING:  cpu time    0.0059: real time    0.0059
    --------------------------------------------
      LOOP:  cpu time    2.5575: real time    2.5636

 eigenvalue-minimisations  :  1376
 total energy-change (2. order) : 0.4956377E-01  (-0.1361864E+00)
 number of electron     391.0000062 magnetization       6.5368527
 augmentation part      130.0186698 magnetization       4.4053798

 Broyden mixing:
  rms(total) = 0.50305E+00    rms(broyden)= 0.50279E+00
  rms(prec ) = 0.56478E+00
  weight for this iteration     100.00

 eigenvalues of (default mixing * dielectric matrix)
  average eigenvalue GAMMA=   0.4729
  2.0035  0.7430  0.7430  0.5978  0.5978  0.4374  0.4374  0.3213  0.1830  0.1356
  0.1223  0.1126  0.0997  0.0862

 Free energy of the ion-electron system (eV)
  ---------------------------------------------------
  alpha Z        PSCENC =      1224.95891797
  Ewald energy   TEWEN  =    -24044.22219188
  -Hartree energ DENC   =    -10031.23870211
  -exchange      EXHF   =         0.00000000
  -V(xc)+E(xc)   XCENC  =      1585.64253077
  PAW double counting   =     35980.40567459   -37353.23773601
  entropy T*S    EENTRO =        -0.01592679
  eigenvalues    EBANDS =     -1358.07279367
  atomic energy  EATOM  =     33626.89778075
  Solvation  Ediel_sol  =         0.00000000
  ---------------------------------------------------
  free energy    TOTEN  =      -368.88244640 eV

  energy without entropy =     -368.86651961  energy(sigma->0) =     -368.87448300


--------------------------------------------------------------------------------------------------------




--------------------------------------- Iteration      1(  20)  ---------------------------------------


    POTLOK:  cpu time    0.1419: real time    0.1422
    SETDIJ:  cpu time    0.0215: real time    0.0216
     EDDAV:  cpu time    2.3256: real time    2.3312
    CHARGE:  cpu time    0.1165: real time    0.1168
    MIXING:  cpu time    0.0061: real time    0.0061
    --------------------------------------------
      LOOP:  cpu time    2.6116: real time    2.6179

 eigenvalue-minimisations  :  1424
 total energy-change (2. order) :-0.1087761E-01  (-0.2088968E-01)
 number of electron     391.0000062 magnetization       6.6132772
 augmentation part      130.0096859 magnetization       4.4207056

 Broyden mixing:
  rms(total) = 0.46217E+00    rms(broyden)= 0.46211E+00
  rms(prec ) = 0.50033E+00
  weight for this iteration     100.00

 eigenvalues of (default mixing * dielectric matrix)
  average eigenvalue GAMMA=   0.4673
  1.9995  0.7391  0.7391  0.6444  0.6444  0.4366  0.4366  0.3184  0.3184  0.1445
  0.1445  0.1357  0.1144  0.1064  0.0872

 Free energy of the ion-electron system (eV)
  ---------------------------------------------------
  alpha Z        PSCENC =      1224.95891797
  Ewald energy   TEWEN  =    -24044.22219188
  -Hartree energ DENC   =    -10031.67468586
  -exchange      EXHF   =         0.00000000
  -V(xc)+E(xc)   XCENC  =      1585.72891919
  PAW double counting   =     35993.97598131   -37366.60149898
  entropy T*S    EENTRO =        -0.00564607
  eigenvalues    EBANDS =     -1357.95090044
  atomic energy  EATOM  =     33626.89778075
  Solvation  Ediel_sol  =         0.00000000
  ---------------------------------------------------
  free energy    TOTEN  =      -368.89332401 eV

  energy without entropy =     -368.88767794  energy(sigma->0) =     -368.89050097


--------------------------------------------------------------------------------------------------------




--------------------------------------- Iteration      1(  21)  ---------------------------------------


    POTLOK:  cpu time    0.1428: real time    0.1431
    SETDIJ:  cpu time    0.0216: real time    0.0217
     EDDAV:  cpu time    2.3498: real time    2.3554
    CHARGE:  cpu time    0.1178: real time    0.1181
    MIXING:  cpu time    0.0063: real time    0.0063
    --------------------------------------------
      LOOP:  cpu time    2.6383: real time    2.6446

 eigenvalue-minimisations  :  1456
 total energy-change (2. order) :-0.2357575E-01  (-0.7309834E-02)
 number of electron     391.0000061 magnetization       6.6641855
 augmentation part      130.0040536 magnetization       4.4750262

 Broyden mixing:
  rms(total) = 0.44175E+00    rms(broyden)= 0.44172E+00
  rms(prec ) = 0.47361E+00
  weight for this iteration     100.00

 eigenvalues of (default mixing * dielectric matrix)
  average eigenvalue GAMMA=   0.5069
  2.0094  0.8860  0.8860  0.7889  0.7889  0.4886  0.4886  0.4200  0.4200  0.1924
  0.1746  0.1348  0.1283  0.1138  0.1032  0.0868

 Free energy of the ion-electron system (eV)
  ---------------------------------------------------
  alpha Z        PSCENC =      1224.95891797
  Ewald energy   TEWEN  =    -24044.22219188
  -Hartree energ DENC   =    -10031.80665565
  -exchange      EXHF   =         0.00000000
  -V(xc)+E(xc)   XCENC  =      1585.78057942
  PAW double counting   =     35997.61867130   -37370.16478839
  entropy T*S    EENTRO =        -0.00244477
  eigenvalues    EBANDS =     -1357.97676850
  atomic energy  EATOM  =     33626.89778075
  Solvation  Ediel_sol  =         0.00000000
  ---------------------------------------------------
  free energy    TOTEN  =      -368.91689976 eV

  energy without entropy =     -368.91445499  energy(sigma->0) =     -368.91567737


--------------------------------------------------------------------------------------------------------




--------------------------------------- Iteration      1(  22)  ---------------------------------------


    POTLOK:  cpu time    0.1416: real time    0.1419
    SETDIJ:  cpu time    0.0216: real time    0.0217
     EDDAV:  cpu time    2.3992: real time    2.4049
    CHARGE:  cpu time    0.1173: real time    0.1176
    MIXING:  cpu time    0.0064: real time    0.0064
    --------------------------------------------
      LOOP:  cpu time    2.6860: real time    2.6924

 eigenvalue-minimisations  :  1488
 total energy-change (2. order) :-0.2214400E-01  (-0.3727076E-02)
 number of electron     391.0000062 magnetization       6.6908727
 augmentation part      130.0025233 magnetization       4.5066046

 Broyden mixing:
  rms(total) = 0.43770E+00    rms(broyden)= 0.43768E+00
  rms(prec ) = 0.47759E+00
  weight for this iteration     100.00

 eigenvalues of (default mixing * dielectric matrix)
  average eigenvalue GAMMA=   0.5286
  2.0427  1.1333  1.1333  0.8152  0.8152  0.5081  0.5081  0.4365  0.4365  0.2683
  0.1729  0.1409  0.1356  0.1356  0.1137  0.1039  0.0868

 Free energy of the ion-electron system (eV)
  ---------------------------------------------------
  alpha Z        PSCENC =      1224.95891797
  Ewald energy   TEWEN  =    -24044.22219188
  -Hartree energ DENC   =    -10031.75789620
  -exchange      EXHF   =         0.00000000
  -V(xc)+E(xc)   XCENC  =      1585.81270461
  PAW double counting   =     36001.44255655   -37373.95128000
  entropy T*S    EENTRO =        -0.00232525
  eigenvalues    EBANDS =     -1358.11731029
  atomic energy  EATOM  =     33626.89778075
  Solvation  Ediel_sol  =         0.00000000
  ---------------------------------------------------
  free energy    TOTEN  =      -368.93904376 eV

  energy without entropy =     -368.93671851  energy(sigma->0) =     -368.93788114


--------------------------------------------------------------------------------------------------------




--------------------------------------- Iteration      1(  23)  ---------------------------------------


    POTLOK:  cpu time    0.1384: real time    0.1388
    SETDIJ:  cpu time    0.0215: real time    0.0215
     EDDAV:  cpu time    2.1432: real time    2.1483
    CHARGE:  cpu time    0.1096: real time    0.1098
    MIXING:  cpu time    0.0065: real time    0.0065
    --------------------------------------------
      LOOP:  cpu time    2.4191: real time    2.4249

 eigenvalue-minimisations  :  1424
 total energy-change (2. order) :-0.3940383E-01  (-0.1233008E-01)
 number of electron     391.0000061 magnetization       6.6910160
 augmentation part      130.0144116 magnetization       4.5092278

 Broyden mixing:
  rms(total) = 0.39143E+00    rms(broyden)= 0.39140E+00
  rms(prec ) = 0.43101E+00
  weight for this iteration     100.00

 eigenvalues of (default mixing * dielectric matrix)
  average eigenvalue GAMMA=   0.5787
  2.1134  1.4666  1.4666  0.8783  0.8783  0.5665  0.5665  0.4775  0.4775  0.4296
  0.2211  0.1614  0.1441  0.1355  0.1301  0.1136  0.1036  0.0868

 Free energy of the ion-electron system (eV)
  ---------------------------------------------------
  alpha Z        PSCENC =      1224.95891797
  Ewald energy   TEWEN  =    -24044.22219188
  -Hartree energ DENC   =    -10031.43763757
  -exchange      EXHF   =         0.00000000
  -V(xc)+E(xc)   XCENC  =      1585.88305480
  PAW double counting   =     36020.22653238   -37392.80737200
  entropy T*S    EENTRO =        -0.00156500
  eigenvalues    EBANDS =     -1358.47596702
  atomic energy  EATOM  =     33626.89778075
  Solvation  Ediel_sol  =         0.00000000
  ---------------------------------------------------
  free energy    TOTEN  =      -368.97844759 eV

  energy without entropy =     -368.97688258  energy(sigma->0) =     -368.97766508


--------------------------------------------------------------------------------------------------------




--------------------------------------- Iteration      1(  24)  ---------------------------------------


    POTLOK:  cpu time    0.1359: real time    0.1362
    SETDIJ:  cpu time    0.0213: real time    0.0213
     EDDAV:  cpu time    2.3469: real time    2.3525
    CHARGE:  cpu time    0.1175: real time    0.1178
    MIXING:  cpu time    0.0070: real time    0.0071
    --------------------------------------------
      LOOP:  cpu time    2.6286: real time    2.6349

 eigenvalue-minimisations  :  1472
 total energy-change (2. order) :-0.7552862E-01  (-0.3072556E-01)
 number of electron     391.0000061 magnetization       6.8134280
 augmentation part      130.0459201 magnetization       4.6389677

 Broyden mixing:
  rms(total) = 0.36573E+00    rms(broyden)= 0.36563E+00
  rms(prec ) = 0.44018E+00
  weight for this iteration     100.00

 eigenvalues of (default mixing * dielectric matrix)
  average eigenvalue GAMMA=   0.6016
  2.0558  1.5547  1.5547  1.0836  1.0836  0.5706  0.5706  0.5217  0.5217  0.4224
  0.4224  0.1927  0.1641  0.1408  0.1352  0.1314  0.1136  0.1036  0.0868

 Free energy of the ion-electron system (eV)
  ---------------------------------------------------
  alpha Z        PSCENC =      1224.95891797
  Ewald energy   TEWEN  =    -24044.22219188
  -Hartree energ DENC   =    -10031.33689859
  -exchange      EXHF   =         0.00000000
  -V(xc)+E(xc)   XCENC  =      1586.11987167
  PAW double counting   =     36071.94795068   -37444.48922888
  entropy T*S    EENTRO =        -0.00148473
  eigenvalues    EBANDS =     -1358.92869317
  atomic energy  EATOM  =     33626.89778075
  Solvation  Ediel_sol  =         0.00000000
  ---------------------------------------------------
  free energy    TOTEN  =      -369.05397621 eV

  energy without entropy =     -369.05249147  energy(sigma->0) =     -369.05323384


--------------------------------------------------------------------------------------------------------




--------------------------------------- Iteration      1(  25)  ---------------------------------------


    POTLOK:  cpu time    0.1418: real time    0.1422
    SETDIJ:  cpu time    0.0216: real time    0.0216
     EDDAV:  cpu time    2.2994: real time    2.3049
    CHARGE:  cpu time    0.1166: real time    0.1169
    MIXING:  cpu time    0.0072: real time    0.0072
    --------------------------------------------
      LOOP:  cpu time    2.5866: real time    2.5927

 eigenvalue-minimisations  :  1408
 total energy-change (2. order) :-0.1431936E-01  (-0.3611279E-01)
 number of electron     391.0000061 magnetization       6.9617203
 augmentation part      130.1042091 magnetization       4.7984029

 Broyden mixing:
  rms(total) = 0.28035E+00    rms(broyden)= 0.28025E+00
  rms(prec ) = 0.34803E+00
  weight for this iteration     100.00

 eigenvalues of (default mixing * dielectric matrix)
  average eigenvalue GAMMA=   0.6066
  2.2491  1.3473  1.3473  1.3263  1.3263  0.6293  0.6293  0.5203  0.5203  0.4766
  0.4766  0.2261  0.1829  0.1625  0.1414  0.1352  0.1312  0.1136  0.1036  0.0868

 Free energy of the ion-electron system (eV)
  ---------------------------------------------------
  alpha Z        PSCENC =      1224.95891797
  Ewald energy   TEWEN  =    -24044.22219188
  -Hartree energ DENC   =    -10031.18088585
  -exchange      EXHF   =         0.00000000
  -V(xc)+E(xc)   XCENC  =      1586.35272874
  PAW double counting   =     36100.47648203   -37472.49721683
  entropy T*S    EENTRO =        -0.00134837
  eigenvalues    EBANDS =     -1359.85256211
  atomic energy  EATOM  =     33626.89778075
  Solvation  Ediel_sol  =         0.00000000
  ---------------------------------------------------
  free energy    TOTEN  =      -369.06829556 eV

  energy without entropy =     -369.06694719  energy(sigma->0) =     -369.06762138


--------------------------------------------------------------------------------------------------------




--------------------------------------- Iteration      1(  26)  ---------------------------------------


    POTLOK:  cpu time    0.1424: real time    0.1428
    SETDIJ:  cpu time    0.0217: real time    0.0217
     EDDAV:  cpu time    2.3722: real time    2.3778
    CHARGE:  cpu time    0.1165: real time    0.1168
    MIXING:  cpu time    0.0079: real time    0.0080
    --------------------------------------------
      LOOP:  cpu time    2.6608: real time    2.6671

 eigenvalue-minimisations  :  1456
 total energy-change (2. order) : 0.8160744E-02  (-0.1679802E-01)
 number of electron     391.0000061 magnetization       6.9586613
 augmentation part      130.0936661 magnetization       4.8295564

 Broyden mixing:
  rms(total) = 0.18677E+00    rms(broyden)= 0.18670E+00
  rms(prec ) = 0.22688E+00
  weight for this iteration     100.00

 eigenvalues of (default mixing * dielectric matrix)
  average eigenvalue GAMMA=   0.5919
  2.3088  1.3239  1.3239  1.2666  1.2666  0.6839  0.6839  0.5130  0.5130  0.4843
  0.4843  0.3053  0.2198  0.1793  0.1641  0.1396  0.1355  0.1312  0.1136  0.1036
  0.0868

 Free energy of the ion-electron system (eV)
  ---------------------------------------------------
  alpha Z        PSCENC =      1224.95891797
  Ewald energy   TEWEN  =    -24044.22219188
  -Hartree energ DENC   =    -10032.34630480
  -exchange      EXHF   =         0.00000000
  -V(xc)+E(xc)   XCENC  =      1586.51731668
  PAW double counting   =     36115.76939694   -37487.52969623
  entropy T*S    EENTRO =        -0.00135271
  eigenvalues    EBANDS =     -1359.10400152
  atomic energy  EATOM  =     33626.89778075
  Solvation  Ediel_sol  =         0.00000000
  ---------------------------------------------------
  free energy    TOTEN  =      -369.06013482 eV

  energy without entropy =     -369.05878210  energy(sigma->0) =     -369.05945846


--------------------------------------------------------------------------------------------------------




--------------------------------------- Iteration      1(  27)  ---------------------------------------


    POTLOK:  cpu time    0.1419: real time    0.1423
[...]
   0.199E+01 -.106E+02 0.583E+02   -.157E+01 0.108E+02 -.588E+02   -.412E+00 -.170E+00 0.578E+00   -.876E-02 0.468E-02 -.268E-01
   -.171E+02 0.112E+02 0.633E+02   0.179E+02 -.114E+02 -.637E+02   -.726E+00 0.231E+00 0.305E+00   0.134E-01 0.154E-03 0.206E-01
   -.386E+02 -.101E+02 0.217E+02   0.394E+02 0.104E+02 -.219E+02   -.780E+00 -.207E+00 0.207E+00   0.150E-01 -.264E-02 0.212E-01
   -.862E+01 0.119E+02 0.692E+02   0.856E+01 -.121E+02 -.695E+02   0.749E-01 0.168E+00 0.307E+00   -.811E-02 -.495E-02 -.263E-01
   0.278E+02 -.146E+02 -.367E+02   -.279E+02 0.147E+02 0.365E+02   0.127E+00 -.123E+00 0.135E+00   0.298E-01 0.744E-02 -.141E-02
   -.666E+01 0.234E+01 0.982E+01   0.678E+01 -.233E+01 -.104E+02   -.963E-01 0.611E-02 0.578E+00   -.255E-01 -.820E-02 -.303E-02
   0.881E+01 -.232E+01 0.626E+02   -.915E+01 0.230E+01 -.632E+02   0.367E+00 0.126E-01 0.542E+00   -.271E-01 0.900E-02 -.465E-02
   -.776E+01 0.276E+01 -.598E+02   0.801E+01 -.279E+01 0.604E+02   -.256E+00 0.182E-01 -.633E+00   -.457E-02 0.402E-02 -.501E-02
   -.572E+01 0.953E+01 -.548E+02   0.529E+01 -.968E+01 0.554E+02   0.320E+00 0.160E+00 -.643E+00   0.104E+00 -.117E-01 0.229E-01
   0.216E+02 -.120E+02 -.642E+02   -.222E+02 0.121E+02 0.645E+02   0.736E+00 -.115E+00 -.298E+00   -.110E+00 -.778E-02 -.151E-01
   0.406E+02 0.103E+02 -.233E+02   -.413E+02 -.104E+02 0.234E+02   0.781E+00 0.153E+00 -.166E+00   -.107E+00 0.113E-01 -.185E-01
   0.425E+01 -.113E+02 -.654E+02   -.429E+01 0.114E+02 0.657E+02   -.656E-01 -.130E+00 -.404E+00   0.104E+00 0.129E-01 0.220E-01
   0.675E+01 -.207E+01 -.962E+01   -.680E+01 0.217E+01 0.102E+02   0.602E-01 -.868E-01 -.580E+00   -.786E-02 -.771E-02 -.491E-02
   -.263E+02 0.142E+02 0.341E+02   0.266E+02 -.143E+02 -.340E+02   -.299E+00 0.709E-01 -.105E+00   -.372E-03 0.140E-01 0.785E-02
   -.336E+02 -.116E+02 -.180E+02   0.344E+02 0.118E+02 0.181E+02   -.758E+00 -.102E+00 -.618E-01   -.179E-04 -.804E-02 0.815E-02
   0.250E+02 -.465E+01 0.247E+03   -.285E+02 0.462E+01 -.260E+03   0.351E+01 0.163E-01 0.136E+02   0.515E-01 0.900E-02 -.149E-01
   -.280E+02 0.511E+01 -.279E+03   0.326E+02 -.527E+01 0.292E+03   -.453E+01 0.155E+00 -.128E+02   -.532E-01 0.681E-02 0.160E-01
   -.327E+00 -.160E+01 -.255E+03   0.207E+01 0.110E+01 0.266E+03   -.172E+01 0.518E+00 -.116E+02   -.167E-01 -.161E-01 -.278E-01
   -.193E+02 0.437E+01 0.306E+03   0.177E+02 -.451E+01 -.321E+03   0.162E+01 0.146E+00 0.154E+02   -.459E-02 -.191E-02 0.520E-02
   0.191E+02 -.739E+01 0.262E+03   -.239E+02 0.754E+01 -.275E+03   0.481E+01 -.137E+00 0.125E+02   0.378E-01 -.113E-01 0.449E-01
   -.327E+02 -.368E+02 -.308E+03   0.371E+02 0.387E+02 0.324E+03   -.433E+01 -.190E+01 -.159E+02   -.404E-01 -.117E-01 -.364E-01
   -.499E+02 0.358E+02 -.300E+03   0.555E+02 -.376E+02 0.316E+03   -.554E+01 0.175E+01 -.165E+02   -.409E-01 0.941E-02 -.318E-01
   -.296E+02 0.732E+01 0.285E+03   0.286E+02 -.743E+01 -.300E+03   0.913E+00 0.994E-01 0.148E+02   0.520E-01 0.113E-01 0.370E-01
   -.156E+02 0.620E+01 -.265E+03   0.207E+02 -.628E+01 0.277E+03   -.506E+01 0.632E-01 -.119E+02   0.141E-02 0.105E-01 0.477E-02
   0.366E+02 0.362E+02 0.307E+03   -.410E+02 -.383E+02 -.323E+03   0.440E+01 0.216E+01 0.156E+02   0.195E-01 0.110E-01 -.785E-02
   0.492E+02 -.347E+02 0.299E+03   -.547E+02 0.366E+02 -.315E+03   0.551E+01 -.185E+01 0.161E+02   0.215E-01 -.922E-02 -.518E-02
   0.292E+02 -.609E+01 -.287E+03   -.282E+02 0.628E+01 0.301E+03   -.934E+00 -.187E+00 -.141E+02   0.172E-01 -.997E-02 -.671E-02
   -.339E+01 0.180E+01 0.255E+03   0.196E+01 -.103E+01 -.267E+03   0.136E+01 -.748E+00 0.121E+02   0.622E-01 -.116E-01 -.277E-01
   0.248E+02 -.453E+01 -.307E+03   -.238E+02 0.465E+01 0.322E+03   -.101E+01 -.121E+00 -.156E+02   -.634E-01 -.621E-02 0.255E-01
   -.202E+02 0.435E+01 -.248E+03   0.243E+02 -.433E+01 0.260E+03   -.408E+01 -.361E-01 -.125E+02   -.208E-01 0.175E-01 -.290E-01
   0.235E+02 -.461E+01 0.280E+03   -.278E+02 0.471E+01 -.292E+03   0.431E+01 -.101E+00 0.127E+02   -.156E-03 0.179E-02 0.570E-02
   0.331E+02 0.350E+02 0.290E+03   -.369E+02 -.369E+02 -.306E+03   0.392E+01 0.194E+01 0.155E+02   -.664E-01 0.585E-02 0.142E-01
   0.162E+02 -.131E+01 -.311E+03   -.160E+02 0.656E+00 0.326E+03   -.299E+00 0.643E+00 -.151E+02   0.712E-01 0.958E-02 -.182E-01
   -.498E+02 0.331E+02 -.283E+03   0.552E+02 -.349E+02 0.299E+03   -.545E+01 0.177E+01 -.161E+02   0.337E-02 -.138E-02 0.281E-01
   0.306E+02 -.412E+01 0.291E+03   -.356E+02 0.411E+01 -.302E+03   0.496E+01 0.240E-01 0.119E+02   0.145E-01 -.169E-01 -.551E-02
   0.366E+02 0.767E+01 0.261E+03   -.408E+02 -.793E+01 -.274E+03   0.434E+01 0.262E+00 0.130E+02   -.431E-01 -.700E-02 -.476E-01
   -.520E+02 0.363E+02 -.315E+03   0.578E+02 -.381E+02 0.331E+03   -.580E+01 0.178E+01 -.165E+02   0.406E-01 -.729E-02 0.405E-01
   -.331E+02 -.371E+02 -.320E+03   0.371E+02 0.388E+02 0.336E+03   -.403E+01 -.172E+01 -.164E+02   0.395E-01 0.850E-02 0.438E-01
   0.529E+02 -.814E+01 0.255E+03   -.577E+02 0.837E+01 -.268E+03   0.482E+01 -.239E+00 0.127E+02   -.364E-01 0.911E-02 -.548E-01
   -.419E+02 -.598E+01 -.260E+03   0.466E+02 0.611E+01 0.272E+03   -.467E+01 -.123E+00 -.127E+02   0.293E-02 -.394E-02 0.946E-02
   0.489E+02 -.349E+02 0.317E+03   -.546E+02 0.367E+02 -.333E+03   0.566E+01 -.180E+01 0.161E+02   -.263E-01 -.366E-02 -.553E-02
   0.362E+02 0.354E+02 0.320E+03   -.402E+02 -.373E+02 -.336E+03   0.404E+01 0.192E+01 0.161E+02   -.409E-01 0.312E-02 0.388E-02
   -.511E+02 0.606E+01 -.255E+03   0.558E+02 -.616E+01 0.267E+03   -.470E+01 0.983E-01 -.124E+02   0.853E-03 0.284E-02 0.584E-02
   0.574E+02 -.336E+02 0.280E+03   -.632E+02 0.355E+02 -.296E+03   0.587E+01 -.187E+01 0.160E+02   -.550E-01 -.779E-02 0.360E-02
   -.399E+02 0.475E+01 -.286E+03   0.447E+02 -.480E+01 0.298E+03   -.485E+01 0.689E-01 -.126E+02   0.587E-01 -.105E-01 -.421E-02
   -.340E+02 -.344E+02 -.290E+03   0.379E+02 0.364E+02 0.305E+03   -.390E+01 -.199E+01 -.155E+02   0.119E-01 0.230E-02 0.230E-01
   -.195E+02 0.723E+00 0.315E+03   0.190E+02 -.132E+00 -.329E+03   0.493E+00 -.609E+00 0.143E+02   0.994E-02 0.170E-01 -.265E-02
 -----------------------------------------------------------------------------------------------
   0.679E+00 0.156E-01 -.182E+00   0.156E-12 0.122E-12 0.568E-12   -.682E+00 -.110E-01 0.215E+00   0.904E-02 -.832E-03 -.276E-01
 
 
 POSITION                                       TOTAL-FORCE (eV/Angst)
 -----------------------------------------------------------------------------------
      1.49570      5.51746      2.37668        -0.008145     -0.002550     -0.004038
      4.14229      1.37795      2.35497         0.001248      0.000310     -0.001914
      2.26801      1.37973      7.05287        -0.000554      0.000548      0.002024
      2.26970      4.16706      7.04971         0.002373      0.000901      0.001777
      4.15233      4.16390      2.34971        -0.002767      0.002207     -0.000044
      1.53027      2.80949      2.36183         0.003150     -0.001491     -0.007495
      4.80027      2.75976      7.04787         0.001300     -0.002985      0.001799
      6.76789      5.52059      2.34244        -0.003706      0.001525      0.000742
     -0.27017      5.54288      7.05537         0.000127     -0.001701     -0.001563
     -0.92229      1.40818      2.33895        -0.000090     -0.003381      0.002046
      7.34284      1.39012      7.05948        -0.001401      0.001672      0.002117
      7.32205      4.15716      7.06480         0.002495     -0.001776      0.001279
      6.78178      2.79356      2.33154         0.017420      0.005098     -0.006565
     10.12963      5.53874      0.03734         0.001289     -0.002227     -0.002719
     -1.18181      1.39234      9.38596         0.002607     -0.000886     -0.003529
      3.88415      1.38109      9.34205         0.002873     -0.001302      0.000822
      3.89277      4.16657      9.36822         0.003072     -0.000641      0.000403
     -1.18243      4.16008      9.38112         0.002729     -0.000414     -0.003829
      0.00582      2.77740      0.03971         0.000800     -0.002306     -0.003484
      5.07856     -0.00251      0.06035         0.002501      0.000812     -0.000196
      5.07411      2.77111      0.01969         0.003172      0.000656     -0.000039
      3.21273     -0.00266      4.69394        -0.003183     -0.002223      0.001051
      5.73410      1.38031      4.71112        -0.005215      0.001133      0.004903
      0.67369      1.39165      4.74900         0.000857      0.002263     -0.001598
      0.65478      4.15679      4.72900         0.000813      0.001124     -0.001594
      5.73236      4.16472      4.71694        -0.005486      0.001600      0.005556
      3.19746      2.77148      4.65939        -0.003223     -0.002356      0.001416
      8.26851     -0.00472      4.66847        -0.003873      0.001878      0.002862
     -1.85623      2.78530      4.67236        -0.001982      0.002507      0.001486
      5.09155     -0.00154      3.66356        -0.003947      0.001393      0.004086
      1.33778      5.53218      5.76495        -0.001818      0.000883      0.000119
      3.29621      0.01343      1.04142         0.002156     -0.001803     -0.002568
      3.05739      5.53263      8.42517         0.000846     -0.000180      0.001028
      7.61499      1.40771      3.63744        -0.008676      0.001355      0.005826
     -1.13793      1.37592      5.66455         0.001653      0.003223     -0.003078
     -1.21694      4.18636      5.68761         0.001606      0.004235     -0.003235
      7.44761      4.13600      3.73534        -0.007314      0.001641      0.004198
      0.69356      1.36882      1.06538         0.003512     -0.001052     -0.002422
      5.70953      1.40398      8.41580         0.000440     -0.002786     -0.001601
      5.74267      4.13724      8.40963        -0.000156     -0.003510     -0.000889
      0.82057      4.17949      0.97834         0.003219     -0.001383     -0.002981
      4.95399      2.75180      3.69139        -0.008475      0.003101      0.009798
      1.50611      2.79664      5.67092         0.000766      0.000147     -0.001044
      3.22946      2.77503      1.03369         0.001709     -0.000063     -0.003917
      3.16382      2.78988      8.34437         0.003886     -0.000647      0.000102
     -0.08976      0.01622      3.74630         0.000267      0.004553     -0.004008
      6.57713      0.02419      5.66545        -0.005647     -0.000269      0.005082
      8.30995      0.01730      0.98261         0.000467     -0.000906      0.002358
     -1.88984      0.00309      8.36987         0.003438     -0.000758     -0.004552
      2.43705      1.35807      3.68292         0.002155     -0.003486     -0.003922
      3.86716      1.40314      5.69344        -0.004422     -0.002022      0.005183
      3.96815      4.14176      5.65303        -0.008131     -0.000367      0.007739
      2.52172      4.18204      3.64668         0.000369     -0.003389     -0.003889
      5.81804      1.40668      1.04922         0.000517      0.001308      0.002205
      0.65305      1.36311      8.41731         0.003275     -0.000088     -0.001423
      0.58961      4.18419      8.44688         0.006191      0.000117     -0.002091
      5.77863      4.13833      1.07056         0.001690      0.001202      0.002275
      0.01100      2.75783      3.71467        -0.000201      0.002015     -0.003645
      6.39571      2.76777      5.74545        -0.004274      0.001263      0.005809
      8.35771      2.75016      0.96575         0.004622     -0.001608      0.000743
     -2.02024      2.75590      8.43336         0.001076     -0.000116     -0.002961
 -----------------------------------------------------------------------------------
    total drift:                                0.005889      0.003771      0.006239


--------------------------------------------------------------------------------------------------------



  FREE ENERGIE OF THE ION-ELECTRON SYSTEM (eV)
  ---------------------------------------------------
  free  energy   TOTEN  =      -369.0640953374 eV

  energy  without entropy=     -369.0631099936  energy(sigma->0) =     -369.06360267
 
 d Force = 0.6538087E-04[ 0.543E-04, 0.765E-04]  d Energy = 0.8884633E-04-0.235E-04
 d Force = 0.8347966E+00[ 0.835E+00, 0.835E+00]  d Ewald  =-0.6991694E-01 0.905E+00


--------------------------------------------------------------------------------------------------------


    POTLOK:  cpu time    0.1650: real time    0.1654


--------------------------------------------------------------------------------------------------------


 Quasi-Newton relaxation of ions (Broydens 2nd method)
  g(Force)  = 0.997E-04   g(Stress)= 0.161E-03

 retain information from N=  1 steps
 eigenvalues of (default step * inverse Hessian matrix)
  average eigenvalue of G=   0.2457
 eigenvalue spectrum of G is  0.2457


--------------------------------------------------------------------------------------------------------


  
 reached required accuracy - stopping structural energy minimisation
     LOOP+:  cpu time   14.8261: real time   15.0105
    4ORBIT:  cpu time    0.0000: real time    0.0000

volume of typ            1:    19.2 %

volume of typ            2:    19.3 %

volume of typ            3:     9.9 %
 
total charge     
 
# of ion       s       p       d       tot
------------------------------------------
    1        2.084   0.250   0.095   2.430
    2        2.081   0.258   0.095   2.434
    3        2.081   0.250   0.095   2.426
    4        2.077   0.243   0.091   2.411
    5        2.086   0.269   0.102   2.457
    6        2.084   0.259   0.098   2.441
    7        2.080   0.248   0.094   2.422
    8        2.083   0.257   0.098   2.438
    9        2.079   0.246   0.093   2.419
   10        2.083   0.255   0.097   2.435
   11        2.077   0.247   0.090   2.413
   12        2.080   0.251   0.093   2.424
   13        2.084   0.251   0.096   2.431
   14        0.266   0.352   7.864   8.482
   15        0.264   0.346   7.872   8.482
   16        0.271   0.362   7.870   8.503
   17        0.265   0.348   7.867   8.480
   18        0.268   0.361   7.862   8.491
   19        0.279   0.381   7.863   8.523
   20        0.277   0.376   7.874   8.527
   21        0.266   0.350   7.872   8.487
   22        0.266   0.347   7.885   8.499
   23        0.265   0.345   7.880   8.490
   24        0.273   0.366   7.863   8.502
   25        0.266   0.347   7.881   8.494
   26        0.269   0.362   7.860   8.491
   27        0.279   0.382   7.871   8.532
   28        0.279   0.382   7.858   8.520
   29        0.266   0.348   7.875   8.489
   30        1.256   2.798   0.006   4.059
   31        1.253   2.804   0.006   4.063
   32        1.257   2.795   0.005   4.057
   33        1.259   2.788   0.007   4.054
   34        1.253   2.805   0.006   4.064
   35        1.264   2.771   0.006   4.041
   36        1.264   2.775   0.007   4.045
   37        1.259   2.790   0.006   4.055
   38        1.254   2.804   0.006   4.064
   39        1.264   2.774   0.006   4.044
   40        1.263   2.779   0.006   4.048
   41        1.259   2.790   0.006   4.056
   42        1.257   2.793   0.006   4.056
   43        1.260   2.785   0.007   4.052
   44        1.256   2.798   0.006   4.060
   45        1.253   2.804   0.006   4.062
   46        1.261   2.779   0.006   4.047
   47        1.263   2.778   0.006   4.047
   48        1.261   2.784   0.007   4.051
   49        1.257   2.797   0.006   4.060
   50        1.256   2.795   0.006   4.057
   51        1.262   2.778   0.007   4.047
   52        1.263   2.775   0.007   4.044
   53        1.255   2.800   0.006   4.061
   54        1.255   2.798   0.006   4.059
   55        1.262   2.778   0.006   4.047
   56        1.262   2.778   0.007   4.046
   57        1.254   2.804   0.006   4.063
   58        1.261   2.783   0.007   4.051
   59        1.256   2.798   0.006   4.060
   60        1.260   2.785   0.006   4.051
   61        1.264   2.779   0.006   4.049
--------------------------------------------------
tot          71.66   98.28  127.35  297.29
 
magnetization (x)
 
# of ion       s       p       d       tot
------------------------------------------
    1       -0.000   0.002  -0.000   0.002
    2        0.005   0.014  -0.000   0.019
    3        0.002   0.007   0.001   0.010
    4        0.004   0.007  -0.000   0.010
    5        0.001   0.007  -0.000   0.009
    6        0.001   0.003  -0.001   0.004
    7        0.001   0.004  -0.001   0.005
    8        0.002   0.007   0.001   0.010
    9        0.002   0.007   0.001   0.011
   10        0.003   0.008   0.001   0.012
   11        0.005   0.014   0.000   0.020
   12        0.002   0.007  -0.000   0.009
   13       -0.000   0.002  -0.000   0.001
   14        0.003  -0.001   0.597   0.599
   15        0.003  -0.000   0.711   0.714
   16        0.004  -0.000   0.588   0.592
   17        0.004  -0.000   0.663   0.667
   18        0.000  -0.001   0.512   0.511
   19       -0.000  -0.001   0.347   0.347
   20        0.001  -0.001   0.435   0.435
   21        0.004  -0.001   0.628   0.631
   22        0.005  -0.000   0.552   0.557
   23        0.005  -0.000   0.656   0.661
   24        0.004  -0.000   0.507   0.510
   25       -0.004  -0.000  -0.483  -0.488
   26        0.001  -0.001   0.503   0.503
   27       -0.001  -0.000  -0.291  -0.293
   28       -0.001   0.000  -0.317  -0.318
   29       -0.005  -0.000  -0.559  -0.564
   30        0.007   0.086   0.000   0.093
   31        0.005   0.081   0.000   0.086
   32        0.010   0.062   0.000   0.072
   33        0.007   0.062   0.000   0.069
   34        0.004   0.073   0.000   0.077
   35        0.004   0.039   0.000   0.043
   36       -0.006  -0.085  -0.000  -0.091
   37        0.002   0.028   0.000   0.030
   38        0.007   0.075   0.000   0.082
   39        0.009   0.082   0.000   0.091
   40        0.008   0.090   0.000   0.099
   41        0.007   0.052   0.000   0.059
   42        0.003   0.008  -0.000   0.011
   43       -0.003  -0.043  -0.000  -0.045
   44        0.009   0.079   0.000   0.089
   45        0.007   0.077   0.000   0.085
   46       -0.003  -0.017  -0.000  -0.020
   47        0.002  -0.006   0.000  -0.004
   48        0.007   0.076   0.000   0.083
   49        0.009   0.069   0.000   0.079
   50        0.006   0.054   0.000   0.059
   51        0.006   0.093   0.000   0.099
   52        0.004   0.029   0.000   0.034
   53       -0.004  -0.067  -0.000  -0.071
   54        0.008   0.067   0.000   0.075
   55        0.008   0.090   0.000   0.098
   56        0.007   0.042   0.000   0.049
   57        0.008   0.079   0.000   0.087
   58       -0.005  -0.086  -0.000  -0.091
   59       -0.002  -0.074  -0.000  -0.076
   60        0.006   0.043   0.000   0.049
   61        0.010   0.064   0.000   0.074
--------------------------------------------------
tot           0.20    1.31    5.05    6.56
 

 total amount of memory used by VASP MPI-rank0    95260. kBytes
=======================================================================

   base      :      30000. kBytes
   nonlr-proj:      23341. kBytes
   fftplans  :       5418. kBytes
   grid      :      31961. kBytes
   one-center:        948. kBytes
   wavefun   :       3592. kBytes
 
  
  
 General timing and accounting informations for this job:
 ========================================================
  
                  Total CPU time used (sec):      286.646
                            User time (sec):      284.284
                          System time (sec):        2.362
                         Elapsed time (sec):      291.915
  
                   Maximum memory used (kb):      145500.
                   Average memory used (kb):           0.
  
                          Minor page faults:        38370
                          Major page faults:           43
                 Voluntary context switches:         1318
