 vasp.5.4.4.18Apr17-6-g9f103f2a35 (build May 12 2020 05:39:39) gamma-only       
  
 MD_VERSION_INFO: Compiled 2020-05-12T12:39:39-UTC in devlin.sd.materialsdesign.
 com:/home/medea2/data/build/wwolf/vasp-gpu5.4.4/13047/x86_64/src/src/build/gam 
 from svn 13047
 
 This VASP executable licensed from Materials Design, Inc.
 
 executed on                        Lin64 date 2023.03.07  05:22:12
 running on   16 total cores
 distrk:  each k-point on   16 cores,    1 groups
 distr:  one band on NCORES_PER_BAND=   1 cores,   16 groups


--------------------------------------------------------------------------------------------------------


 INCAR:
 POTCAR:    PAW_PBE Li_sv 10Sep2004               
 POTCAR:    PAW_PBE Ni 02Aug2007                  
 POTCAR:    PAW_PBE O 08Apr2002                   

 ----------------------------------------------------------------------------- 
|                                                                             |
|           W    W    AA    RRRRR   N    N  II  N    N   GGGG   !!!           |
|           W    W   A  A   R    R  NN   N  II  NN   N  G    G  !!!           |
|           W    W  A    A  R    R  N N  N  II  N N  N  G       !!!           |
|           W WW W  AAAAAA  RRRRR   N  N N  II  N  N N  G  GGG   !            |
|           WW  WW  A    A  R   R   N   NN  II  N   NN  G    G                |
|           W    W  A    A  R    R  N    N  II  N    N   GGGG   !!!           |
|                                                                             |
|      For optimal performance we recommend to set                            |
|        NCORE= 4 - approx SQRT( number of cores)                             |
|      NCORE specifies how many cores store one orbital (NPAR=cpu/NCORE).     |
|      This setting can  greatly improve the performance of VASP for DFT.     |
|      The default,   NCORE=1            might be grossly inefficient         |
|      on modern multi-core architectures or massively parallel machines.     |
|      Do your own testing !!!!                                               |
|      Unfortunately you need to use the default for GW and RPA calculations. |
|      (for HF NCORE is supported but not extensively tested yet)             |
|                                                                             |
 ----------------------------------------------------------------------------- 

 POTCAR:    PAW_PBE Li_sv 10Sep2004               
  local pseudopotential read in
  atomic valenz-charges read in
  non local Contribution for L=           0  read in
    real space projection operators read in
  non local Contribution for L=           0  read in
    real space projection operators read in
  non local Contribution for L=           1  read in
    real space projection operators read in
    PAW grid and wavefunctions read in
 
   number of l-projection  operators is LMAX  =           3
   number of lm-projection operators is LMMAX =           5
 
 POTCAR:    PAW_PBE Ni 02Aug2007                  
  local pseudopotential read in
  partial core-charges read in
  partial kinetic energy density read in
  atomic valenz-charges read in
  non local Contribution for L=           2  read in
    real space projection operators read in
  non local Contribution for L=           2  read in
    real space projection operators read in
  non local Contribution for L=           0  read in
    real space projection operators read in
  non local Contribution for L=           0  read in
    real space projection operators read in
  non local Contribution for L=           1  read in
    real space projection operators read in
  non local Contribution for L=           1  read in
    real space projection operators read in
    PAW grid and wavefunctions read in
 
   number of l-projection  operators is LMAX  =           6
   number of lm-projection operators is LMMAX =          18
 
 POTCAR:    PAW_PBE O 08Apr2002                   
  local pseudopotential read in
  partial core-charges read in
  partial kinetic energy density read in
  kinetic energy density of atom read in
  atomic valenz-charges read in
  non local Contribution for L=           0  read in
    real space projection operators read in
  non local Contribution for L=           0  read in
    real space projection operators read in
  non local Contribution for L=           1  read in
    real space projection operators read in
  non local Contribution for L=           1  read in
    real space projection operators read in
    PAW grid and wavefunctions read in
 
   number of l-projection  operators is LMAX  =           4
   number of lm-projection operators is LMMAX =           8
 
 Optimization of the real space projectors (new method)

 maximal supplied QI-value         = 22.11
 optimisation between [QCUT,QGAM] = [ 11.28, 22.77] = [ 35.61,145.23] Ry 
 Optimized for a Real-space Cutoff    1.10 Angstroem

   l    n(q)    QCUT    max X(q) W(low)/X(q) W(high)/X(q)  e(spline) 
   0      7    11.276    10.506    0.54E-04    0.58E-04    0.16E-07
   0      7    11.276     8.367    0.11E-03    0.14E-03    0.35E-07
   1      7    11.276     8.983    0.23E-03    0.43E-03    0.86E-07
 Optimization of the real space projectors (new method)

 maximal supplied QI-value         = 16.25
 optimisation between [QCUT,QGAM] = [ 11.38, 22.75] = [ 36.24,144.96] Ry 
 Optimized for a Real-space Cutoff    1.47 Angstroem

   l    n(q)    QCUT    max X(q) W(low)/X(q) W(high)/X(q)  e(spline) 
   2      9    11.376    60.317    0.17E-03    0.16E-04    0.16E-06
   2      9    11.376    55.921    0.17E-03    0.16E-04    0.17E-06
   0     10    11.376    51.690    0.45E-04    0.60E-04    0.21E-06
   0     10    11.376    30.015    0.37E-04    0.55E-04    0.19E-06
   1     10    11.376    18.849    0.83E-04    0.11E-03    0.92E-07
   1     10    11.376    14.624    0.69E-04    0.92E-04    0.82E-07
 Optimization of the real space projectors (new method)

 maximal supplied QI-value         = 24.76
 optimisation between [QCUT,QGAM] = [ 11.39, 22.77] = [ 36.31,145.25] Ry 
 Optimized for a Real-space Cutoff    1.10 Angstroem

   l    n(q)    QCUT    max X(q) W(low)/X(q) W(high)/X(q)  e(spline) 
   0      7    11.387    20.381    0.22E-03    0.48E-03    0.18E-06
   0      7    11.387    15.268    0.22E-03    0.52E-03    0.19E-06
   1      7    11.387     5.964    0.22E-03    0.73E-03    0.24E-06
   1      7    11.387     5.382    0.19E-03    0.60E-03    0.21E-06

 ----------------------------------------------------------------------------- 
|                                                                             |
|  ADVICE TO THIS USER RUNNING 'VASP/VAMP'   (HEAR YOUR MASTER'S VOICE ...):  |
|                                                                             |
|      You enforced a specific xc-type in the INCAR file,                     |
|      a different type was found on the POTCAR file                          |
|          I HOPE YOU KNOW, WHAT YOU ARE  DOING                               |
|                                                                             |
 ----------------------------------------------------------------------------- 

  PAW_PBE Li_sv 10Sep2004               :
 energy of atom  1       EATOM= -202.7858
 kinetic energy error for atom=    0.0143 (will be added to EATOM!!)
  PAW_PBE Ni 02Aug2007                  :
 energy of atom  2       EATOM=-1077.6739
 kinetic energy error for atom=    0.0030 (will be added to EATOM!!)
  PAW_PBE O 08Apr2002                   :
 energy of atom  3       EATOM= -432.3788
 kinetic energy error for atom=    0.0224 (will be added to EATOM!!)
 
 
 POSCAR: ce7150_1                                
  positions in direct lattice
  No initial velocities read in
 exchange correlation table for  LEXCH =       14
   RHO(1)=    0.500       N(1)  =     2000
   RHO(2)=  100.500       N(2)  =     4000
 


--------------------------------------------------------------------------------------------------------


 ion  position               nearest neighbor table
   1  0.997  0.252  0.228-  42 1.99  37 2.05  34 2.06  49 2.18  46 2.21  10 2.78  21 2.84
   2  0.252  0.250  0.500-  46 2.07  50 2.08  40 2.13  38 2.14  28 2.14  26 2.15
   3  0.251  0.750  0.500-  39 2.12  41 2.12  29 2.13  27 2.13  51 2.13  47 2.14
   4  0.501  0.250  0.233-  54 2.00  37 2.07  34 2.10  46 2.20  40 2.21  49 2.21  15 2.75
   5  0.542  0.750  0.750-  48 2.04  36 2.04  55 2.11  41 2.11  13 2.77  22 2.80
   6  0.999  0.249  0.768-  44 1.99  33 2.08  30 2.10  50 2.19  53 2.21  26 2.23  24 2.76
   7  0.958  0.751  0.249-  52 2.03  32 2.04  45 2.10  27 2.13  21 2.78  14 2.78
   8  0.251  0.751  0.001-  31 2.08  35 2.10  45 2.15  55 2.15  57 2.16  43 2.18
   9  0.503  0.247  0.772-  56 1.99  33 2.06  30 2.06  53 2.18  50 2.21  25 2.78  13 2.84
  10  0.000  0.001  1.000-  36 1.85  34 1.85  35 1.86  37 1.86  44 2.01  45 2.06  15 2.76  15 2.77
                             1 2.78  12 2.83  13 2.85  11 2.85  14 2.85
  11  0.251  1.000  0.250-  40 1.84  45 1.84  57 1.84  28 1.85  34 1.99  51 2.02  14 2.76  14 2.77
                            15 2.84  17 2.85  10 2.85  16 2.87
  12  0.249  0.997  0.750-  44 1.83  41 1.84  29 1.84  56 1.85  35 2.03  50 2.07  13 2.76  13 2.77
                            10 2.83  16 2.84  17 2.85  15 2.85
  13  0.751  0.995  0.747-  44 1.84  56 1.85  29 1.86  41 1.86  36 1.94  53 1.95  12 2.76   5 2.77
                            12 2.77  16 2.82  17 2.83   9 2.84  10 2.85  15 2.86
  14  0.750  0.001  0.251-  40 1.85  57 1.86  45 1.86  28 1.87  52 1.94  37 1.95  11 2.76  11 2.77
                             7 2.78  15 2.83  16 2.85  17 2.85  10 2.85
  15  0.501  0.005  0.003-  35 1.84  36 1.85  37 1.86  34 1.86  57 1.95  56 1.97   4 2.75  10 2.76
                            10 2.77  14 2.83  11 2.84  12 2.85  13 2.86
  16  0.998  0.006  0.504-  51 1.84  52 1.85  53 1.86  50 1.87  29 1.95  28 1.99  17 2.75  17 2.78
                            13 2.82  12 2.84  14 2.85  11 2.87
  17  0.500  0.002  0.501-  52 1.85  53 1.85  51 1.85  50 1.87  41 2.04  40 2.06  16 2.75  16 2.78
                            13 2.83  11 2.85  12 2.85  14 2.85
  18  1.000  0.498  0.499-  48 1.85  49 1.85  47 1.85  46 1.87  27 2.04  26 2.06  23 2.75  23 2.78
                            21 2.83  19 2.85  22 2.85  20 2.85
  19  0.249  0.500  0.750-  26 1.84  55 1.84  43 1.84  38 1.85  30 1.99  47 2.02  22 2.76  22 2.77
                            24 2.83  18 2.85  25 2.85  23 2.87
  20  0.251  0.503  0.250-  54 1.83  27 1.84  39 1.84  42 1.85  31 2.04  46 2.08  21 2.76  21 2.77
                            25 2.83  23 2.84  18 2.85  24 2.86
  21  0.750  0.505  0.253-  54 1.84  42 1.85  39 1.86  27 1.86  32 1.94  49 1.95  20 2.76  20 2.77
                             7 2.78  23 2.82  18 2.83   1 2.84  25 2.85  24 2.87
  22  0.750  0.498  0.750-  26 1.85  43 1.86  55 1.86  38 1.86  48 1.93  33 1.94  19 2.76  19 2.77
                             5 2.80  24 2.83  18 2.85  25 2.85  23 2.85
  23  0.502  0.494  0.497-  47 1.84  48 1.85  49 1.85  46 1.87  39 1.95  38 2.00  18 2.75  18 2.78
                            21 2.82  20 2.84  22 2.85  19 2.87
  24  0.999  0.496  0.997-  31 1.84  32 1.85  33 1.86  30 1.86  43 1.95  42 1.97   6 2.76  25 2.76
                            25 2.77  22 2.83  19 2.83  20 2.86  21 2.87
  25  0.500  0.499  0.001-  32 1.85  30 1.86  31 1.86  33 1.87  54 2.01  55 2.06  24 2.76  24 2.77
                             9 2.78  20 2.83  21 2.85  19 2.85  22 2.85
  26  0.004  0.394  0.643-  19 1.84  22 1.85  18 2.06   2 2.15   6 2.23
  27  0.005  0.607  0.360-  20 1.84  21 1.86  18 2.04   3 2.13   7 2.13
  28  0.003  0.104  0.361-  11 1.85  14 1.87  16 1.99   2 2.14
  29  0.005  0.899  0.633-  12 1.84  13 1.86  16 1.95   3 2.13
  30  0.254  0.395  0.886-  25 1.86  24 1.86  19 1.99   9 2.06   6 2.10
  31  0.243  0.604  0.105-  24 1.84  25 1.86  20 2.04   8 2.08
  32  0.752  0.598  0.112-  24 1.85  25 1.85  21 1.94   7 2.04
  33  0.747  0.397  0.883-  24 1.86  25 1.87  22 1.94   9 2.06   6 2.08
  34  0.246  0.105  0.114-  10 1.85  15 1.86  11 1.99   1 2.06   4 2.10
  35  0.257  0.897  0.895-  15 1.84  10 1.86  12 2.03   8 2.10
  36  0.748  0.902  0.889-  15 1.85  10 1.85  13 1.94   5 2.04
  37  0.753  0.104  0.116-  15 1.86  10 1.86  14 1.95   1 2.05   4 2.07
  38  0.498  0.395  0.640-  19 1.85  22 1.86  23 2.00   2 2.14
  39  0.495  0.601  0.366-  20 1.84  21 1.86  23 1.95   3 2.12
  40  0.497  0.107  0.357-  11 1.84  14 1.85  17 2.06   2 2.13   4 2.21
  41  0.495  0.893  0.640-  12 1.84  13 1.86  17 2.04   5 2.11   3 2.12
  42  0.000  0.402  0.141-  20 1.85  21 1.85  24 1.97   1 1.99
  43  0.000  0.599  0.864-  19 1.84  22 1.86  24 1.95   8 2.18
  44  0.998  0.100  0.855-  12 1.83  13 1.84   6 1.99  10 2.01
  45  0.003  0.896  0.143-  11 1.84  14 1.86  10 2.06   7 2.10   8 2.15
  46  0.248  0.389  0.388-  18 1.87  23 1.87   2 2.07  20 2.08   4 2.20   1 2.21
  47  0.254  0.599  0.606-  23 1.84  18 1.85  19 2.02   3 2.14
  48  0.747  0.594  0.613-  23 1.85  18 1.85  22 1.93   5 2.04
  49  0.754  0.398  0.382-  18 1.85  23 1.85  21 1.95   1 2.18   4 2.21
  50  0.251  0.111  0.613-  17 1.87  16 1.87  12 2.07   2 2.08   6 2.19   9 2.21
  51  0.246  0.900  0.394-  16 1.84  17 1.85  11 2.02   3 2.13
  52  0.753  0.905  0.388-  16 1.85  17 1.85  14 1.94   7 2.03
  53  0.745  0.103  0.618-  17 1.85  16 1.86  13 1.95   9 2.18   6 2.21
  54  0.502  0.400  0.145-  20 1.83  21 1.84   4 2.00  25 2.01
  55  0.498  0.605  0.857-  19 1.84  22 1.86  25 2.06   5 2.11   8 2.15
  56  0.501  0.098  0.859-  12 1.85  13 1.85  15 1.97   9 1.99
  57  0.501  0.902  0.136-  11 1.84  14 1.86  15 1.95   8 2.16
 
  LATTYP: Found a triclinic cell.
 ALAT       =    11.6010888687
 B/A-ratio  =     0.4768427190
 C/A-ratio  =     0.8569853006
 COS(alpha) =     0.0009970132
 COS(beta)  =     0.3004113437
 COS(gamma) =     0.4811346768
  
  Lattice vectors:
  
 A1 = (  -3.5815252343,   5.5566656576,   9.5331740100)
 A2 = (  -0.0028695193,   5.5318776624,   0.0134507608)
 A3 = (  -9.9414249302,   0.0050065598,  -0.1032775689)


Analysis of symmetry for initial positions (statically):
=====================================================================
 Subroutine PRICEL returns:
 Original cell was already a primitive cell.
 

 Routine SETGRP: Setting up the symmetry group for a 
 triclinic supercell.


 Subroutine GETGRP returns: Found  1 space group operations
 (whereof  1 operations were pure point group operations)
 out of a pool of  2 trial point group operations.


The static configuration has the point symmetry C_1 .


Analysis of symmetry for dynamics (positions and initial velocities):
=====================================================================
 Subroutine PRICEL returns:
 Original cell was already a primitive cell.
 

 Routine SETGRP: Setting up the symmetry group for a 
 triclinic supercell.


 Subroutine GETGRP returns: Found  1 space group operations
 (whereof  1 operations were pure point group operations)
 out of a pool of  2 trial point group operations.


The dynamic configuration has the point symmetry C_1 .


Analysis of structural, dynamic, and magnetic symmetry:
=====================================================================
 Subroutine PRICEL returns:
 Original cell was already a primitive cell.
 

 Routine SETGRP: Setting up the symmetry group for a 
 triclinic supercell.


 Subroutine GETGRP returns: Found  1 space group operations
 (whereof  1 operations were pure point group operations)
 out of a pool of  2 trial point group operations.


The magnetic configuration has the point symmetry C_1 .


 Subroutine INISYM returns: Found  1 space group operations
 (whereof  1 operations are pure point group operations),
 and found     1 'primitive' translations

 
 
 KPOINTS: Automatic mesh                          

Automatic generation of k-mesh.
Space group operators:
 irot       det(A)        alpha          n_x          n_y          n_z        tau_x        tau_y        tau_z
    1     1.000000     0.000001     1.000000     0.000000     0.000000     0.000000     0.000000     0.000000
 
 Subroutine IBZKPT returns following result:
 ===========================================
 
 Found      1 irreducible k-points:
 
 Following reciprocal coordinates:
            Coordinates               Weight
  0.000000  0.000000  0.000000      1.000000
 
 Following cartesian coordinates:
            Coordinates               Weight
  0.000000  0.000000  0.000000      1.000000
 


--------------------------------------------------------------------------------------------------------




 Dimension of arrays:
   k-points           NKPTS =      1   k-points in BZ     NKDIM =      1   number of bands    NBANDS=    256
   number of dos      NEDOS =    301   number of ions     NIONS =     57
   non local maximal  LDIM  =      6   non local SUM 2l+1 LMDIM =     18
   total plane-waves  NPLWV = 256000
   max r-space proj   IRMAX =   6589   max aug-charges    IRDMAX=  15986
   dimension x,y,z NGX =    40 NGY =   80 NGZ =   80
   dimension x,y,z NGXF=    80 NGYF=  160 NGZF=  160
   support grid    NGXF=    80 NGYF=  160 NGZF=  160
   ions per type =               9  16  32
   NGX,Y,Z   is equivalent  to a cutoff of  12.02, 13.08, 13.38 a.u.
   NGXF,Y,Z  is equivalent  to a cutoff of  24.04, 26.15, 26.75 a.u.

 SYSTEM =  unknown system                          
 POSCAR =  ce7150_1                                

 Startparameter for this run:
   NWRITE =      1    write-flag & timer
   PREC   = accura    normal or accurate (medium, high low for compatibility)
   ISTART =      0    job   : 0-new  1-cont  2-samecut
   ICHARG =      2    charge: 1-file 2-atom 10-const
   ISPIN  =      2    spin polarized calculation?
   LNONCOLLINEAR =      F non collinear calculations
   LSORBIT =      F    spin-orbit coupling
   INIWAV =      1    electr: 0-lowe 1-rand  2-diag
   LASPH  =      F    aspherical Exc in radial PAW
   METAGGA=      F    non-selfconsistent MetaGGA calc.

 Electronic Relaxation 1
   ENCUT  =  500.0 eV  36.75 Ry    6.06 a.u.  10.09 18.54 18.13*2*pi/ulx,y,z
   ENINI  =  500.0     initial cutoff
   ENAUG  =  628.9 eV  augmentation charge cutoff
   NELM   =     80;   NELMIN=  2; NELMDL= -5     # of ELM steps 
   EDIFF  = 0.1E-04   stopping-criterion for ELM
   LREAL  =      T    real-space projection
   NLSPLINE    = F    spline interpolate recip. space projectors
   LCOMPAT=      F    compatible to vasp.4.4
   GGA_COMPAT  = T    GGA compatible to vasp.4.4-vasp.4.6
   LMAXPAW     = -100 max onsite density
   LMAXMIX     =    2 max onsite mixed and CHGCAR
   VOSKOWN=      1    Vosko Wilk Nusair interpolation
   ROPT   =   -0.00025  -0.00025  -0.00025
 Ionic relaxation
   EDIFFG = -.2E-01   stopping-criterion for IOM
   NSW    =     20    number of steps for IOM
   NBLOCK =      1;   KBLOCK =     20    inner block; outer block 
   IBRION =      1    ionic relax: 0-MD 1-quasi-New 2-CG
   NFREE  =      0    steps in history (QN), initial steepest desc. (CG)
   ISIF   =      3    stress and relaxation
   IWAVPR =     11    prediction:  0-non 1-charg 2-wave 3-comb
   ISYM   =      2    0-nonsym 1-usesym 2-fastsym
   LCORR  =      T    Harris-Foulkes like correction to forces

   POTIM  = 0.5000    time-step for ionic-motion
   TEIN   =    0.0    initial temperature
   TEBEG  =    0.0;   TEEND  =   0.0 temperature during run
   SMASS  =  -3.00    Nose mass-parameter (am)
   estimated Nose-frequenzy (Omega)   =  0.10E-29 period in steps =****** mass=  -0.699E-27a.u.
   SCALEE = 1.0000    scale energy and forces
   NPACO  =    256;   APACO  = 16.0  distance and # of slots for P.C.
   PSTRESS=    0.0 pullay stress

  Mass of Ions in am
   POMASS =   7.01 58.69 16.00
  Ionic Valenz
   ZVAL   =   3.00 10.00  6.00
  Atomic Wigner-Seitz radii
   RWIGS  =   1.23  1.15  0.73
  virtual crystal weights 
   VCA    =   1.00  1.00  1.00
   NELECT =     379.0000    total number of electrons
   NUPDOWN=      -1.0000    fix difference up-down

 DOS related values:
   EMIN   =  10.00;   EMAX   =-10.00  energy-range for DOS
   EFERMI =   0.00
   ISMEAR =     0;   SIGMA  =   0.05  broadening in eV -4-tet -1-fermi 0-gaus

 Electronic relaxation 2 (details)
   IALGO  =     38    algorithm
   LDIAG  =      T    sub-space diagonalisation (order eigenvalues)
   LSUBROT=      F    optimize rotation matrix (better conditioning)
   TURBO    =      0    0=normal 1=particle mesh
   IRESTART =      0    0=no restart 2=restart with 2 vectors
   NREBOOT  =      0    no. of reboots
   NMIN     =      0    reboot dimension
   EREF     =   0.00    reference energy to select bands
   IMIX   =      4    mixing-type and parameters
     AMIX     =   0.40;   BMIX     =  1.00
     AMIX_MAG =   1.60;   BMIX_MAG =  1.00
     AMIN     =   0.10
     WC   =   100.;   INIMIX=   1;  MIXPRE=   1;  MAXMIX= -45

 Intra band minimization:
   WEIMIN = 0.0010     energy-eigenvalue tresh-hold
   EBREAK =  0.98E-08  absolut break condition
   DEPER  =   0.30     relativ break condition  

   TIME   =   0.40     timestep for ELM

  volume/ion in A,a.u.               =       9.22        62.22
  Fermi-wavevector in a.u.,A,eV,Ry     =   1.468056  2.774224 29.323129  2.155189
  Thomas-Fermi vector in A             =   2.583600
 
 Write flags
   LWAVE        =      F    write WAVECAR
   LDOWNSAMPLE  =      F    k-point downsampling of WAVECAR
   LCHARG       =      T    write CHGCAR
   LVTOT        =      F    write LOCPOT, total local potential
   LVHAR        =      F    write LOCPOT, Hartree potential only
   LELF         =      F    write electronic localiz. function (ELF)
   LORBIT       =      0    0 simple, 1 ext, 2 COOP (PROOUT), +10 PAW based schemes


 Dipole corrections
   LMONO  =      F    monopole corrections only (constant potential shift)
   LDIPOL =      F    correct potential (dipole corrections)
   IDIPOL =      0    1-x, 2-y, 3-z, 4-all directions 
   EPSILON=  1.0000000 bulk dielectric constant

 Exchange correlation treatment:
   GGA     =    PS    GGA type
   LEXCH   =    14    internal setting for exchange type
   VOSKOWN=      1    Vosko Wilk Nusair interpolation
   LHFCALC =     F    Hartree Fock is set to
   LHFONE  =     F    Hartree Fock one center treatment
   AEXX    =    0.0000 exact exchange contribution

 Linear response parameters
   LEPSILON=     F    determine dielectric tensor
   LRPA    =     F    only Hartree local field effects (RPA)
   LNABLA  =     F    use nabla operator in PAW spheres
   LVEL    =     F    velocity operator in full k-point grid
   LINTERFAST=   F  fast interpolation
   KINTER  =     0    interpolate to denser k-point grid
   CSHIFT  =0.1000    complex shift for real part using Kramers Kronig
   OMEGAMAX=  -1.0    maximum frequency
   DEG_THRESHOLD= 0.2000000E-02 threshold for treating states as degnerate
   RTIME   =   -0.100 relaxation time in fs
  (WPLASMAI=    0.000 imaginary part of plasma frequency in eV, 0.658/RTIME)
   DFIELD  = 0.0000000 0.0000000 0.0000000 field for delta impulse in time
 
 Orbital magnetization related:
   ORBITALMAG=     F  switch on orbital magnetization
   LCHIMAG   =     F  perturbation theory with respect to B field
   DQ        =  0.001000  dq finite difference perturbation B field
   LLRAUG    =     F  two centre corrections for induced B field



--------------------------------------------------------------------------------------------------------


 quasi-Newton-method for relaxation of ions
 charge density and potential will be updated during run
 spin polarized calculation
 Variant of blocked Davidson
 Davidson routine will perform the subspace rotation
 perform sub-space diagonalisation
    after iterative eigenvector-optimisation
 modified Broyden-mixing scheme, WC =      100.0
 initial mixing is a Kerker type mixing with AMIX =  0.4000 and BMIX =      1.0000
 Hartree-type preconditioning will be used
 using additional bands           66
 real space projection scheme for non local part
 use partial core corrections
 calculate Harris-corrections to forces 
   (improved forces if not selfconsistent)
 use gradient corrections 
 use of overlap-Matrix (Vanderbilt PP)
 Gauss-broadening in eV      SIGMA  =   0.05


--------------------------------------------------------------------------------------------------------


  energy-cutoff  :      500.00
  volume of cell :      525.58
      direct lattice vectors                 reciprocal lattice vectors
    -0.002869519  5.531877662  0.013450761     0.000095554  0.180771554 -0.000434782
    -3.578655715  0.024787995  9.519723249    -0.001087162 -0.000254989  0.104637048
     9.941424930 -0.005006560  0.103277569     0.100197879 -0.000039611  0.037666504

  length of vectors
     5.531894759 10.170178067  9.941962631     0.180772102  0.104643007  0.107043833


 
 k-points in units of 2pi/SCALE and weight: Automatic mesh                          
   0.00000000  0.00000000  0.00000000       1.000
 
 k-points in reciprocal lattice and weights: Automatic mesh                          
   0.00000000  0.00000000  0.00000000       1.000
 
 position of ions in fractional coordinates (direct lattice) 
   0.99670180  0.25206691  0.22811817
   0.25168317  0.24972659  0.49971889
   0.25108107  0.75009846  0.49988129
   0.50139075  0.25025828  0.23269434
   0.54153745  0.74968014  0.75001918
   0.99907218  0.24864668  0.76768253
   0.95753154  0.75138550  0.24938585
   0.25141370  0.75061436  0.00123956
   0.50301546  0.24746888  0.77159209
   0.00023359  0.00101478  0.99974418
   0.25135020  0.99983425  0.25017881
   0.24910509  0.99719620  0.74992087
   0.75051359  0.99536982  0.74736459
   0.75022626  0.00148954  0.25085947
   0.50145758  0.00461084  0.00270735
   0.99786081  0.00573797  0.50356563
   0.50006877  0.00156560  0.50147270
   0.99956139  0.49813051  0.49885492
   0.24928567  0.50031328  0.75030357
   0.25141954  0.50267790  0.25036054
   0.74982036  0.50452012  0.25269685
   0.75034325  0.49830049  0.74958620
   0.50181052  0.49409072  0.49653564
   0.99888348  0.49561525  0.99717336
   0.49990532  0.49912057  0.00053727
   0.00386767  0.39370176  0.64316469
   0.00492057  0.60671053  0.36029153
   0.00273864  0.10445119  0.36135210
   0.00492381  0.89918710  0.63344195
   0.25420606  0.39511494  0.88637007
   0.24332029  0.60369819  0.10464087
   0.75187145  0.59753179  0.11169922
   0.74743953  0.39670574  0.88284917
   0.24595392  0.10464501  0.11398301
   0.25682107  0.89685393  0.89492806
   0.74819587  0.90233739  0.88879263
   0.75307445  0.10363509  0.11630625
   0.49768774  0.39522413  0.63973381
   0.49525646  0.60099441  0.36645213
   0.49660741  0.10659380  0.35696254
   0.49545059  0.89275144  0.64046907
   0.00013496  0.40173899  0.14119365
   0.00015515  0.59864168  0.86356246
   0.99762974  0.09967966  0.85533820
   0.00324318  0.89556886  0.14325425
   0.24793192  0.38858948  0.38823671
   0.25419589  0.59927546  0.60559897
   0.74685409  0.59433171  0.61279749
   0.75439262  0.39764322  0.38198190
   0.25137887  0.11088658  0.61254793
   0.24571133  0.90045348  0.39424431
   0.75286195  0.90484892  0.38819908
   0.74514702  0.10256121  0.61803112
   0.50243321  0.40020818  0.14475861
   0.49756562  0.60458546  0.85703479
   0.50087448  0.09816633  0.85912807
   0.50090174  0.90191855  0.13630090
 
 position of ions in cartesian coordinates  (Angst):
   1.36289892  5.51873857  2.43657311
   4.07351013  1.39596886  2.43232311
   2.28446770  1.40504051  7.19573350
   1.41628634  2.77867069  2.41316576
   4.77185830  3.01054697  7.22149171
   6.73917052  5.52906508  2.45977025
  -0.21244696  5.31432411  7.19161751
  -2.67458881  1.40938985  7.14915070
   6.78367551  2.78489122  2.44228935
   9.93524950 -0.00368793  0.11291472
  -1.09164995  1.41396991  9.54736407
   3.88594534  1.39898285  9.57383251
   3.86562946  4.17268086  9.56292619
   2.48641725  4.14894087  0.05017928
   0.00897537  2.77410272  0.05091852
   4.98276231  5.51766503  0.12005291
   4.97831550  2.76384741  0.07342127
   3.17382288  5.53930144  4.80702998
   5.66792231  1.38766315  4.84368657
   0.68930792  1.40202907  4.81459290
   0.70451133  4.15915540  4.83907549
   5.66655592  4.15940609  4.83119089
   3.16665126  2.78571599  4.76163764
   8.13682144  5.53299411  4.83454140
  -1.78227394  2.77778458  4.75826929
   4.98503933  0.02793451  3.81440831
   1.41058897  0.04045531  5.81299256
   3.21855207  0.01592983  1.03170283
   3.07942041  0.04635560  8.62549891
   7.39707172  1.41159327  3.85634629
  -1.12084684  1.36045865  5.76111959
  -1.03006865  4.17351327  5.70998654
   7.35496069  4.14015754  3.87776100
   0.75795930  1.36261027  1.01127169
   5.68659173  1.43845344  8.63368164
   5.60456339  4.15684536  8.69185838
   0.78321458  4.16790234  1.00871863
   4.94406643  2.75974164  3.83518877
   1.49088311  2.75276093  5.76580832
   3.16582876  2.74802653  1.05828945
   3.17090343  2.75969502  8.57155691
  -0.03401985  0.00999799  3.83902796
   6.44270845  0.01137392  5.78809184
   8.14369860  5.51695423  1.05067891
  -1.78079055  0.03942302  8.54040627
   2.46828670  1.37921767  3.74269532
   3.87518673  1.41800344  5.77090045
   3.96302856  4.14316974  5.73120739
   2.37225146  4.18115205  3.83505072
   5.69205303  1.39027905  1.12225325
   0.69623215  1.37959165  8.61608953
   0.61894890  4.18522605  8.66413012
   5.77494051  4.12151023  1.05020588
   0.00545782  2.78859467  3.83157954
   6.35511604  2.76316780  5.85069137
   8.18821645  2.76890842  1.02998210
  -1.87406816  2.79260150  8.60682932
 


--------------------------------------------------------------------------------------------------------


 use serial FFT for orbitals x direction half grid
 k-point  1 :   0.0000 0.0000 0.0000  plane waves:    6658

 maximum and minimum number of plane-waves per node :      6658     6658

 maximum number of plane-waves:      6658
 maximum index in each direction: 
   IXMAX=   10   IYMAX=   18   IZMAX=   18
   IXMIN=    0   IYMIN=  -18   IZMIN=  -18

 The following grids will avoid any aliasing or wrap around errors in the Hartre
 e energy
  - symmetry arguments have not been applied
  - exchange correlation energies might require even more grid points
  - we recommend to set PREC=Normal or Accurate and rely on VASP defaults
 WARNING: aliasing errors must be expected set NGX to    42 to avoid them
 NGY is ok and might be reduce to    80
 NGZ is ok and might be reduce to    80

 serial   3D FFT for wavefunctions
 parallel 3D FFT for charge:
    minimum data exchange during FFTs selected (reduces bandwidth)


 total amount of memory used by VASP MPI-rank0    94861. kBytes
=======================================================================

   base      :      30000. kBytes
   nonlr-proj:      23029. kBytes
   fftplans  :       5418. kBytes
   grid      :      31961. kBytes
   one-center:        886. kBytes
   wavefun   :       3567. kBytes
 
     INWAV:  cpu time    0.0000: real time    0.0000
 Broyden mixing: mesh for mixing (old mesh)
   NGX = 21   NGY = 37   NGZ = 37
  (NGX  = 80   NGY  =160   NGZ  =160)
  gives a total of  28749 points

 initial charge density was supplied:
 charge density of overlapping atoms calculated
 number of electron     379.0000000 magnetization      40.0000000
 keeping initial charge density in first step


--------------------------------------------------------------------------------------------------------


 Maximum index for non-local projection operator         6372
 Maximum index for augmentation-charges         1108 (set IRDMAX)


--------------------------------------------------------------------------------------------------------


 First call to EWALD:  gamma=   0.220
 Maximum number of real-space cells 4x 2x 2
 Maximum number of reciprocal cells 2x 3x 3

    FEWALD:  cpu time    0.0041: real time    0.0041


--------------------------------------- Iteration      1(   1)  ---------------------------------------


    POTLOK:  cpu time    0.1450: real time    0.1466
    SETDIJ:  cpu time    0.0169: real time    0.0170
     EDDAV:  cpu time    1.3969: real time    1.4180
    --------------------------------------------
      LOOP:  cpu time    1.5592: real time    1.5821

 eigenvalue-minimisations  :  1040
 total energy-change (2. order) : 0.6619268E+04  (-0.1664665E+05)
 number of electron     379.0000000 magnetization      40.0000000
 augmentation part      379.0000000 magnetization      40.0000000

 Free energy of the ion-electron system (eV)
  ---------------------------------------------------
  alpha Z        PSCENC =      1172.63177404
  Ewald energy   TEWEN  =    -22240.82021376
  -Hartree energ DENC   =    -11294.66625340
  -exchange      EXHF   =         0.00000000
  -V(xc)+E(xc)   XCENC  =      1543.13236077
  PAW double counting   =     27181.59578623   -28434.31066105
  entropy T*S    EENTRO =        -0.02570778
  eigenvalues    EBANDS =      5868.90205150
  atomic energy  EATOM  =     32822.82841862
  Solvation  Ediel_sol  =         0.00000000
  ---------------------------------------------------
  free energy    TOTEN  =      6619.26755518 eV

  energy without entropy =     6619.29326296  energy(sigma->0) =     6619.28040907


--------------------------------------------------------------------------------------------------------




--------------------------------------- Iteration      1(   2)  ---------------------------------------


     EDDAV:  cpu time    1.4659: real time    1.4693
    --------------------------------------------
      LOOP:  cpu time    1.4657: real time    1.4692

 eigenvalue-minimisations  :  1072
 total energy-change (2. order) :-0.5386602E+04  (-0.4797552E+04)
 number of electron     379.0000000 magnetization      40.0000000
 augmentation part      379.0000000 magnetization      40.0000000

 Free energy of the ion-electron system (eV)
  ---------------------------------------------------
  alpha Z        PSCENC =      1172.63177404
  Ewald energy   TEWEN  =    -22240.82021376
  -Hartree energ DENC   =    -11294.66625340
  -exchange      EXHF   =         0.00000000
  -V(xc)+E(xc)   XCENC  =      1543.13236077
  PAW double counting   =     27181.59578623   -28434.31066105
  entropy T*S    EENTRO =        -0.03608500
  eigenvalues    EBANDS =       482.31068558
  atomic energy  EATOM  =     32822.82841862
  Solvation  Ediel_sol  =         0.00000000
  ---------------------------------------------------
  free energy    TOTEN  =      1232.66581204 eV

  energy without entropy =     1232.70189704  energy(sigma->0) =     1232.68385454


--------------------------------------------------------------------------------------------------------




--------------------------------------- Iteration      1(   3)  ---------------------------------------


     EDDAV:  cpu time    1.7720: real time    1.7762
    --------------------------------------------
      LOOP:  cpu time    1.7720: real time    1.7762

 eigenvalue-minimisations  :  1152
 total energy-change (2. order) :-0.1457577E+04  (-0.1211272E+04)
 number of electron     379.0000000 magnetization      40.0000000
 augmentation part      379.0000000 magnetization      40.0000000

 Free energy of the ion-electron system (eV)
  ---------------------------------------------------
  alpha Z        PSCENC =      1172.63177404
  Ewald energy   TEWEN  =    -22240.82021376
  -Hartree energ DENC   =    -11294.66625340
  -exchange      EXHF   =         0.00000000
  -V(xc)+E(xc)   XCENC  =      1543.13236077
  PAW double counting   =     27181.59578623   -28434.31066105
  entropy T*S    EENTRO =        -0.09772230
  eigenvalues    EBANDS =      -975.20500896
  atomic energy  EATOM  =     32822.82841862
  Solvation  Ediel_sol  =         0.00000000
  ---------------------------------------------------
  free energy    TOTEN  =      -224.91151981 eV

  energy without entropy =     -224.81379751  energy(sigma->0) =     -224.86265866


--------------------------------------------------------------------------------------------------------




--------------------------------------- Iteration      1(   4)  ---------------------------------------


     EDDAV:  cpu time    1.8598: real time    1.8642
    --------------------------------------------
      LOOP:  cpu time    1.8598: real time    1.8642

 eigenvalue-minimisations  :  1232
 total energy-change (2. order) :-0.2221587E+03  (-0.2154448E+03)
 number of electron     379.0000000 magnetization      40.0000000
 augmentation part      379.0000000 magnetization      40.0000000

 Free energy of the ion-electron system (eV)
  ---------------------------------------------------
  alpha Z        PSCENC =      1172.63177404
  Ewald energy   TEWEN  =    -22240.82021376
  -Hartree energ DENC   =    -11294.66625340
  -exchange      EXHF   =         0.00000000
  -V(xc)+E(xc)   XCENC  =      1543.13236077
  PAW double counting   =     27181.59578623   -28434.31066105
  entropy T*S    EENTRO =        -0.17280530
  eigenvalues    EBANDS =     -1197.28866937
  atomic energy  EATOM  =     32822.82841862
  Solvation  Ediel_sol  =         0.00000000
  ---------------------------------------------------
  free energy    TOTEN  =      -447.07026321 eV

  energy without entropy =     -446.89745791  energy(sigma->0) =     -446.98386056


--------------------------------------------------------------------------------------------------------




--------------------------------------- Iteration      1(   5)  ---------------------------------------


     EDDAV:  cpu time    2.3947: real time    2.4004
    CHARGE:  cpu time    0.1185: real time    0.1188
    MIXING:  cpu time    0.0050: real time    0.0050
    --------------------------------------------
      LOOP:  cpu time    2.5180: real time    2.5239

 eigenvalue-minimisations  :  1616
 total energy-change (2. order) :-0.1077052E+02  (-0.1065652E+02)
 number of electron     379.0000099 magnetization      39.0080416
 augmentation part      113.3759294 magnetization      30.0701398

 Broyden mixing:
  rms(total) = 0.11315E+02    rms(broyden)= 0.11314E+02
  rms(prec ) = 0.13749E+02
  weight for this iteration     100.00

 Free energy of the ion-electron system (eV)
  ---------------------------------------------------
  alpha Z        PSCENC =      1172.63177404
  Ewald energy   TEWEN  =    -22240.82021376
  -Hartree energ DENC   =    -11294.66625340
  -exchange      EXHF   =         0.00000000
  -V(xc)+E(xc)   XCENC  =      1543.13236077
  PAW double counting   =     27181.59578623   -28434.31066105
  entropy T*S    EENTRO =        -0.17656965
  eigenvalues    EBANDS =     -1208.05542346
  atomic energy  EATOM  =     32822.82841862
  Solvation  Ediel_sol  =         0.00000000
  ---------------------------------------------------
  free energy    TOTEN  =      -457.84078165 eV

  energy without entropy =     -457.66421200  energy(sigma->0) =     -457.75249682


--------------------------------------------------------------------------------------------------------




--------------------------------------- Iteration      1(   6)  ---------------------------------------


    POTLOK:  cpu time    0.1242: real time    0.1245
    SETDIJ:  cpu time    0.0240: real time    0.0241
     EDDAV:  cpu time    2.0985: real time    2.1034
    CHARGE:  cpu time    0.0866: real time    0.0868
    MIXING:  cpu time    0.0029: real time    0.0029
    --------------------------------------------
      LOOP:  cpu time    2.3362: real time    2.3418

 eigenvalue-minimisations  :  1520
 total energy-change (2. order) :-0.3242838E+02  (-0.9911894E+02)
 number of electron     379.0000130 magnetization      33.5537516
 augmentation part      144.2544356 magnetization      31.1543685

 Broyden mixing:
  rms(total) = 0.18359E+02    rms(broyden)= 0.18359E+02
  rms(prec ) = 0.20199E+02
  weight for this iteration     100.00

 eigenvalues of (default mixing * dielectric matrix)
  average eigenvalue GAMMA=   0.2360
  0.2360

 Free energy of the ion-electron system (eV)
  ---------------------------------------------------
  alpha Z        PSCENC =      1172.63177404
  Ewald energy   TEWEN  =    -22240.82021376
  -Hartree energ DENC   =    -10789.33771003
  -exchange      EXHF   =         0.00000000
  -V(xc)+E(xc)   XCENC  =      1549.24331903
  PAW double counting   =     30034.35556976   -31118.12433695
  entropy T*S    EENTRO =        -0.05244569
  eigenvalues    EBANDS =     -1920.99354050
  atomic energy  EATOM  =     32822.82841862
  Solvation  Ediel_sol  =         0.00000000
  ---------------------------------------------------
  free energy    TOTEN  =      -490.26916548 eV

  energy without entropy =     -490.21671979  energy(sigma->0) =     -490.24294264


--------------------------------------------------------------------------------------------------------




--------------------------------------- Iteration      1(   7)  ---------------------------------------


    POTLOK:  cpu time    0.1147: real time    0.1150
    SETDIJ:  cpu time    0.0176: real time    0.0177
     EDDAV:  cpu time    2.1100: real time    2.1150
    CHARGE:  cpu time    0.1093: real time    0.1096
    MIXING:  cpu time    0.0039: real time    0.0040
    --------------------------------------------
      LOOP:  cpu time    2.3557: real time    2.3612

 eigenvalue-minimisations  :  1408
 total energy-change (2. order) : 0.1313098E+03  (-0.2597525E+02)
 number of electron     379.0000122 magnetization      23.8502796
 augmentation part      130.6176850 magnetization      22.3914483

 Broyden mixing:
  rms(total) = 0.58169E+01    rms(broyden)= 0.58164E+01
  rms(prec ) = 0.67172E+01
  weight for this iteration     100.00

 eigenvalues of (default mixing * dielectric matrix)
  average eigenvalue GAMMA=   0.5894
  0.5894  0.5894

 Free energy of the ion-electron system (eV)
  ---------------------------------------------------
  alpha Z        PSCENC =      1172.63177404
  Ewald energy   TEWEN  =    -22240.82021376
  -Hartree energ DENC   =    -11005.67772613
  -exchange      EXHF   =         0.00000000
  -V(xc)+E(xc)   XCENC  =      1541.42900324
  PAW double counting   =     31326.76965922   -32540.27763017
  entropy T*S    EENTRO =        -0.01658960
  eigenvalues    EBANDS =     -1435.82608537
  atomic energy  EATOM  =     32822.82841862
  Solvation  Ediel_sol  =         0.00000000
  ---------------------------------------------------
  free energy    TOTEN  =      -358.95938991 eV

  energy without entropy =     -358.94280031  energy(sigma->0) =     -358.95109511


--------------------------------------------------------------------------------------------------------




--------------------------------------- Iteration      1(   8)  ---------------------------------------


    POTLOK:  cpu time    0.1531: real time    0.1535
    SETDIJ:  cpu time    0.0254: real time    0.0255
     EDDAV:  cpu time    1.8236: real time    1.8279
    CHARGE:  cpu time    0.0866: real time    0.0868
    MIXING:  cpu time    0.0030: real time    0.0030
    --------------------------------------------
      LOOP:  cpu time    2.0919: real time    2.0968

 eigenvalue-minimisations  :  1376
 total energy-change (2. order) :-0.1786360E+02  (-0.1219516E+02)
 number of electron     379.0000122 magnetization      21.3140981
 augmentation part      123.4509907 magnetization      18.6835419

 Broyden mixing:
  rms(total) = 0.10741E+02    rms(broyden)= 0.10740E+02
  rms(prec ) = 0.14366E+02
  weight for this iteration     100.00

 eigenvalues of (default mixing * dielectric matrix)
  average eigenvalue GAMMA=   0.4717
  0.6306  0.6306  0.1538

 Free energy of the ion-electron system (eV)
  ---------------------------------------------------
  alpha Z        PSCENC =      1172.63177404
  Ewald energy   TEWEN  =    -22240.82021376
  -Hartree energ DENC   =    -11003.75362783
  -exchange      EXHF   =         0.00000000
  -V(xc)+E(xc)   XCENC  =      1532.96781011
  PAW double counting   =     32671.51899113   -33938.03356761
  entropy T*S    EENTRO =        -0.04790369
  eigenvalues    EBANDS =     -1394.11466744
  atomic energy  EATOM  =     32822.82841862
  Solvation  Ediel_sol  =         0.00000000
  ---------------------------------------------------
  free energy    TOTEN  =      -376.82298644 eV

  energy without entropy =     -376.77508274  energy(sigma->0) =     -376.79903459


--------------------------------------------------------------------------------------------------------




--------------------------------------- Iteration      1(   9)  ---------------------------------------


    POTLOK:  cpu time    0.1145: real time    0.1148
    SETDIJ:  cpu time    0.0178: real time    0.0178
     EDDAV:  cpu time    1.6655: real time    1.6694
    CHARGE:  cpu time    0.0861: real time    0.0863
    MIXING:  cpu time    0.0033: real time    0.0033
    --------------------------------------------
      LOOP:  cpu time    1.8871: real time    1.8916

 eigenvalue-minimisations  :  1360
 total energy-change (2. order) : 0.1988473E+02  (-0.1558380E+02)
 number of electron     379.0000118 magnetization      16.1287341
 augmentation part      125.1673810 magnetization      14.7934194

 Broyden mixing:
  rms(total) = 0.42743E+01    rms(broyden)= 0.42733E+01
  rms(prec ) = 0.54982E+01
  weight for this iteration     100.00

 eigenvalues of (default mixing * dielectric matrix)
  average eigenvalue GAMMA=   0.4989
  0.7569  0.7569  0.3523  0.1293

 Free energy of the ion-electron system (eV)
  ---------------------------------------------------
  alpha Z        PSCENC =      1172.63177404
  Ewald energy   TEWEN  =    -22240.82021376
  -Hartree energ DENC   =    -10997.13644223
  -exchange      EXHF   =         0.00000000
  -V(xc)+E(xc)   XCENC  =      1531.75896308
  PAW double counting   =     33115.54340991   -34392.75655318
  entropy T*S    EENTRO =        -0.04386752
  eigenvalues    EBANDS =     -1368.94374559
  atomic energy  EATOM  =     32822.82841862
  Solvation  Ediel_sol  =         0.00000000
  ---------------------------------------------------
  free energy    TOTEN  =      -356.93825662 eV

  energy without entropy =     -356.89438910  energy(sigma->0) =     -356.91632286


--------------------------------------------------------------------------------------------------------




--------------------------------------- Iteration      1(  10)  ---------------------------------------


    POTLOK:  cpu time    0.1133: real time    0.1135
    SETDIJ:  cpu time    0.0175: real time    0.0175
     EDDAV:  cpu time    1.6074: real time    1.6112
    CHARGE:  cpu time    0.0873: real time    0.0875
    MIXING:  cpu time    0.0034: real time    0.0034
    --------------------------------------------
      LOOP:  cpu time    1.8288: real time    1.8332

 eigenvalue-minimisations  :  1264
 total energy-change (2. order) : 0.4800496E+01  (-0.5312452E+01)
 number of electron     379.0000119 magnetization      12.4853630
 augmentation part      125.9086592 magnetization      10.4414871

 Broyden mixing:
  rms(total) = 0.32011E+01    rms(broyden)= 0.32003E+01
  rms(prec ) = 0.41806E+01
  weight for this iteration     100.00

 eigenvalues of (default mixing * dielectric matrix)
  average eigenvalue GAMMA=   0.5255
  1.1840  0.6279  0.3876  0.3081  0.1200

 Free energy of the ion-electron system (eV)
  ---------------------------------------------------
  alpha Z        PSCENC =      1172.63177404
  Ewald energy   TEWEN  =    -22240.82021376
  -Hartree energ DENC   =    -10976.85651997
  -exchange      EXHF   =         0.00000000
  -V(xc)+E(xc)   XCENC  =      1530.50175205
  PAW double counting   =     33882.75525962   -35169.68617347
  entropy T*S    EENTRO =        -0.02192107
  eigenvalues    EBANDS =     -1373.47013671
  atomic energy  EATOM  =     32822.82841862
  Solvation  Ediel_sol  =         0.00000000
  ---------------------------------------------------
  free energy    TOTEN  =      -352.13776065 eV

  energy without entropy =     -352.11583959  energy(sigma->0) =     -352.12680012


--------------------------------------------------------------------------------------------------------




--------------------------------------- Iteration      1(  11)  ---------------------------------------


    POTLOK:  cpu time    0.1150: real time    0.1153
    SETDIJ:  cpu time    0.0177: real time    0.0177
     EDDAV:  cpu time    1.7576: real time    1.7618
    CHARGE:  cpu time    0.0869: real time    0.0871
    MIXING:  cpu time    0.0035: real time    0.0035
    --------------------------------------------
      LOOP:  cpu time    1.9807: real time    1.9853

 eigenvalue-minimisations  :  1440
 total energy-change (2. order) : 0.7985170E-01  (-0.3123504E+01)
 number of electron     379.0000124 magnetization       8.8082340
 augmentation part      125.8725802 magnetization       7.6238725

 Broyden mixing:
  rms(total) = 0.28401E+01    rms(broyden)= 0.28393E+01
  rms(prec ) = 0.36528E+01
  weight for this iteration     100.00

 eigenvalues of (default mixing * dielectric matrix)
  average eigenvalue GAMMA=   0.5380
  1.3738  0.6833  0.4488  0.4488  0.1423  0.1307

 Free energy of the ion-electron system (eV)
  ---------------------------------------------------
  alpha Z        PSCENC =      1172.63177404
  Ewald energy   TEWEN  =    -22240.82021376
  -Hartree energ DENC   =    -10977.83877506
  -exchange      EXHF   =         0.00000000
  -V(xc)+E(xc)   XCENC  =      1530.28681484
  PAW double counting   =     34464.02829193   -35758.81862392
  entropy T*S    EENTRO =        -0.02740423
  eigenvalues    EBANDS =     -1364.32819141
  atomic energy  EATOM  =     32822.82841862
  Solvation  Ediel_sol  =         0.00000000
  ---------------------------------------------------
  free energy    TOTEN  =      -352.05790895 eV

  energy without entropy =     -352.03050472  energy(sigma->0) =     -352.04420684


--------------------------------------------------------------------------------------------------------




--------------------------------------- Iteration      1(  12)  ---------------------------------------


    POTLOK:  cpu time    0.1132: real time    0.1134
    SETDIJ:  cpu time    0.0174: real time    0.0174
     EDDAV:  cpu time    1.9405: real time    1.9451
    CHARGE:  cpu time    0.0919: real time    0.0921
    MIXING:  cpu time    0.0038: real time    0.0038
    --------------------------------------------
      LOOP:  cpu time    2.1666: real time    2.1718

 eigenvalue-minimisations  :  1504
 total energy-change (2. order) : 0.1811973E+01  (-0.1022107E+01)
 number of electron     379.0000123 magnetization       7.2775526
 augmentation part      125.6377570 magnetization       5.7698059

 Broyden mixing:
  rms(total) = 0.17800E+01    rms(broyden)= 0.17793E+01
  rms(prec ) = 0.21642E+01
  weight for this iteration     100.00

 eigenvalues of (default mixing * dielectric matrix)
  average eigenvalue GAMMA=   0.5285
  1.5103  0.6080  0.4838  0.4838  0.3397  0.1512  0.1231

 Free energy of the ion-electron system (eV)
  ---------------------------------------------------
  alpha Z        PSCENC =      1172.63177404
  Ewald energy   TEWEN  =    -22240.82021376
  -Hartree energ DENC   =    -10992.36834198
  -exchange      EXHF   =         0.00000000
  -V(xc)+E(xc)   XCENC  =      1530.62990666
  PAW double counting   =     35008.48041132   -36313.09768101
  entropy T*S    EENTRO =        -0.03257488
  eigenvalues    EBANDS =     -1338.49763530
  atomic energy  EATOM  =     32822.82841862
  Solvation  Ediel_sol  =         0.00000000
  ---------------------------------------------------
  free energy    TOTEN  =      -350.24593629 eV

  energy without entropy =     -350.21336141  energy(sigma->0) =     -350.22964885


--------------------------------------------------------------------------------------------------------




--------------------------------------- Iteration      1(  13)  ---------------------------------------


    POTLOK:  cpu time    0.1155: real time    0.1158
    SETDIJ:  cpu time    0.0178: real time    0.0179
     EDDAV:  cpu time    1.8869: real time    1.8913
    CHARGE:  cpu time    0.0890: real time    0.0892
    MIXING:  cpu time    0.0038: real time    0.0038
    --------------------------------------------
      LOOP:  cpu time    2.1130: real time    2.1180

 eigenvalue-minimisations  :  1312
 total energy-change (2. order) :-0.4204258E+00  (-0.6201617E+00)
 number of electron     379.0000123 magnetization       5.6940600
 augmentation part      125.5318934 magnetization       3.9502453

 Broyden mixing:
  rms(total) = 0.19083E+01    rms(broyden)= 0.19077E+01
  rms(prec ) = 0.23723E+01
  weight for this iteration     100.00

 eigenvalues of (default mixing * dielectric matrix)
  average eigenvalue GAMMA=   0.5340
  1.6849  0.6502  0.6502  0.4208  0.4208  0.1878  0.1286  0.1286

 Free energy of the ion-electron system (eV)
  ---------------------------------------------------
  alpha Z        PSCENC =      1172.63177404
  Ewald energy   TEWEN  =    -22240.82021376
  -Hartree energ DENC   =    -10996.22141497
  -exchange      EXHF   =         0.00000000
  -V(xc)+E(xc)   XCENC  =      1530.74275317
  PAW double counting   =     35244.05543636   -36551.44283469
  entropy T*S    EENTRO =        -0.04297485
  eigenvalues    EBANDS =     -1332.39730602
  atomic energy  EATOM  =     32822.82841862
  Solvation  Ediel_sol  =         0.00000000
  ---------------------------------------------------
  free energy    TOTEN  =      -350.66636210 eV

  energy without entropy =     -350.62338725  energy(sigma->0) =     -350.64487468


--------------------------------------------------------------------------------------------------------




--------------------------------------- Iteration      1(  14)  ---------------------------------------


    POTLOK:  cpu time    0.1451: real time    0.1455
    SETDIJ:  cpu time    0.0186: real time    0.0186
     EDDAV:  cpu time    1.9576: real time    1.9622
    CHARGE:  cpu time    0.0888: real time    0.0890
    MIXING:  cpu time    0.0053: real time    0.0053
    --------------------------------------------
      LOOP:  cpu time    2.2154: real time    2.2207

 eigenvalue-minimisations  :  1312
 total energy-change (2. order) : 0.3999799E+00  (-0.3990092E+00)
 number of electron     379.0000123 magnetization       4.8536252
 augmentation part      125.4309635 magnetization       3.4929082

 Broyden mixing:
  rms(total) = 0.12738E+01    rms(broyden)= 0.12733E+01
  rms(prec ) = 0.15812E+01
  weight for this iteration     100.00

 eigenvalues of (default mixing * dielectric matrix)
  average eigenvalue GAMMA=   0.5562
  1.8156  0.7610  0.7610  0.4577  0.4577  0.3471  0.1466  0.1225  0.1369

 Free energy of the ion-electron system (eV)
  ---------------------------------------------------
  alpha Z        PSCENC =      1172.63177404
  Ewald energy   TEWEN  =    -22240.82021376
  -Hartree energ DENC   =    -11001.51159471
  -exchange      EXHF   =         0.00000000
  -V(xc)+E(xc)   XCENC  =      1530.90598594
  PAW double counting   =     35530.42336920   -36841.84307745
  entropy T*S    EENTRO =        -0.03716212
  eigenvalues    EBANDS =     -1322.84388198
  atomic energy  EATOM  =     32822.82841862
  Solvation  Ediel_sol  =         0.00000000
  ---------------------------------------------------
  free energy    TOTEN  =      -350.26638222 eV

  energy without entropy =     -350.22922010  energy(sigma->0) =     -350.24780116


--------------------------------------------------------------------------------------------------------




--------------------------------------- Iteration      1(  15)  ---------------------------------------


    POTLOK:  cpu time    0.1629: real time    0.1633
    SETDIJ:  cpu time    0.0303: real time    0.0304
     EDDAV:  cpu time    1.9211: real time    1.9257
    CHARGE:  cpu time    0.1108: real time    0.1110
    MIXING:  cpu time    0.0051: real time    0.0051
    --------------------------------------------
      LOOP:  cpu time    2.2302: real time    2.2355

 eigenvalue-minimisations  :  1312
 total energy-change (2. order) :-0.1574144E+00  (-0.5694063E+00)
 number of electron     379.0000124 magnetization       4.2007632
 augmentation part      125.4296632 magnetization       2.7072308

 Broyden mixing:
  rms(total) = 0.14367E+01    rms(broyden)= 0.14363E+01
  rms(prec ) = 0.18383E+01
  weight for this iteration     100.00

 eigenvalues of (default mixing * dielectric matrix)
  average eigenvalue GAMMA=   0.5629
  1.9274  0.8885  0.8885  0.4790  0.4790  0.3976  0.1852  0.1457  0.1240  0.1145

 Free energy of the ion-electron system (eV)
  ---------------------------------------------------
  alpha Z        PSCENC =      1172.63177404
  Ewald energy   TEWEN  =    -22240.82021376
  -Hartree energ DENC   =    -11003.52389676
  -exchange      EXHF   =         0.00000000
  -V(xc)+E(xc)   XCENC  =      1531.01289700
  PAW double counting   =     35691.76395073   -37004.33869619
  entropy T*S    EENTRO =        -0.03178117
  eigenvalues    EBANDS =     -1319.94624912
  atomic energy  EATOM  =     32822.82841862
  Solvation  Ediel_sol  =         0.00000000
  ---------------------------------------------------
  free energy    TOTEN  =      -350.42379659 eV

  energy without entropy =     -350.39201543  energy(sigma->0) =     -350.40790601


--------------------------------------------------------------------------------------------------------




--------------------------------------- Iteration      1(  16)  ---------------------------------------


    POTLOK:  cpu time    0.1525: real time    0.1529
    SETDIJ:  cpu time    0.0175: real time    0.0176
     EDDAV:  cpu time    1.9501: real time    1.9547
    CHARGE:  cpu time    0.1051: real time    0.1054
    MIXING:  cpu time    0.0053: real time    0.0054
    --------------------------------------------
      LOOP:  cpu time    2.2307: real time    2.2359

 eigenvalue-minimisations  :  1328
 total energy-change (2. order) : 0.2886258E+00  (-0.2900716E+00)
 number of electron     379.0000124 magnetization       4.1742309
 augmentation part      125.4822683 magnetization       2.6275312

 Broyden mixing:
  rms(total) = 0.89065E+00    rms(broyden)= 0.89022E+00
  rms(prec ) = 0.11658E+01
  weight for this iteration     100.00

 eigenvalues of (default mixing * dielectric matrix)
  average eigenvalue GAMMA=   0.5550
  1.9007  0.9612  0.9612  0.5097  0.5097  0.3860  0.3401  0.1555  0.1428  0.1258
  0.1121

 Free energy of the ion-electron system (eV)
  ---------------------------------------------------
  alpha Z        PSCENC =      1172.63177404
  Ewald energy   TEWEN  =    -22240.82021376
  -Hartree energ DENC   =    -11005.86060820
  -exchange      EXHF   =         0.00000000
  -V(xc)+E(xc)   XCENC  =      1531.15269831
  PAW double counting   =     35846.80669214   -37160.08930207
  entropy T*S    EENTRO =        -0.03245459
  eigenvalues    EBANDS =     -1316.75217533
  atomic energy  EATOM  =     32822.82841862
  Solvation  Ediel_sol  =         0.00000000
  ---------------------------------------------------
  free energy    TOTEN  =      -350.13517084 eV

  energy without entropy =     -350.10271625  energy(sigma->0) =     -350.11894354


--------------------------------------------------------------------------------------------------------




--------------------------------------- Iteration      1(  17)  ---------------------------------------


    POTLOK:  cpu time    0.1245: real time    0.1247
    SETDIJ:  cpu time    0.0228: real time    0.0228
     EDDAV:  cpu time    2.0187: real time    2.0234
    CHARGE:  cpu time    0.1083: real time    0.1085
    MIXING:  cpu time    0.0056: real time    0.0056
    --------------------------------------------
      LOOP:  cpu time    2.2797: real time    2.2851

 eigenvalue-minimisations  :  1360
 total energy-change (2. order) : 0.4229104E-01  (-0.1702215E+00)
 number of electron     379.0000123 magnetization       4.2698674
 augmentation part      125.4822978 magnetization       2.6521902

 Broyden mixing:
  rms(total) = 0.85942E+00    rms(broyden)= 0.85910E+00
  rms(prec ) = 0.11044E+01
  weight for this iteration     100.00

 eigenvalues of (default mixing * dielectric matrix)
  average eigenvalue GAMMA=   0.5386
  1.8845  1.0303  1.0303  0.5394  0.5394  0.3820  0.3820  0.1485  0.1485  0.1441
  0.1240  0.1107

 Free energy of the ion-electron system (eV)
  ---------------------------------------------------
  alpha Z        PSCENC =      1172.63177404
  Ewald energy   TEWEN  =    -22240.82021376
  -Hartree energ DENC   =    -11006.98008112
  -exchange      EXHF   =         0.00000000
  -V(xc)+E(xc)   XCENC  =      1531.23774405
  PAW double counting   =     35887.58383859   -37200.48803470
  entropy T*S    EENTRO =        -0.01470709
  eigenvalues    EBANDS =     -1316.07161843
  atomic energy  EATOM  =     32822.82841862
  Solvation  Ediel_sol  =         0.00000000
  ---------------------------------------------------
  free energy    TOTEN  =      -350.09287980 eV

  energy without entropy =     -350.07817271  energy(sigma->0) =     -350.08552625


--------------------------------------------------------------------------------------------------------




--------------------------------------- Iteration      1(  18)  ---------------------------------------


    POTLOK:  cpu time    0.1464: real time    0.1467
    SETDIJ:  cpu time    0.0257: real time    0.0258
     EDDAV:  cpu time    2.0963: real time    2.1012
    CHARGE:  cpu time    0.1548: real time    0.1552
    MIXING:  cpu time    0.0063: real time    0.0063
    --------------------------------------------
      LOOP:  cpu time    2.4294: real time    2.4352

 eigenvalue-minimisations  :  1344
 total energy-change (2. order) : 0.2819906E-01  (-0.1660940E+00)
 number of electron     379.0000124 magnetization       4.4078202
 augmentation part      125.4825733 magnetization       2.7878410

 Broyden mixing:
  rms(total) = 0.73333E+00    rms(broyden)= 0.73298E+00
  rms(prec ) = 0.98719E+00
  weight for this iteration     100.00

 eigenvalues of (default mixing * dielectric matrix)
  average eigenvalue GAMMA=   0.5206
  1.8588  1.0807  1.0807  0.5504  0.5504  0.3359  0.3276  0.3276  0.1754  0.1420
  0.1241  0.1160  0.0982

 Free energy of the ion-electron system (eV)
  ---------------------------------------------------
  alpha Z        PSCENC =      1172.63177404
  Ewald energy   TEWEN  =    -22240.82021376
  -Hartree energ DENC   =    -11007.92714214
  -exchange      EXHF   =         0.00000000
  -V(xc)+E(xc)   XCENC  =      1531.31230715
  PAW double counting   =     35919.01263583   -37231.74783347
  entropy T*S    EENTRO =        -0.00388182
  eigenvalues    EBANDS =     -1315.35074518
  atomic energy  EATOM  =     32822.82841862
  Solvation  Ediel_sol  =         0.00000000
  ---------------------------------------------------
  free energy    TOTEN  =      -350.06468074 eV

  energy without entropy =     -350.06079891  energy(sigma->0) =     -350.06273983


--------------------------------------------------------------------------------------------------------




--------------------------------------- Iteration      1(  19)  ---------------------------------------


    POTLOK:  cpu time    0.1432: real time    0.1436
    SETDIJ:  cpu time    0.0176: real time    0.0177
     EDDAV:  cpu time    1.6738: real time    1.6777
    CHARGE:  cpu time    0.0865: real time    0.0867
    MIXING:  cpu time    0.0048: real time    0.0048
    --------------------------------------------
      LOOP:  cpu time    1.9260: real time    1.9305

 eigenvalue-minimisations  :  1376
 total energy-change (2. order) : 0.8362979E-01  (-0.5985276E-01)
 number of electron     379.0000123 magnetization       4.5448257
 augmentation part      125.4980948 magnetization       2.9676734

 Broyden mixing:
  rms(total) = 0.42866E+00    rms(broyden)= 0.42840E+00
  rms(prec ) = 0.51813E+00
  weight for this iteration     100.00

 eigenvalues of (default mixing * dielectric matrix)
  average eigenvalue GAMMA=   0.5487
  1.8912  1.1932  1.1932  0.6135  0.6135  0.4655  0.4655  0.4285  0.1896  0.1562
  0.1438  0.1251  0.1126  0.0902

 Free energy of the ion-electron system (eV)
  ---------------------------------------------------
  alpha Z        PSCENC =      1172.63177404
  Ewald energy   TEWEN  =    -22240.82021376
  -Hartree energ DENC   =    -11008.28163549
  -exchange      EXHF   =         0.00000000
  -V(xc)+E(xc)   XCENC  =      1531.36690057
  PAW double counting   =     35939.23883126   -37251.65488717
  entropy T*S    EENTRO =        -0.00304869
  eigenvalues    EBANDS =     -1315.28719033
  atomic energy  EATOM  =     32822.82841862
  Solvation  Ediel_sol  =         0.00000000
  ---------------------------------------------------
  free energy    TOTEN  =      -349.98105095 eV

  energy without entropy =     -349.97800226  energy(sigma->0) =     -349.97952660


--------------------------------------------------------------------------------------------------------




--------------------------------------- Iteration      1(  20)  ---------------------------------------


    POTLOK:  cpu time    0.1130: real time    0.1133
    SETDIJ:  cpu time    0.0177: real time    0.0177
     EDDAV:  cpu time    1.7183: real time    1.7224
    CHARGE:  cpu time    0.0882: real time    0.0884
    MIXING:  cpu time    0.0053: real time    0.0053
    --------------------------------------------
      LOOP:  cpu time    1.9424: real time    1.9471

 eigenvalue-minimisations  :  1360
 total energy-change (2. order) :-0.1164972E-01  (-0.2885048E-01)
 number of electron     379.0000123 magnetization       4.6172599
 augmentation part      125.5313868 magnetization       3.0596805

 Broyden mixing:
  rms(total) = 0.41401E+00    rms(broyden)= 0.41389E+00
  rms(prec ) = 0.54383E+00
  weight for this iteration     100.00

 eigenvalues of (default mixing * dielectric matrix)
  average eigenvalue GAMMA=   0.5570
  1.9810  1.2680  1.2680  0.6890  0.6890  0.4839  0.4839  0.4466  0.2552  0.1607
  0.1607  0.1440  0.1250  0.1127  0.0878

 Free energy of the ion-electron system (eV)
  ---------------------------------------------------
  alpha Z        PSCENC =      1172.63177404
  Ewald energy   TEWEN  =    -22240.82021376
  -Hartree energ DENC   =    -11007.72669077
  -exchange      EXHF   =         0.00000000
  -V(xc)+E(xc)   XCENC  =      1531.37555579
  PAW double counting   =     35959.16558596   -37271.23553873
  entropy T*S    EENTRO =        -0.00243913
  eigenvalues    EBANDS =     -1316.20915268
  atomic energy  EATOM  =     32822.82841862
  Solvation  Ediel_sol  =         0.00000000
  ---------------------------------------------------
  free energy    TOTEN  =      -349.99270067 eV

  energy without entropy =     -349.99026153  energy(sigma->0) =     -349.99148110


--------------------------------------------------------------------------------------------------------




--------------------------------------- Iteration      1(  21)  ---------------------------------------


    POTLOK:  cpu time    0.1147: real time    0.1150
    SETDIJ:  cpu time    0.0179: real time    0.0179
     EDDAV:  cpu time    1.6702: real time    1.6742
    CHARGE:  cpu time    0.0847: real time    0.0849
    MIXING:  cpu time    0.0052: real time    0.0052
    --------------------------------------------
      LOOP:  cpu time    1.8927: real time    1.8972

 eigenvalue-minimisations  :  1344
 total energy-change (2. order) : 0.1012320E-01  (-0.1634221E-01)
 number of electron     379.0000123 magnetization       4.6505927
 augmentation part      125.5750799 magnetization       3.1030788

 Broyden mixing:
  rms(total) = 0.34454E+00    rms(broyden)= 0.34440E+00
  rms(prec ) = 0.42215E+00
  weight for this iteration     100.00

 eigenvalues of (default mixing * dielectric matrix)
  average eigenvalue GAMMA=   0.5699
  2.0563  1.3470  1.3470  0.7431  0.7431  0.5329  0.5329  0.4309  0.4309  0.1890
  0.1605  0.1434  0.1373  0.1251  0.1116  0.0874

 Free energy of the ion-electron system (eV)
  ---------------------------------------------------
  alpha Z        PSCENC =      1172.63177404
  Ewald energy   TEWEN  =    -22240.82021376
  -Hartree energ DENC   =    -11007.27309595
  -exchange      EXHF   =         0.00000000
  -V(xc)+E(xc)   XCENC  =      1531.39673745
  PAW double counting   =     35992.81465650   -37304.63311081
  entropy T*S    EENTRO =        -0.00215509
  eigenvalues    EBANDS =     -1316.92558848
  atomic energy  EATOM  =     32822.82841862
  Solvation  Ediel_sol  =         0.00000000
  ---------------------------------------------------
  free energy    TOTEN  =      -349.98257746 eV

  energy without entropy =     -349.98042238  energy(sigma->0) =     -349.98149992


--------------------------------------------------------------------------------------------------------




--------------------------------------- Iteration      1(  22)  ---------------------------------------


    POTLOK:  cpu time    0.1099: real time    0.1101
    SETDIJ:  cpu time    0.0166: real time    0.0166
     EDDAV:  cpu time    1.6998: real time    1.7039
    CHARGE:  cpu time    0.1113: real time    0.1116
    MIXING:  cpu time    0.0067: real time    0.0067
    --------------------------------------------
      LOOP:  cpu time    1.9443: real time    1.9489

 eigenvalue-minimisations  :  1344
 total energy-change (2. order) :-0.5553120E-02  (-0.1690442E-01)
 number of electron     379.0000123 magnetization       4.7683618
 augmentation part      125.5776824 magnetization       3.2347972

 Broyden mixing:
  rms(total) = 0.30406E+00    rms(broyden)= 0.30397E+00
  rms(prec ) = 0.39105E+00
  weight for this iteration     100.00

 eigenvalues of (default mixing * dielectric matrix)
  average eigenvalue GAMMA=   0.5620
  1.9742  1.4199  1.4199  0.8124  0.8124  0.5471  0.5471  0.4507  0.4507  0.1956
  0.1748  0.1468  0.1394  0.1394  0.1249  0.1121  0.0874

 Free energy of the ion-electron system (eV)
  ---------------------------------------------------
  alpha Z        PSCENC =      1172.63177404
  Ewald energy   TEWEN  =    -22240.82021376
  -Hartree energ DENC   =    -11007.52539663
  -exchange      EXHF   =         0.00000000
  -V(xc)+E(xc)   XCENC  =      1531.43070605
  PAW double counting   =     36018.71240690   -37330.57897155
  entropy T*S    EENTRO =        -0.00134970
  eigenvalues    EBANDS =     -1316.66550456
  atomic energy  EATOM  =     32822.82841862
  Solvation  Ediel_sol  =         0.00000000
  ---------------------------------------------------
  free energy    TOTEN  =      -349.98813058 eV

  energy without entropy =     -349.98678088  energy(sigma->0) =     -349.98745573


--------------------------------------------------------------------------------------------------------




--------------------------------------- Iteration      1(  23)  ---------------------------------------


    POTLOK:  cpu time    0.1315: real time    0.1319
    SETDIJ:  cpu time    0.0178: real time    0.0179
     EDDAV:  cpu time    1.8681: real time    1.8726
    CHARGE:  cpu time    0.1048: real time    0.1050
    MIXING:  cpu time    0.0061: real time    0.0061
    --------------------------------------------
      LOOP:  cpu time    2.1283: real time    2.1334

 eigenvalue-minimisations  :  1392
 total energy-change (2. order) : 0.1117852E-01  (-0.4471351E-02)
 number of electron     379.0000123 magnetization       4.7920212
 augmentation part      125.5944849 magnetization       3.2559979

 Broyden mixing:
  rms(total) = 0.21731E+00    rms(broyden)= 0.21723E+00
  rms(prec ) = 0.25023E+00
  weight for this iteration     100.00

 eigenvalues of (default mixing * dielectric matrix)
  average eigenvalue GAMMA=   0.5471
  1.9532  1.4008  1.4008  0.8684  0.8684  0.5557  0.5557  0.4279  0.4279  0.2393
  0.2393  0.1612  0.1612  0.1440  0.1252  0.1209  0.1109  0.0874

 Free energy of the ion-electron system (eV)
  ---------------------------------------------------
  alpha Z        PSCENC =      1172.63177404
  Ewald energy   TEWEN  =    -22240.82021376
  -Hartree energ DENC   =    -11007.32663494
  -exchange      EXHF   =         0.00000000
  -V(xc)+E(xc)   XCENC  =      1531.44657770
  PAW double counting   =     36026.49163078   -37338.11531019
  entropy T*S    EENTRO =        -0.00062825
  eigenvalues    EBANDS =     -1317.11256606
  atomic energy  EATOM  =     32822.82841862
  Solvation  Ediel_sol  =         0.00000000
  ---------------------------------------------------
  free energy    TOTEN  =      -349.97695206 eV

  energy without entropy =     -349.97632381  energy(sigma->0) =     -349.97663794


--------------------------------------------------------------------------------------------------------




--------------------------------------- Iteration      1(  24)  ---------------------------------------


    POTLOK:  cpu time    0.1366: real time    0.1369
    SETDIJ:  cpu time    0.0249: real time    0.0250
     EDDAV:  cpu time    2.1811: real time    2.1863
    CHARGE:  cpu time    0.1070: real time    0.1073
    MIXING:  cpu time    0.0063: real time    0.0063
    --------------------------------------------
      LOOP:  cpu time    2.4559: real time    2.4617

 eigenvalue-minimisations  :  1536
 total energy-change (2. order) :-0.8245618E-02  (-0.4158055E-02)
 number of electron     379.0000123 magnetization       4.7882004
 augmentation part      125.5835448 magnetization       3.2546798

 Broyden mixing:
  rms(total) = 0.21699E+00    rms(broyden)= 0.21696E+00
  rms(prec ) = 0.24379E+00
  weight for this iteration     100.00

 eigenvalues of (default mixing * dielectric matrix)
  average eigenvalue GAMMA=   0.5534
  2.0110  1.3719  1.3719  0.8992  0.8992  0.4696  0.5654  0.5654  0.4256  0.4256
  0.3852  0.2115  0.1598  0.1598  0.1429  0.1244  0.1275  0.1115  0.0874

 Free energy of the ion-electron system (eV)
  ---------------------------------------------------
  alpha Z        PSCENC =      1172.63177404
  Ewald energy   TEWEN  =    -22240.82021376
  -Hartree energ DENC   =    -11007.57577352
  -exchange      EXHF   =         0.00000000
  -V(xc)+E(xc)   XCENC  =      1531.47002825
  PAW double counting   =     36032.08795163   -37343.75434505
  entropy T*S    EENTRO =        -0.00067387
  eigenvalues    EBANDS =     -1316.85236402
  atomic energy  EATOM  =     32822.82841862
  Solvation  Ediel_sol  =         0.00000000
  ---------------------------------------------------
  free energy    TOTEN  =      -349.98519768 eV

  energy without entropy =     -349.98452381  energy(sigma->0) =     -349.98486074


--------------------------------------------------------------------------------------------------------




--------------------------------------- Iteration      1(  25)  ---------------------------------------


    POTLOK:  cpu time    0.1147: real time    0.1150
    SETDIJ:  cpu time    0.0181: real time    0.0182
     EDDAV:  cpu time    2.0319: real time    2.0367
    CHARGE:  cpu time    0.1180: real time    0.1183
    MIXING:  cpu time    0.0067: real time    0.0067
    --------------------------------------------
      LOOP:  cpu time    2.2895: real time    2.2949

 eigenvalue-minimisations  :  1424
 total energy-change (2. order) :-0.3686396E-03  (-0.3295265E-03)
 number of electron     379.0000123 magnetization       4.8950976
 augmentation part      125.5832083 magnetization       3.3623775

 Broyden mixing:
  rms(total) = 0.23806E+00    rms(broyden)= 0.23805E+00
  rms(prec ) = 0.26521E+00
  weight for this iteration     100.00

 eigenvalues of (default mixing * dielectric matrix)
  average eigenvalue GAMMA=   0.5891
  2.2597  1.5218  1.5218  1.0846  1.0846  0.6509  0.6509  0.4693  0.4693  0.4081
  0.2682  0.2682  0.2094  0.1601  0.1601  0.1426  0.1246  0.1290  0.1116  0.0874

 Free energy of the ion-electron system (eV)
  ---------------------------------------------------
  alpha Z        PSCENC =      1172.63177404
  Ewald energy   TEWEN  =    -22240.82021376
  -Hartree energ DENC   =    -11007.58482309
  -exchange      EXHF   =         0.00000000
  -V(xc)+E(xc)   XCENC  =      1531.46859787
  PAW double counting   =     36032.18538180   -37343.85984854
  entropy T*S    EENTRO =        -0.00063382
  eigenvalues    EBANDS =     -1316.83421943
  atomic energy  EATOM  =     32822.82841862
  Solvation  Ediel_sol  =         0.00000000
  ---------------------------------------------------
  free energy    TOTEN  =      -349.98556632 eV

  energy without entropy =     -349.98493250  energy(sigma->0) =     -349.98524941


--------------------------------------------------------------------------------------------------------




--------------------------------------- Iteration      1(  26)  ---------------------------------------


    POTLOK:  cpu time    0.1164: real time    0.1167
    SETDIJ:  cpu time    0.0286: real time    0.0287
     EDDAV:  cpu time    2.1319: real time    2.1369
    CHARGE:  cpu time    0.1044: real time    0.1047
    MIXING:  cpu time    0.0067: real time    0.0068
    --------------------------------------------
      LOOP:  cpu time    2.3881: real time    2.3937

 eigenvalue-minimisations  :  1472
 total energy-change (2. order) :-0.8942849E-02  (-0.2352866E-02)
 number of electron     379.0000123 magnetization       4.9174030
 augmentation part      125.6091592 magnetization       3.3836480

 Broyden mixing:
  rms(total) = 0.18151E+00    rms(broyden)= 0.18149E+00
  rms(prec ) = 0.19737E+00
  weight for this iteration     100.00

 eigenvalues of (default mixing * dielectric matrix)
  average eigenvalue GAMMA=   0.6060
  2.4643  1.6143  1.6143  1.0664  1.0664  0.7191  0.7191  0.5065  0.5065  0.4539
  0.4539  0.2069  0.2069  0.2115  0.1606  0.1606  0.1424  0.1247  0.1296  0.1116
  0.0874

 Free energy of the ion-electron system (eV)
  ---------------------------------------------------
  alpha Z        PSCENC =      1172.63177404
  Ewald energy   TEWEN  =    -22240.82021376
  -Hartree energ DENC   =    -11007.67786232
  -exchange      EXHF   =         0.00000000
  -V(xc)+E(xc)   XCENC  =      1531.52094146
  PAW double counting   =     36050.40285973   -37361.83928078
  entropy T*S    EENTRO =        -0.00040339
  eigenvalues    EBANDS =     -1317.04074277
  atomic energy  EATOM  =     32822.82841862
  Solvation  Ediel_sol  =         0.00000000
  ---------------------------------------------------
  free energy    TOTEN  =      -349.99450917 eV

  energy without entropy =     -349.99410578  energy(sigma->0) =     -349.99430747


--------------------------------------------------------------------------------------------------------




--------------------------------------- Iteration      1(  27)  ---------------------------------------


    POTLOK:  cpu time    0.1392: real time    0.1396
    SETDIJ:  cpu time    0.0216: real time    0.0217
     EDDAV:  cpu time    1.9605: real time    1.9651
    CHARGE:  cpu time    0.0875: real time    0.0877
    MIXING:  cpu time    0.0065: real time    0.0065
    --------------------------------------------
      LOOP:  cpu time    2.2153: real time    2.2205

 eigenvalue-minimisations  :  1456
 total energy-change (2. order) :-0.6512639E-02  (-0.1396990E-02)
 number of electron     379.0000123 magnetization       4.9284813
 augmentation part      125.6099988 magnetization       3.3965044

 Broyden mixing:
  rms(total) = 0.17507E+00    rms(broyden)= 0.17505E+00
  rms(prec ) = 0.19006E+00
  weight for this iteration     100.00

 eigenvalues of (default mixing * dielectric matrix)
  average eigenvalue GAMMA=   0.5974
  2.5289  1.6512  1.6512  1.0497  1.0497  0.7413  0.7413  0.5304  0.5304  0.4436
  0.4436  0.2048  0.2048  0.2491  0.2079  0.1599  0.1599  0.1424  0.1116  0.1247
  0.1294  0.0874

 Free energy of the ion-electron system (eV)
  ---------------------------------------------------
  alpha Z        PSCENC =      1172.63177404
[...]
   0.133E+01 -.144E+01 -.300E+01   -.123E+01 0.222E+01 0.293E+01   -.995E-01 -.741E+00 0.794E-01   0.149E-02 0.274E-02 -.118E-01
   -.106E+02 0.337E+01 0.453E+00   0.112E+02 -.341E+01 -.580E+00   -.607E+00 0.408E-01 0.119E+00   -.632E-02 -.215E-02 0.637E-02
   0.540E+00 0.145E+01 0.201E+01   -.561E+00 -.224E+01 -.195E+01   0.246E-01 0.756E+00 -.672E-01   0.276E-03 -.430E-02 0.549E-02
   -.422E+00 0.267E+00 0.601E+00   0.404E+00 -.261E+00 -.576E+00   0.160E-01 -.856E-02 -.230E-01   -.337E-02 0.108E-03 -.174E-02
   -.955E+01 -.291E+01 -.294E+00   0.102E+02 0.293E+01 0.224E+00   -.695E+00 -.182E-01 0.613E-01   -.467E-02 0.217E-02 0.974E-02
   0.333E+02 0.150E+02 0.314E+02   -.341E+02 -.150E+02 -.316E+02   0.725E+00 0.429E-01 0.180E+00   0.244E-01 -.157E-01 0.684E-03
   -.122E+02 -.108E+02 0.755E+02   0.124E+02 0.108E+02 -.760E+02   -.203E+00 -.439E-02 0.478E+00   0.103E-03 -.117E-01 0.261E-02
   -.395E+02 0.103E+02 0.423E+02   0.403E+02 -.104E+02 -.427E+02   -.783E+00 0.591E-01 0.425E+00   0.574E-02 -.112E-01 -.164E-02
   -.188E+02 -.119E+02 0.769E+02   0.192E+02 0.121E+02 -.774E+02   -.403E+00 -.197E+00 0.467E+00   0.478E-02 0.129E-01 -.884E-03
   -.534E+01 0.106E+02 0.519E+02   0.565E+01 -.108E+02 -.522E+02   -.307E+00 0.133E+00 0.326E+00   -.874E-03 0.115E-01 0.469E-02
   0.238E+02 -.151E+02 -.187E+02   -.244E+02 0.150E+02 0.187E+02   0.624E+00 0.237E-02 0.373E-01   0.258E-01 0.158E-01 0.475E-04
   0.333E+01 0.270E+02 0.775E+01   -.341E+01 -.272E+02 -.824E+01   0.101E+00 0.168E+00 0.480E+00   -.170E-01 -.131E-01 0.418E-02
   0.148E+02 -.260E+02 0.577E+02   -.151E+02 0.262E+02 -.583E+02   0.293E+00 -.233E+00 0.631E+00   -.166E-01 0.149E-01 0.439E-02
   -.145E+02 0.245E+02 -.569E+02   0.148E+02 -.247E+02 0.575E+02   -.320E+00 0.200E+00 -.604E+00   0.288E-01 -.118E-01 -.412E-02
   0.135E+02 0.115E+02 -.764E+02   -.138E+02 -.115E+02 0.770E+02   0.332E+00 0.678E-01 -.530E+00   -.237E-01 0.234E-02 -.429E-02
   0.384E+02 -.103E+02 -.404E+02   -.391E+02 0.104E+02 0.408E+02   0.724E+00 -.120E+00 -.415E+00   0.172E-01 0.944E-02 0.206E-02
   0.178E+02 0.122E+02 -.780E+02   -.183E+02 -.124E+02 0.785E+02   0.451E+00 0.256E+00 -.474E+00   0.194E-01 -.106E-01 0.115E-02
   0.657E+01 -.111E+02 -.527E+02   -.687E+01 0.113E+02 0.530E+02   0.311E+00 -.188E+00 -.342E+00   -.229E-01 -.298E-02 -.576E-02
   -.279E+01 -.254E+02 -.802E+01   0.273E+01 0.255E+02 0.850E+01   0.370E-01 -.128E+00 -.486E+00   0.272E-01 0.100E-01 -.236E-02
   -.246E+02 0.141E+02 0.163E+02   0.252E+02 -.142E+02 -.162E+02   -.630E+00 0.933E-01 -.930E-01   -.384E-01 -.116E-01 0.762E-03
   -.346E+02 -.142E+02 -.310E+02   0.355E+02 0.143E+02 0.312E+02   -.838E+00 -.132E+00 -.211E+00   -.347E-01 0.105E-01 -.986E-03
   0.380E+02 0.311E+02 0.305E+03   -.427E+02 -.330E+02 -.322E+03   0.470E+01 0.197E+01 0.167E+02   0.298E-02 -.927E-02 0.158E-01
   -.352E+02 0.257E+02 -.351E+03   0.397E+02 -.274E+02 0.368E+03   -.456E+01 0.172E+01 -.171E+02   0.164E-01 -.208E-01 0.977E-02
   -.227E+02 0.305E+02 -.313E+03   0.259E+02 -.323E+02 0.331E+03   -.314E+01 0.176E+01 -.179E+02   0.247E-02 -.249E-01 -.462E-03
   -.432E+01 0.256E+02 0.373E+03   0.272E+01 -.276E+02 -.395E+03   0.162E+01 0.201E+01 0.214E+02   -.165E-01 -.132E-01 -.162E-01
   -.409E+02 -.328E+01 0.314E+03   0.409E+02 0.349E+01 -.331E+03   -.150E-01 -.225E+00 0.167E+02   -.274E-01 0.826E-02 -.519E-02
   -.330E+02 -.252E+02 -.342E+03   0.379E+02 0.266E+02 0.360E+03   -.490E+01 -.148E+01 -.178E+02   -.111E-01 0.814E-02 0.213E-01
   0.104E+02 0.307E+02 -.353E+03   -.109E+02 -.326E+02 0.373E+03   0.516E+00 0.188E+01 -.199E+02   0.639E-02 -.867E-02 0.127E-01
   -.360E+02 0.349E+01 0.307E+03   0.367E+02 -.409E+01 -.323E+03   -.697E+00 0.608E+00 0.162E+02   -.330E-01 -.835E-02 0.612E-04
   0.340E+02 0.370E+01 -.314E+03   -.334E+02 -.399E+01 0.330E+03   -.640E+00 0.287E+00 -.161E+02   0.277E-02 -.599E-02 0.815E-02
   0.342E+02 0.261E+02 0.343E+03   -.391E+02 -.275E+02 -.360E+03   0.485E+01 0.140E+01 0.175E+02   0.121E-01 -.566E-02 -.208E-01
   -.779E+01 -.314E+02 0.354E+03   0.828E+01 0.333E+02 -.374E+03   -.487E+00 -.184E+01 0.199E+02   0.754E-02 0.592E-02 -.141E-01
   0.336E+02 -.378E+01 -.308E+03   -.344E+02 0.448E+01 0.324E+03   0.758E+00 -.709E+00 -.160E+02   0.221E-01 0.578E-02 -.342E-02
   0.281E+02 -.321E+02 0.314E+03   -.315E+02 0.338E+02 -.331E+03   0.336E+01 -.173E+01 0.175E+02   -.144E-02 0.882E-02 0.214E-01
   -.298E+00 -.258E+02 -.372E+03   0.209E+01 0.278E+02 0.393E+03   -.182E+01 -.198E+01 -.208E+02   0.221E-01 0.225E-01 0.310E-02
   -.337E+02 -.302E+02 -.305E+03   0.381E+02 0.323E+02 0.322E+03   -.432E+01 -.210E+01 -.173E+02   -.154E-01 0.250E-01 0.113E-01
   0.326E+02 -.259E+02 0.352E+03   -.373E+02 0.278E+02 -.369E+03   0.472E+01 -.188E+01 0.170E+02   0.239E-02 0.112E-01 -.298E-01
   0.548E+02 -.239E+01 0.334E+03   -.601E+02 0.233E+01 -.353E+03   0.523E+01 0.872E-01 0.189E+02   0.106E-01 -.219E-01 -.172E-01
   -.265E+01 0.294E+02 -.379E+03   0.418E+01 -.317E+02 0.400E+03   -.151E+01 0.227E+01 -.214E+02   -.282E-01 -.871E-02 -.676E-02
   -.608E+02 0.465E+00 -.329E+03   0.667E+02 -.666E+00 0.349E+03   -.595E+01 0.217E+00 -.194E+02   0.713E-02 -.132E-01 0.151E-01
   0.369E+02 0.257E+02 0.354E+03   -.416E+02 -.277E+02 -.370E+03   0.477E+01 0.202E+01 0.168E+02   0.247E-02 -.247E-01 0.208E-02
   0.285E+02 0.468E+01 0.289E+03   -.322E+02 -.511E+01 -.303E+03   0.369E+01 0.417E+00 0.139E+02   0.273E-01 0.676E-02 -.172E-02
   -.250E+02 0.261E+02 -.358E+03   0.293E+02 -.274E+02 0.376E+03   -.423E+01 0.133E+01 -.184E+02   0.120E-01 0.737E-02 -.103E-01
   0.592E+01 -.297E+02 -.359E+03   -.607E+01 0.319E+02 0.379E+03   0.126E+00 -.215E+01 -.199E+02   0.164E-01 -.644E-02 -.165E-01
   -.104E+02 -.498E+01 0.309E+03   0.108E+02 0.546E+01 -.327E+03   -.415E+00 -.476E+00 0.186E+02   0.127E-01 -.716E-02 0.543E-02
   -.293E+02 -.436E+01 -.291E+03   0.329E+02 0.486E+01 0.305E+03   -.357E+01 -.479E+00 -.139E+02   -.142E-01 -.214E-01 0.233E-01
   0.327E+02 -.268E+02 0.357E+03   -.374E+02 0.281E+02 -.375E+03   0.471E+01 -.123E+01 0.179E+02   -.333E-02 -.233E-01 -.111E-01
   -.343E+01 0.301E+02 0.360E+03   0.359E+01 -.322E+02 -.379E+03   -.129E+00 0.206E+01 0.196E+02   -.233E-01 0.222E-01 0.866E-03
   0.753E+01 0.498E+01 -.309E+03   -.779E+01 -.559E+01 0.327E+03   0.279E+00 0.590E+00 -.182E+02   -.901E-02 0.217E-01 0.169E-01
   0.630E+02 0.171E+00 0.329E+03   -.691E+02 0.201E-01 -.348E+03   0.602E+01 -.217E+00 0.191E+02   0.402E-02 0.226E-01 -.120E-01
   -.384E+02 -.264E+02 -.355E+03   0.432E+02 0.284E+02 0.372E+03   -.480E+01 -.203E+01 -.165E+02   -.203E-01 0.832E-02 -.136E-01
   -.512E+02 0.178E+01 -.335E+03   0.562E+02 -.184E+01 0.354E+03   -.503E+01 0.528E-01 -.191E+02   0.681E-02 0.130E-01 0.200E-01
   -.770E+00 -.287E+02 0.376E+03   -.524E+00 0.309E+02 -.398E+03   0.130E+01 -.226E+01 0.218E+02   0.329E-02 0.248E-01 -.270E-02
 -----------------------------------------------------------------------------------------------
   -.919E+00 0.146E+00 0.606E+00   -.451E-12 0.675E-13 0.853E-12   0.920E+00 -.129E+00 -.625E+00   -.295E-02 -.738E-02 0.128E-01
 
 
 POSITION                                       TOTAL-FORCE (eV/Angst)
 -----------------------------------------------------------------------------------
      1.36505      5.52743      2.45112        -0.002090      0.000898      0.000099
      4.07210      1.39295      2.45276         0.000339     -0.004778     -0.001450
      2.28284      1.40967      7.23662        -0.003041      0.002062      0.000539
      1.41964      2.77892      2.43688        -0.004012     -0.002017      0.004797
      4.77868      3.05454      7.25479         0.004500      0.049758     -0.004421
      6.71931      5.52971      2.48593        -0.004662     -0.000469     -0.001463
     -0.19991      5.29036      7.22941         0.002955     -0.038924      0.001346
     -2.67043      1.41220      7.18041        -0.004768     -0.002970      0.000324
      6.76876      2.79247      2.47189        -0.002329      0.002860      0.000945
      9.92601     -0.00415      0.12259         0.004748      0.001478      0.001657
     -1.07534      1.41817      9.59735         0.005832      0.000724      0.001603
      3.89245      1.40567      9.62803         0.006877      0.002292      0.000072
      3.87832      4.18166      9.62026         0.004943      0.000646      0.001736
      2.48356      4.14989      0.06091         0.004144     -0.001046      0.003974
      0.01329      2.77462      0.04959         0.005931     -0.000883      0.001554
      4.97965      5.52439      0.12969         0.005374      0.002503      0.002646
      4.97346      2.76675      0.08534         0.005379     -0.001374      0.002934
      3.16392      5.54535      4.83327        -0.004535      0.000824     -0.005503
      5.66223      1.39006      4.87070        -0.005520     -0.000743     -0.003021
      0.68704      1.40043      4.84192        -0.007018      0.000169      0.000417
      0.70393      4.16058      4.86580        -0.004829     -0.002793     -0.001031
      5.65817      4.16450      4.86017        -0.003868      0.000510     -0.005141
      3.16626      2.78869      4.78679        -0.004242     -0.002663     -0.005535
      8.13003      5.53980      4.87527        -0.006347      0.000519      0.001198
     -1.78225      2.78305      4.78521        -0.005078     -0.002058      0.001182
      4.97546      0.03079      3.83565         0.001214      0.000527     -0.008527
      1.41473      0.04009      5.84323        -0.006543     -0.004747     -0.000010
      3.20810      0.01490      1.03749         0.003388     -0.001437      0.004553
      3.09981      0.05288      8.68007         0.009485      0.001952      0.000613
      7.37044      1.41340      3.89954        -0.005853      0.000461      0.001911
     -1.11757      1.36609      5.78933        -0.012837     -0.000175      0.002127
     -1.02104      4.17807      5.74023        -0.007962     -0.002362      0.002899
      7.35669      4.14942      3.91158        -0.002880      0.000115      0.000714
      0.75286      1.36400      1.01691         0.004805     -0.000659      0.002390
      5.70053      1.44400      8.68185         0.011161     -0.000937      0.002931
      5.61271      4.16354      8.74372         0.008530      0.002639      0.000902
      0.78766      4.16710      1.01490         0.004476     -0.001932      0.002771
      4.95966      2.76229      3.85635        -0.000101      0.001635     -0.008014
      1.47601      2.74882      5.79299        -0.004901     -0.002763     -0.001448
      3.18051      2.74691      1.06410         0.005146     -0.000962      0.003395
      3.16621      2.76929      8.62912         0.009145      0.006110      0.000894
     -0.02203      0.00762      3.86398        -0.007491     -0.000837      0.004473
      6.41250      0.01093      5.82075        -0.011932     -0.002582     -0.001622
      8.14833      5.52425      1.06130         0.005719      0.001575      0.000443
     -1.77791      0.04088      8.59201         0.007735     -0.002837      0.005486
      2.46095      1.38676      3.76555        -0.006269     -0.002268     -0.008349
      3.89373      1.41699      5.78425        -0.006721     -0.005740     -0.014248
      3.94907      4.14595      5.76080        -0.007429      0.000552     -0.011848
      2.36073      4.18377      3.86281        -0.009452     -0.001755     -0.006775
      5.68467      1.39260      1.13383         0.006546      0.000544      0.003598
      0.71543      1.38555      8.66596         0.009686      0.003214      0.005291
      0.63043      4.19669      8.71995         0.007868      0.000675      0.005615
      5.77198      4.12720      1.06099         0.007711      0.002238      0.004777
     -0.00400      2.79028      3.85795        -0.005739     -0.002522      0.004590
      6.35208      2.76876      5.88432        -0.011310      0.003282     -0.001953
      8.17557      2.76773      1.03752         0.004719      0.001815      0.000355
     -1.84459      2.79630      8.65697         0.011406      0.002659      0.002610
 -----------------------------------------------------------------------------------
    total drift:                               -0.001611      0.008865     -0.006139


--------------------------------------------------------------------------------------------------------



  FREE ENERGIE OF THE ION-ELECTRON SYSTEM (eV)
  ---------------------------------------------------
  free  energy   TOTEN  =      -350.0637460713 eV

  energy  without entropy=     -350.0634989098  energy(sigma->0) =     -350.06362249
 
 d Force = 0.7538209E-04[ 0.706E-04, 0.802E-04]  d Energy = 0.8098814E-04-0.561E-05
 d Force =-0.7302279E-01[-0.731E-01,-0.729E-01]  d Ewald  =-0.9607024E+00 0.888E+00


--------------------------------------------------------------------------------------------------------


    POTLOK:  cpu time    0.1623: real time    0.1627


--------------------------------------------------------------------------------------------------------


 Quasi-Newton relaxation of ions (Broydens 2nd method)
  g(Force)  = 0.375E-03   g(Stress)= 0.181E-03

 retain information from N=  2 steps
 eigenvalues of (default step * inverse Hessian matrix)
  average eigenvalue of G=   2.6866
 eigenvalue spectrum of G is  0.0399  5.3334


--------------------------------------------------------------------------------------------------------


     LOOP+:  cpu time   11.1717: real time   11.2027
    4ORBIT:  cpu time    0.0000: real time    0.0000

volume of typ            1:    13.3 %

volume of typ            2:    19.3 %

volume of typ            3:     9.9 %
 
total charge     
 
# of ion       s       p       d       tot
------------------------------------------
    1        2.079   0.236   0.089   2.405
    2        2.076   0.235   0.088   2.399
    3        2.070   0.212   0.080   2.361
    4        2.074   0.233   0.086   2.393
    5        2.069   0.222   0.081   2.372
    6        2.073   0.232   0.085   2.391
    7        2.069   0.221   0.081   2.371
    8        2.068   0.214   0.079   2.361
    9        2.078   0.234   0.088   2.400
   10        0.272   0.368   7.849   8.489
   11        0.286   0.395   7.867   8.548
   12        0.283   0.387   7.867   8.536
   13        0.287   0.400   7.855   8.542
   14        0.283   0.393   7.845   8.522
   15        0.284   0.392   7.850   8.526
   16        0.283   0.389   7.856   8.528
   17        0.271   0.365   7.855   8.492
   18        0.270   0.363   7.855   8.489
   19        0.289   0.404   7.861   8.555
   20        0.283   0.388   7.867   8.538
   21        0.289   0.403   7.851   8.543
   22        0.284   0.395   7.845   8.525
   23        0.281   0.384   7.861   8.525
   24        0.282   0.387   7.854   8.523
   25        0.271   0.365   7.850   8.486
   26        1.267   2.771   0.007   4.044
   27        1.263   2.779   0.007   4.048
   28        1.266   2.771   0.007   4.044
   29        1.270   2.761   0.008   4.038
   30        1.260   2.787   0.007   4.054
   31        1.267   2.768   0.007   4.041
   32        1.269   2.764   0.007   4.040
   33        1.259   2.792   0.007   4.058
   34        1.261   2.788   0.007   4.055
   35        1.267   2.768   0.007   4.041
   36        1.270   2.763   0.007   4.040
   37        1.259   2.792   0.007   4.058
   38        1.266   2.771   0.007   4.044
   39        1.270   2.762   0.007   4.039
   40        1.266   2.772   0.007   4.044
   41        1.263   2.778   0.007   4.048
   42        1.268   2.771   0.007   4.047
   43        1.272   2.754   0.007   4.034
   44        1.269   2.766   0.007   4.043
   45        1.265   2.774   0.007   4.046
   46        1.257   2.792   0.006   4.055
   47        1.267   2.767   0.007   4.041
   48        1.269   2.766   0.007   4.043
   49        1.262   2.780   0.007   4.050
   50        1.258   2.792   0.006   4.056
   51        1.267   2.769   0.007   4.043
   52        1.269   2.766   0.007   4.042
   53        1.263   2.779   0.007   4.049
   54        1.269   2.767   0.007   4.043
   55        1.265   2.775   0.006   4.046
   56        1.269   2.770   0.007   4.045
   57        1.272   2.755   0.008   4.034
--------------------------------------------------
tot          63.66   96.95  126.67  287.28
 
magnetization (x)
 
# of ion       s       p       d       tot
------------------------------------------
    1        0.000   0.001   0.000   0.001
    2        0.005   0.009   0.000   0.014
    3        0.000   0.001   0.000   0.001
    4        0.004   0.009  -0.000   0.014
    5        0.004   0.009   0.000   0.014
    6        0.005   0.009  -0.000   0.013
    7        0.004   0.010   0.000   0.014
    8        0.005   0.009   0.000   0.014
    9       -0.000  -0.001  -0.000  -0.001
   10        0.001   0.000   0.432   0.433
   11        0.002  -0.001   0.472   0.474
   12        0.005  -0.000   0.564   0.569
   13        0.000  -0.001   0.195   0.194
   14        0.000  -0.001   0.229   0.228
   15       -0.001   0.000  -0.300  -0.301
   16       -0.001  -0.000  -0.310  -0.311
   17        0.001  -0.000   0.438   0.439
   18        0.002  -0.000   0.501   0.503
   19       -0.002   0.000  -0.359  -0.361
   20        0.005   0.000   0.526   0.531
   21       -0.001  -0.000  -0.168  -0.170
   22       -0.000  -0.000   0.167   0.166
   23        0.001  -0.000   0.352   0.352
   24        0.001  -0.000   0.346   0.347
   25        0.002  -0.000   0.499   0.500
   26        0.005   0.049   0.000   0.054
   27        0.005   0.059   0.000   0.064
   28       -0.001  -0.015  -0.000  -0.016
   29       -0.002  -0.033  -0.000  -0.035
   30       -0.001  -0.035  -0.000  -0.036
   31        0.008   0.075   0.000   0.083
   32        0.000  -0.005  -0.000  -0.005
   33        0.004   0.020   0.000   0.024
   34        0.004   0.057   0.000   0.061
   35        0.006   0.068   0.000   0.074
   36        0.001   0.006   0.000   0.007
   37        0.003   0.021   0.000   0.024
   38        0.002   0.015   0.000   0.017
   39        0.003   0.053   0.000   0.056
   40        0.007   0.056   0.000   0.063
   41        0.006   0.056   0.000   0.062
   42        0.003   0.028   0.000   0.032
   43        0.003   0.032   0.000   0.035
   44        0.006   0.057   0.000   0.063
   45        0.007   0.053   0.000   0.060
   46        0.008   0.068   0.000   0.076
   47       -0.002  -0.029  -0.000  -0.032
   48        0.004   0.030   0.000   0.034
   49        0.000  -0.016  -0.000  -0.016
   50        0.005   0.060   0.000   0.065
   51        0.005   0.043   0.000   0.047
   52        0.002   0.018   0.000   0.020
   53        0.001   0.015   0.000   0.016
   54        0.005   0.057   0.000   0.062
   55        0.006   0.048   0.000   0.053
   56       -0.002  -0.010  -0.000  -0.012
   57       -0.001  -0.031  -0.000  -0.033
--------------------------------------------------
tot           0.14    0.92    3.59    4.65
 

 total amount of memory used by VASP MPI-rank0    94861. kBytes
=======================================================================

   base      :      30000. kBytes
   nonlr-proj:      23029. kBytes
   fftplans  :       5418. kBytes
   grid      :      31961. kBytes
   one-center:        886. kBytes
   wavefun   :       3567. kBytes
 
  
  
 General timing and accounting informations for this job:
 ========================================================
  
                  Total CPU time used (sec):      450.850
                            User time (sec):      447.546
                          System time (sec):        3.304
                         Elapsed time (sec):      457.452
  
                   Maximum memory used (kb):      142260.
                   Average memory used (kb):           0.
  
                          Minor page faults:        37571
                          Major page faults:           43
                 Voluntary context switches:         1317
