 vasp.5.4.4.18Apr17-6-g9f103f2a35 (build May 12 2020 05:39:39) gamma-only       
  
 MD_VERSION_INFO: Compiled 2020-05-12T12:39:39-UTC in devlin.sd.materialsdesign.
 com:/home/medea2/data/build/wwolf/vasp-gpu5.4.4/13047/x86_64/src/src/build/gam 
 from svn 13047
 
 This VASP executable licensed from Materials Design, Inc.
 
 executed on                        Lin64 date 2023.03.07  06:04:45
 running on   16 total cores
 distrk:  each k-point on   16 cores,    1 groups
 distr:  one band on NCORES_PER_BAND=   1 cores,   16 groups


--------------------------------------------------------------------------------------------------------


 INCAR:
 POTCAR:    PAW_PBE Li_sv 10Sep2004               
 POTCAR:    PAW_PBE Ni 02Aug2007                  
 POTCAR:    PAW_PBE O 08Apr2002                   

 ----------------------------------------------------------------------------- 
|                                                                             |
|           W    W    AA    RRRRR   N    N  II  N    N   GGGG   !!!           |
|           W    W   A  A   R    R  NN   N  II  NN   N  G    G  !!!           |
|           W    W  A    A  R    R  N N  N  II  N N  N  G       !!!           |
|           W WW W  AAAAAA  RRRRR   N  N N  II  N  N N  G  GGG   !            |
|           WW  WW  A    A  R   R   N   NN  II  N   NN  G    G                |
|           W    W  A    A  R    R  N    N  II  N    N   GGGG   !!!           |
|                                                                             |
|      For optimal performance we recommend to set                            |
|        NCORE= 4 - approx SQRT( number of cores)                             |
|      NCORE specifies how many cores store one orbital (NPAR=cpu/NCORE).     |
|      This setting can  greatly improve the performance of VASP for DFT.     |
|      The default,   NCORE=1            might be grossly inefficient         |
|      on modern multi-core architectures or massively parallel machines.     |
|      Do your own testing !!!!                                               |
|      Unfortunately you need to use the default for GW and RPA calculations. |
|      (for HF NCORE is supported but not extensively tested yet)             |
|                                                                             |
 ----------------------------------------------------------------------------- 

 POTCAR:    PAW_PBE Li_sv 10Sep2004               
  local pseudopotential read in
  atomic valenz-charges read in
  non local Contribution for L=           0  read in
    real space projection operators read in
  non local Contribution for L=           0  read in
    real space projection operators read in
  non local Contribution for L=           1  read in
    real space projection operators read in
    PAW grid and wavefunctions read in
 
   number of l-projection  operators is LMAX  =           3
   number of lm-projection operators is LMMAX =           5
 
 POTCAR:    PAW_PBE Ni 02Aug2007                  
  local pseudopotential read in
  partial core-charges read in
  partial kinetic energy density read in
  atomic valenz-charges read in
  non local Contribution for L=           2  read in
    real space projection operators read in
  non local Contribution for L=           2  read in
    real space projection operators read in
  non local Contribution for L=           0  read in
    real space projection operators read in
  non local Contribution for L=           0  read in
    real space projection operators read in
  non local Contribution for L=           1  read in
    real space projection operators read in
  non local Contribution for L=           1  read in
    real space projection operators read in
    PAW grid and wavefunctions read in
 
   number of l-projection  operators is LMAX  =           6
   number of lm-projection operators is LMMAX =          18
 
 POTCAR:    PAW_PBE O 08Apr2002                   
  local pseudopotential read in
  partial core-charges read in
  partial kinetic energy density read in
  kinetic energy density of atom read in
  atomic valenz-charges read in
  non local Contribution for L=           0  read in
    real space projection operators read in
  non local Contribution for L=           0  read in
    real space projection operators read in
  non local Contribution for L=           1  read in
    real space projection operators read in
  non local Contribution for L=           1  read in
    real space projection operators read in
    PAW grid and wavefunctions read in
 
   number of l-projection  operators is LMAX  =           4
   number of lm-projection operators is LMMAX =           8
 
 Optimization of the real space projectors (new method)

 maximal supplied QI-value         = 22.11
 optimisation between [QCUT,QGAM] = [ 11.28, 22.77] = [ 35.61,145.23] Ry 
 Optimized for a Real-space Cutoff    1.10 Angstroem

   l    n(q)    QCUT    max X(q) W(low)/X(q) W(high)/X(q)  e(spline) 
   0      7    11.276    10.506    0.54E-04    0.58E-04    0.16E-07
   0      7    11.276     8.367    0.11E-03    0.14E-03    0.35E-07
   1      7    11.276     8.983    0.23E-03    0.43E-03    0.86E-07
 Optimization of the real space projectors (new method)

 maximal supplied QI-value         = 16.25
 optimisation between [QCUT,QGAM] = [ 11.38, 22.75] = [ 36.24,144.96] Ry 
 Optimized for a Real-space Cutoff    1.47 Angstroem

   l    n(q)    QCUT    max X(q) W(low)/X(q) W(high)/X(q)  e(spline) 
   2      9    11.376    60.317    0.17E-03    0.16E-04    0.16E-06
   2      9    11.376    55.921    0.17E-03    0.16E-04    0.17E-06
   0     10    11.376    51.690    0.45E-04    0.60E-04    0.21E-06
   0     10    11.376    30.015    0.37E-04    0.55E-04    0.19E-06
   1     10    11.376    18.849    0.83E-04    0.11E-03    0.92E-07
   1     10    11.376    14.624    0.69E-04    0.92E-04    0.82E-07
 Optimization of the real space projectors (new method)

 maximal supplied QI-value         = 24.76
 optimisation between [QCUT,QGAM] = [ 11.39, 22.77] = [ 36.31,145.25] Ry 
 Optimized for a Real-space Cutoff    1.10 Angstroem

   l    n(q)    QCUT    max X(q) W(low)/X(q) W(high)/X(q)  e(spline) 
   0      7    11.387    20.381    0.22E-03    0.48E-03    0.18E-06
   0      7    11.387    15.268    0.22E-03    0.52E-03    0.19E-06
   1      7    11.387     5.964    0.22E-03    0.73E-03    0.24E-06
   1      7    11.387     5.382    0.19E-03    0.60E-03    0.21E-06

 ----------------------------------------------------------------------------- 
|                                                                             |
|  ADVICE TO THIS USER RUNNING 'VASP/VAMP'   (HEAR YOUR MASTER'S VOICE ...):  |
|                                                                             |
|      You enforced a specific xc-type in the INCAR file,                     |
|      a different type was found on the POTCAR file                          |
|          I HOPE YOU KNOW, WHAT YOU ARE  DOING                               |
|                                                                             |
 ----------------------------------------------------------------------------- 

  PAW_PBE Li_sv 10Sep2004               :
 energy of atom  1       EATOM= -202.7858
 kinetic energy error for atom=    0.0143 (will be added to EATOM!!)
  PAW_PBE Ni 02Aug2007                  :
 energy of atom  2       EATOM=-1077.6739
 kinetic energy error for atom=    0.0030 (will be added to EATOM!!)
  PAW_PBE O 08Apr2002                   :
 energy of atom  3       EATOM= -432.3788
 kinetic energy error for atom=    0.0224 (will be added to EATOM!!)
 
 
 POSCAR: ce7853_1                                
  positions in direct lattice
  No initial velocities read in
 exchange correlation table for  LEXCH =       14
   RHO(1)=    0.500       N(1)  =     2000
   RHO(2)=  100.500       N(2)  =     4000
 


--------------------------------------------------------------------------------------------------------


 ion  position               nearest neighbor table
   1  0.982  0.251  0.223-  40 1.99  35 2.03  32 2.14  47 2.21   8 2.81  19 2.82
   2  0.250  0.250  0.501-  48 2.11  44 2.12  24 2.15  36 2.17  38 2.18  26 2.18
   3  0.206  0.750  0.500-  25 2.01  27 2.02  49 2.12  45 2.15  16 2.80  14 2.82
   4  0.544  0.751  0.750-  34 2.02  46 2.03  39 2.19  53 2.20  11 2.80  20 2.84
   5  0.199  0.750  1.000-  43 2.00  41 2.03  29 2.11  33 2.14   8 2.78  22 2.82
   6  0.519  0.250  0.775-  54 1.97  31 2.03  28 2.15  51 2.22  23 2.80  11 2.82
   7  0.547  0.750  0.251-  30 2.03  50 2.03  37 2.12  55 2.13  19 2.77  12 2.81
   8  0.999  0.997  0.998-  32 1.84  35 1.84  34 1.86  33 1.86  42 1.90  43 1.92  13 2.76  13 2.77
                             5 2.78  10 2.81   1 2.81  11 2.82  12 2.84   9 2.85
   9  0.251  0.998  0.250-  55 1.83  26 1.83  38 1.85  43 1.86  32 1.97  49 2.02  12 2.76  12 2.77
                            13 2.82  14 2.82  15 2.83   8 2.85
  10  0.248  0.000  0.751-  27 1.83  42 1.84  54 1.84  39 1.85  33 2.02  48 2.03  11 2.75  11 2.78
                             8 2.81  14 2.83  15 2.83  13 2.84
  11  0.751  0.998  0.748-  54 1.84  27 1.84  42 1.85  39 1.88  34 1.93  51 1.94  10 2.75  10 2.78
                             4 2.80  15 2.81  14 2.81   8 2.82   6 2.82  13 2.85
  12  0.751  1.000  0.251-  55 1.85  26 1.86  38 1.86  43 1.87  35 1.94  50 1.94   9 2.76   9 2.77
                             7 2.81  14 2.82  15 2.82  13 2.82   8 2.84
  13  0.500  0.004  0.003-  33 1.84  34 1.85  35 1.85  32 1.85  54 2.00  55 2.04   8 2.76   8 2.77
                             9 2.82  12 2.82  10 2.84  11 2.85
  14  1.000  0.001  0.500-  50 1.85  51 1.85  48 1.85  49 1.86  27 1.94  26 1.97  15 2.76  15 2.77
                            11 2.81  12 2.82   3 2.82   9 2.82  10 2.83
  15  0.501  0.998  0.500-  50 1.84  51 1.84  48 1.84  49 1.84  38 1.91  39 1.94  14 2.76  14 2.77
                            11 2.81  12 2.82  10 2.83   9 2.83
  16  1.000  0.502  0.502-  44 1.84  47 1.85  46 1.86  45 1.87  25 1.90  24 1.91  21 2.76  21 2.77
                             3 2.80  20 2.82  17 2.82  19 2.83  18 2.84
  17  0.249  0.500  0.750-  41 1.83  36 1.83  24 1.85  53 1.85  28 1.97  45 2.01  20 2.76  20 2.77
                            16 2.82  22 2.82  23 2.83  21 2.84
  18  0.251  0.502  0.250-  37 1.83  40 1.83  52 1.84  25 1.86  44 2.03  29 2.03  19 2.76  19 2.77
                            23 2.82  22 2.82  21 2.82  16 2.84
  19  0.751  0.504  0.251-  40 1.84  37 1.85  52 1.85  25 1.87  30 1.94  47 1.94  18 2.76  18 2.77
                             7 2.77  21 2.81  22 2.82   1 2.82  23 2.83  16 2.83
  20  0.751  0.498  0.750-  41 1.85  36 1.85  24 1.86  53 1.87  31 1.93  46 1.94  17 2.76  17 2.77
                            23 2.82  16 2.82  22 2.82   4 2.84  21 2.84
  21  0.501  0.497  0.498-  46 1.84  45 1.84  47 1.85  44 1.86  36 2.03  37 2.03  16 2.76  16 2.77
                            19 2.81  18 2.82  17 2.84  20 2.84
  22  0.000  0.498  1.000-  28 1.85  31 1.85  29 1.86  30 1.86  40 1.95  41 1.95  23 2.76  23 2.77
                             5 2.82  19 2.82  18 2.82  20 2.82  17 2.82
  23  0.501  0.502  0.000-  29 1.84  28 1.84  31 1.84  30 1.85  52 1.90  53 1.95  22 2.76  22 2.77
                             6 2.80  20 2.82  18 2.82  17 2.83  19 2.83
  24  0.004  0.402  0.634-  17 1.85  20 1.86  16 1.91   2 2.15
  25  0.004  0.599  0.368-  18 1.86  19 1.87  16 1.90   3 2.01
  26  0.004  0.099  0.359-   9 1.83  12 1.86  14 1.97   2 2.18
  27  0.004  0.902  0.637-  10 1.83  11 1.84  14 1.94   3 2.02
  28  0.255  0.401  0.890-  23 1.84  22 1.85  17 1.97   6 2.15
  29  0.250  0.604  0.106-  23 1.84  22 1.86  18 2.03   5 2.11
  30  0.751  0.600  0.112-  23 1.85  22 1.86  19 1.94   7 2.03
  31  0.748  0.402  0.888-  23 1.84  22 1.85  20 1.93   6 2.03
  32  0.243  0.099  0.112-   8 1.84  13 1.85   9 1.97   1 2.14
  33  0.258  0.897  0.893-  13 1.84   8 1.86  10 2.02   5 2.14
  34  0.743  0.902  0.887-  13 1.85   8 1.86  11 1.93   4 2.02
  35  0.755  0.098  0.114-   8 1.84  13 1.85  12 1.94   1 2.03
  36  0.497  0.397  0.643-  17 1.83  20 1.85  21 2.03   2 2.17
  37  0.496  0.604  0.358-  18 1.83  19 1.85  21 2.03   7 2.12
  38  0.498  0.096  0.366-   9 1.85  12 1.86  15 1.91   2 2.18
  39  0.495  0.899  0.636-  10 1.85  11 1.88  15 1.94   4 2.19
  40  0.001  0.404  0.142-  18 1.83  19 1.84  22 1.95   1 1.99
  41  0.000  0.596  0.862-  17 1.83  20 1.85  22 1.95   5 2.03
  42  0.998  0.094  0.864-  10 1.84  11 1.85   8 1.90
  43  0.001  0.901  0.134-   9 1.86  12 1.87   8 1.92   5 2.00
  44  0.245  0.397  0.392-  16 1.84  21 1.86  18 2.03   2 2.12
  45  0.257  0.602  0.608-  21 1.84  16 1.87  17 2.01   3 2.15
  46  0.744  0.597  0.614-  21 1.84  16 1.86  20 1.94   4 2.03
  47  0.755  0.403  0.386-  21 1.85  16 1.85  19 1.94   1 2.21
  48  0.253  0.103  0.607-  15 1.84  14 1.85  10 2.03   2 2.11
  49  0.252  0.896  0.393-  15 1.84  14 1.86   9 2.02   3 2.12
  50  0.751  0.901  0.388-  15 1.84  14 1.85  12 1.94   7 2.03
  51  0.747  0.098  0.613-  15 1.84  14 1.85  11 1.94   6 2.22
  52  0.503  0.407  0.136-  18 1.84  19 1.85  23 1.90
  53  0.498  0.601  0.863-  17 1.85  20 1.87  23 1.95   4 2.20
  54  0.501  0.099  0.856-  11 1.84  10 1.84   6 1.97  13 2.00
  55  0.500  0.897  0.144-   9 1.83  12 1.85  13 2.04   7 2.13
 
  LATTYP: Found a triclinic cell.
 ALAT       =    11.6354232634
 B/A-ratio  =     0.8469205221
 C/A-ratio  =     0.4752578231
 COS(alpha) =     0.0012518661
 COS(beta)  =     0.0024840996
 COS(gamma) =     0.5515452891
  
  Lattice vectors:
  
 A1 = (   6.3094126098,   0.0145228068,   9.7762045870)
 A2 = (   9.8536706242,   0.0062548504,   0.1092963633)
 A3 = (   0.0033465749,   5.5298216913,   0.0059745221)


Analysis of symmetry for initial positions (statically):
=====================================================================
 Subroutine PRICEL returns:
 Original cell was already a primitive cell.
 

 Routine SETGRP: Setting up the symmetry group for a 
 triclinic supercell.


 Subroutine GETGRP returns: Found  1 space group operations
 (whereof  1 operations were pure point group operations)
 out of a pool of  2 trial point group operations.


The static configuration has the point symmetry C_1 .


Analysis of symmetry for dynamics (positions and initial velocities):
=====================================================================
 Subroutine PRICEL returns:
 Original cell was already a primitive cell.
 

 Routine SETGRP: Setting up the symmetry group for a 
 triclinic supercell.


 Subroutine GETGRP returns: Found  1 space group operations
 (whereof  1 operations were pure point group operations)
 out of a pool of  2 trial point group operations.


The dynamic configuration has the point symmetry C_1 .


Analysis of structural, dynamic, and magnetic symmetry:
=====================================================================
 Subroutine PRICEL returns:
 Original cell was already a primitive cell.
 

 Routine SETGRP: Setting up the symmetry group for a 
 triclinic supercell.


 Subroutine GETGRP returns: Found  1 space group operations
 (whereof  1 operations were pure point group operations)
 out of a pool of  2 trial point group operations.


The magnetic configuration has the point symmetry C_1 .


 Subroutine INISYM returns: Found  1 space group operations
 (whereof  1 operations are pure point group operations),
 and found     1 'primitive' translations

 
 
 KPOINTS: Automatic mesh                          

Automatic generation of k-mesh.
Space group operators:
 irot       det(A)        alpha          n_x          n_y          n_z        tau_x        tau_y        tau_z
    1     1.000000     0.000001     1.000000     0.000000     0.000000     0.000000     0.000000     0.000000
 
 Subroutine IBZKPT returns following result:
 ===========================================
 
 Found      1 irreducible k-points:
 
 Following reciprocal coordinates:
            Coordinates               Weight
  0.000000  0.000000  0.000000      1.000000
 
 Following cartesian coordinates:
            Coordinates               Weight
  0.000000  0.000000  0.000000      1.000000
 


--------------------------------------------------------------------------------------------------------




 Dimension of arrays:
   k-points           NKPTS =      1   k-points in BZ     NKDIM =      1   number of bands    NBANDS=    256
   number of dos      NEDOS =    301   number of ions     NIONS =     55
   non local maximal  LDIM  =      6   non local SUM 2l+1 LMDIM =     18
   total plane-waves  NPLWV = 230400
   max r-space proj   IRMAX =   5898   max aug-charges    IRDMAX=  14319
   dimension x,y,z NGX =    40 NGY =   80 NGZ =   72
   dimension x,y,z NGXF=    80 NGYF=  160 NGZF=  144
   support grid    NGXF=    80 NGYF=  160 NGZF=  144
   ions per type =               7  16  32
   NGX,Y,Z   is equivalent  to a cutoff of  12.03, 12.92, 12.15 a.u.
   NGXF,Y,Z  is equivalent  to a cutoff of  24.05, 25.83, 24.29 a.u.

 SYSTEM =  unknown system                          
 POSCAR =  ce7853_1                                

 Startparameter for this run:
   NWRITE =      1    write-flag & timer
   PREC   = accura    normal or accurate (medium, high low for compatibility)
   ISTART =      0    job   : 0-new  1-cont  2-samecut
   ICHARG =      2    charge: 1-file 2-atom 10-const
   ISPIN  =      2    spin polarized calculation?
   LNONCOLLINEAR =      F non collinear calculations
   LSORBIT =      F    spin-orbit coupling
   INIWAV =      1    electr: 0-lowe 1-rand  2-diag
   LASPH  =      F    aspherical Exc in radial PAW
   METAGGA=      F    non-selfconsistent MetaGGA calc.

 Electronic Relaxation 1
   ENCUT  =  500.0 eV  36.75 Ry    6.06 a.u.  10.08 18.77 17.97*2*pi/ulx,y,z
   ENINI  =  500.0     initial cutoff
   ENAUG  =  628.9 eV  augmentation charge cutoff
   NELM   =     80;   NELMIN=  2; NELMDL= -5     # of ELM steps 
   EDIFF  = 0.1E-04   stopping-criterion for ELM
   LREAL  =      T    real-space projection
   NLSPLINE    = F    spline interpolate recip. space projectors
   LCOMPAT=      F    compatible to vasp.4.4
   GGA_COMPAT  = T    GGA compatible to vasp.4.4-vasp.4.6
   LMAXPAW     = -100 max onsite density
   LMAXMIX     =    2 max onsite mixed and CHGCAR
   VOSKOWN=      1    Vosko Wilk Nusair interpolation
   ROPT   =   -0.00025  -0.00025  -0.00025
 Ionic relaxation
   EDIFFG = -.2E-01   stopping-criterion for IOM
   NSW    =     20    number of steps for IOM
   NBLOCK =      1;   KBLOCK =     20    inner block; outer block 
   IBRION =      1    ionic relax: 0-MD 1-quasi-New 2-CG
   NFREE  =      0    steps in history (QN), initial steepest desc. (CG)
   ISIF   =      3    stress and relaxation
   IWAVPR =     11    prediction:  0-non 1-charg 2-wave 3-comb
   ISYM   =      2    0-nonsym 1-usesym 2-fastsym
   LCORR  =      T    Harris-Foulkes like correction to forces

   POTIM  = 0.5000    time-step for ionic-motion
   TEIN   =    0.0    initial temperature
   TEBEG  =    0.0;   TEEND  =   0.0 temperature during run
   SMASS  =  -3.00    Nose mass-parameter (am)
   estimated Nose-frequenzy (Omega)   =  0.10E-29 period in steps =****** mass=  -0.699E-27a.u.
   SCALEE = 1.0000    scale energy and forces
   NPACO  =    256;   APACO  = 16.0  distance and # of slots for P.C.
   PSTRESS=    0.0 pullay stress

  Mass of Ions in am
   POMASS =   7.01 58.69 16.00
  Ionic Valenz
   ZVAL   =   3.00 10.00  6.00
  Atomic Wigner-Seitz radii
   RWIGS  =   1.23  1.15  0.73
  virtual crystal weights 
   VCA    =   1.00  1.00  1.00
   NELECT =     373.0000    total number of electrons
   NUPDOWN=      -1.0000    fix difference up-down

 DOS related values:
   EMIN   =  10.00;   EMAX   =-10.00  energy-range for DOS
   EFERMI =   0.00
   ISMEAR =     0;   SIGMA  =   0.05  broadening in eV -4-tet -1-fermi 0-gaus

 Electronic relaxation 2 (details)
   IALGO  =     38    algorithm
   LDIAG  =      T    sub-space diagonalisation (order eigenvalues)
   LSUBROT=      F    optimize rotation matrix (better conditioning)
   TURBO    =      0    0=normal 1=particle mesh
   IRESTART =      0    0=no restart 2=restart with 2 vectors
   NREBOOT  =      0    no. of reboots
   NMIN     =      0    reboot dimension
   EREF     =   0.00    reference energy to select bands
   IMIX   =      4    mixing-type and parameters
     AMIX     =   0.40;   BMIX     =  1.00
     AMIX_MAG =   1.60;   BMIX_MAG =  1.00
     AMIN     =   0.10
     WC   =   100.;   INIMIX=   1;  MIXPRE=   1;  MAXMIX= -45

 Intra band minimization:
   WEIMIN = 0.0010     energy-eigenvalue tresh-hold
   EBREAK =  0.98E-08  absolut break condition
   DEPER  =   0.30     relativ break condition  

   TIME   =   0.40     timestep for ELM

  volume/ion in A,a.u.               =       9.62        64.89
  Fermi-wavevector in a.u.,A,eV,Ry     =   1.457219  2.753745 28.891806  2.123488
  Thomas-Fermi vector in A             =   2.574046
 
 Write flags
   LWAVE        =      F    write WAVECAR
   LDOWNSAMPLE  =      F    k-point downsampling of WAVECAR
   LCHARG       =      T    write CHGCAR
   LVTOT        =      F    write LOCPOT, total local potential
   LVHAR        =      F    write LOCPOT, Hartree potential only
   LELF         =      F    write electronic localiz. function (ELF)
   LORBIT       =      0    0 simple, 1 ext, 2 COOP (PROOUT), +10 PAW based schemes


 Dipole corrections
   LMONO  =      F    monopole corrections only (constant potential shift)
   LDIPOL =      F    correct potential (dipole corrections)
   IDIPOL =      0    1-x, 2-y, 3-z, 4-all directions 
   EPSILON=  1.0000000 bulk dielectric constant

 Exchange correlation treatment:
   GGA     =    PS    GGA type
   LEXCH   =    14    internal setting for exchange type
   VOSKOWN=      1    Vosko Wilk Nusair interpolation
   LHFCALC =     F    Hartree Fock is set to
   LHFONE  =     F    Hartree Fock one center treatment
   AEXX    =    0.0000 exact exchange contribution

 Linear response parameters
   LEPSILON=     F    determine dielectric tensor
   LRPA    =     F    only Hartree local field effects (RPA)
   LNABLA  =     F    use nabla operator in PAW spheres
   LVEL    =     F    velocity operator in full k-point grid
   LINTERFAST=   F  fast interpolation
   KINTER  =     0    interpolate to denser k-point grid
   CSHIFT  =0.1000    complex shift for real part using Kramers Kronig
   OMEGAMAX=  -1.0    maximum frequency
   DEG_THRESHOLD= 0.2000000E-02 threshold for treating states as degnerate
   RTIME   =   -0.100 relaxation time in fs
  (WPLASMAI=    0.000 imaginary part of plasma frequency in eV, 0.658/RTIME)
   DFIELD  = 0.0000000 0.0000000 0.0000000 field for delta impulse in time
 
 Orbital magnetization related:
   ORBITALMAG=     F  switch on orbital magnetization
   LCHIMAG   =     F  perturbation theory with respect to B field
   DQ        =  0.001000  dq finite difference perturbation B field
   LLRAUG    =     F  two centre corrections for induced B field



--------------------------------------------------------------------------------------------------------


 quasi-Newton-method for relaxation of ions
 charge density and potential will be updated during run
 spin polarized calculation
 Variant of blocked Davidson
 Davidson routine will perform the subspace rotation
 perform sub-space diagonalisation
    after iterative eigenvector-optimisation
 modified Broyden-mixing scheme, WC =      100.0
 initial mixing is a Kerker type mixing with AMIX =  0.4000 and BMIX =      1.0000
 Hartree-type preconditioning will be used
 using additional bands           69
 real space projection scheme for non local part
 use partial core corrections
 calculate Harris-corrections to forces 
   (improved forces if not selfconsistent)
 use gradient corrections 
 use of overlap-Matrix (Vanderbilt PP)
 Gauss-broadening in eV      SIGMA  =   0.05


--------------------------------------------------------------------------------------------------------


  energy-cutoff  :      500.00
  volume of cell :      528.88
      direct lattice vectors                 reciprocal lattice vectors
     0.003346575  5.529821691  0.005974522    -0.000112618  0.180837937 -0.000195958
    -3.544258014  0.008267956  9.666908224    -0.001142698 -0.000110621  0.103026829
     9.853670624  0.006254850  0.109296363     0.101074046 -0.000101206  0.037057695

  length of vectors
     5.529825931 10.296161801  9.854278745     0.180838078  0.103033225  0.107653360


 
 k-points in units of 2pi/SCALE and weight: Automatic mesh                          
   0.00000000  0.00000000  0.00000000       1.000
 
 k-points in reciprocal lattice and weights: Automatic mesh                          
   0.00000000  0.00000000  0.00000000       1.000
 
 position of ions in fractional coordinates (direct lattice) 
   0.98171005  0.25131666  0.22313356
   0.25032882  0.25037277  0.50058139
   0.20551282  0.75027402  0.50013894
   0.54394270  0.75052493  0.74993470
   0.19890782  0.74964532  0.99980971
   0.51910831  0.25003526  0.77505358
   0.54687890  0.74997174  0.25088296
   0.99923382  0.99740840  0.99798039
   0.25051922  0.99787549  0.25001131
   0.24832000  0.00041601  0.75064476
   0.75090997  0.99812032  0.74839781
   0.75060049  0.99962612  0.25083501
   0.49966173  0.00376085  0.00283375
   0.99962131  0.00103464  0.50047376
   0.50117782  0.99806134  0.50025587
   0.99960525  0.50224756  0.50168967
   0.24927278  0.49989672  0.75002145
   0.25134762  0.50157208  0.24974868
   0.75081019  0.50397918  0.25138755
   0.75069814  0.49782629  0.74981536
   0.50117641  0.49726709  0.49765471
   0.00023700  0.49768592  0.99964339
   0.50077604  0.50225457  0.00048967
   0.00371209  0.40216009  0.63367381
   0.00410699  0.59889224  0.36789884
   0.00446289  0.09944675  0.35941705
   0.00410707  0.90224958  0.63737170
   0.25454289  0.40054809  0.89006564
   0.24989670  0.60438128  0.10606549
   0.75075458  0.59982931  0.11245769
   0.74759415  0.40166941  0.88790626
   0.24251756  0.09865757  0.11175361
   0.25757274  0.89711959  0.89289749
   0.74322513  0.90242799  0.88674721
   0.75457789  0.09752019  0.11376655
   0.49724703  0.39667378  0.64299475
   0.49596708  0.60419169  0.35803631
   0.49769272  0.09574502  0.36647901
   0.49517130  0.89894218  0.63609744
   0.00060243  0.40398340  0.14191322
   0.00030898  0.59615399  0.86154888
   0.99838644  0.09447831  0.86413889
   0.00094107  0.90108460  0.13421791
   0.24491068  0.39727198  0.39199211
   0.25705175  0.60245081  0.60829886
   0.74359409  0.59658546  0.61370367
   0.75499797  0.40284735  0.38556188
   0.25284925  0.10325337  0.60685771
   0.25155326  0.89583692  0.39302864
   0.75111230  0.90094800  0.38809703
   0.74722774  0.09806828  0.61298408
   0.50274599  0.40743747  0.13557087
   0.49800211  0.60054266  0.86253091
   0.50136663  0.09921682  0.85627398
   0.49986313  0.89699950  0.14384768
 
 position of ions in cartesian coordinates  (Angst):
   1.31123889  5.43215507  2.45970802
   4.04601619  1.38947487  2.47653791
   2.26972744  1.14578078  7.30872130
   4.73137587  3.01880218  7.34047055
   7.19552480  1.11237647  7.35721645
   6.75267045  2.87749152  2.50487987
  -0.18414513  3.03191277  7.28059592
   6.30204135  5.54007360  9.75690104
  -1.07236072  1.39514079  9.67519284
   7.39596280  1.37786393  0.08754787
   3.83938255  4.16533177  9.73502102
  -1.06877538  4.16052067  9.69519379
   0.01626557  2.76308909  0.03965075
   4.93118186  5.53086655  0.07067399
   1.39364690  2.78280493  9.70583782
   3.16673508  5.53492935  4.91598609
   5.61953558  1.38725842  4.91591962
   0.68408152  1.39561664  4.87744957
   0.69337051  4.15758574  4.90388196
   5.62652104  4.16003285  4.89887821
   3.14295995  2.77864032  4.86442146
   8.08623019  0.01167803  4.92034292
  -1.77361885  2.77335789  4.85829425
   4.81866631  0.02781577  3.95692510
   1.50253912  0.02996369  5.82967086
   3.18912722  0.02774931  1.00065225
   3.08265924  0.03415779  8.79165083
   7.35161972  1.41645574  3.97086333
  -1.09611249  1.38754461  5.85558395
  -1.01531635  4.15720173  5.81527151
   7.32801769  4.14293705  3.98441277
   0.75232698  1.34259356  0.96737686
   5.61955646  1.43733361  8.77150206
   5.54176456  4.12291015  8.82504722
   0.77790665  4.17419907  0.95966124
   4.93160833  2.75698893  3.90785683
   1.38822042  2.74984441  5.88276085
   3.27348397  2.75523589  0.96858662
   3.08346876  2.74962010  8.76247310
  -0.03345326  0.00755909  3.92078465
   6.37649637  0.01202644  5.85713191
   8.18342566  5.52708519  1.01372527
  -1.87113409  0.01349359  8.72537728
   2.45534635  1.36004887  3.88469831
   3.85959574  1.43023620  5.89185730
   3.93526952  4.12071390  5.83865509
   2.37393148  4.18074651  3.94093962
   5.61466558  1.40286077  1.06597885
   0.69853942  1.40090975  8.70443280
   0.63350179  4.16339358  8.75628676
   5.69506459  4.13668111  1.01947832
  -0.10651034  2.78431233  3.95648170
   6.37228396  2.76422313  5.90263759
   8.08746961  2.77864425  1.05570295
  -1.76009718  2.77247008  8.68992031
 


--------------------------------------------------------------------------------------------------------


 use serial FFT for orbitals x direction half grid
 k-point  1 :   0.0000 0.0000 0.0000  plane waves:    6701

 maximum and minimum number of plane-waves per node :      6701     6701

 maximum number of plane-waves:      6701
 maximum index in each direction: 
   IXMAX=   10   IYMAX=   18   IZMAX=   17
   IXMIN=    0   IYMIN=  -18   IZMIN=  -17

 The following grids will avoid any aliasing or wrap around errors in the Hartre
 e energy
  - symmetry arguments have not been applied
  - exchange correlation energies might require even more grid points
  - we recommend to set PREC=Normal or Accurate and rely on VASP defaults
 WARNING: aliasing errors must be expected set NGX to    42 to avoid them
 NGY is ok and might be reduce to    80
 NGZ is ok and might be reduce to    70

 serial   3D FFT for wavefunctions
 parallel 3D FFT for charge:
    minimum data exchange during FFTs selected (reduces bandwidth)


 total amount of memory used by VASP MPI-rank0    88482. kBytes
=======================================================================

   base      :      30000. kBytes
   nonlr-proj:      20372. kBytes
   fftplans  :       4884. kBytes
   grid      :      28787. kBytes
   one-center:        855. kBytes
   wavefun   :       3584. kBytes
 
     INWAV:  cpu time    0.0000: real time    0.0000
 Broyden mixing: mesh for mixing (old mesh)
   NGX = 21   NGY = 37   NGZ = 35
  (NGX  = 80   NGY  =160   NGZ  =144)
  gives a total of  27195 points

 initial charge density was supplied:
 charge density of overlapping atoms calculated
 number of electron     373.0000000 magnetization      40.0000000
 keeping initial charge density in first step


--------------------------------------------------------------------------------------------------------


 Maximum index for non-local projection operator         5704
 Maximum index for augmentation-charges          989 (set IRDMAX)


--------------------------------------------------------------------------------------------------------


 First call to EWALD:  gamma=   0.219
 Maximum number of real-space cells 4x 2x 2
 Maximum number of reciprocal cells 2x 3x 3

    FEWALD:  cpu time    0.0032: real time    0.0032


--------------------------------------- Iteration      1(   1)  ---------------------------------------


    POTLOK:  cpu time    0.1383: real time    0.1441
    SETDIJ:  cpu time    0.0186: real time    0.0186
     EDDAV:  cpu time    1.4703: real time    1.4922
    --------------------------------------------
      LOOP:  cpu time    1.6277: real time    1.6555

 eigenvalue-minimisations  :  1024
 total energy-change (2. order) : 0.6483075E+04  (-0.1635591E+05)
 number of electron     373.0000000 magnetization      40.0000000
 augmentation part      373.0000000 magnetization      40.0000000

 Free energy of the ion-electron system (eV)
  ---------------------------------------------------
  alpha Z        PSCENC =      1136.03087578
  Ewald energy   TEWEN  =    -21077.04182294
  -Hartree energ DENC   =    -12004.65053015
  -exchange      EXHF   =         0.00000000
  -V(xc)+E(xc)   XCENC  =      1516.27672575
  PAW double counting   =     27022.10826369   -28244.36586763
  entropy T*S    EENTRO =        -0.00151037
  eigenvalues    EBANDS =      5713.92490179
  atomic energy  EATOM  =     32420.79373756
  Solvation  Ediel_sol  =         0.00000000
  ---------------------------------------------------
  free energy    TOTEN  =      6483.07477349 eV

  energy without entropy =     6483.07628386  energy(sigma->0) =     6483.07552868


--------------------------------------------------------------------------------------------------------




--------------------------------------- Iteration      1(   2)  ---------------------------------------


     EDDAV:  cpu time    1.6021: real time    1.6060
    --------------------------------------------
      LOOP:  cpu time    1.6019: real time    1.6057

 eigenvalue-minimisations  :  1056
 total energy-change (2. order) :-0.5230926E+04  (-0.4708784E+04)
 number of electron     373.0000000 magnetization      40.0000000
 augmentation part      373.0000000 magnetization      40.0000000

 Free energy of the ion-electron system (eV)
  ---------------------------------------------------
  alpha Z        PSCENC =      1136.03087578
  Ewald energy   TEWEN  =    -21077.04182294
  -Hartree energ DENC   =    -12004.65053015
  -exchange      EXHF   =         0.00000000
  -V(xc)+E(xc)   XCENC  =      1516.27672575
  PAW double counting   =     27022.10826369   -28244.36586763
  entropy T*S    EENTRO =        -0.00070304
  eigenvalues    EBANDS =       482.99838582
  atomic energy  EATOM  =     32420.79373756
  Solvation  Ediel_sol  =         0.00000000
  ---------------------------------------------------
  free energy    TOTEN  =      1252.14906485 eV

  energy without entropy =     1252.14976789  energy(sigma->0) =     1252.14941637


--------------------------------------------------------------------------------------------------------




--------------------------------------- Iteration      1(   3)  ---------------------------------------


     EDDAV:  cpu time    1.7123: real time    1.7164
    --------------------------------------------
      LOOP:  cpu time    1.7124: real time    1.7165

 eigenvalue-minimisations  :  1152
 total energy-change (2. order) :-0.1466948E+04  (-0.1203355E+04)
 number of electron     373.0000000 magnetization      40.0000000
 augmentation part      373.0000000 magnetization      40.0000000

 Free energy of the ion-electron system (eV)
  ---------------------------------------------------
  alpha Z        PSCENC =      1136.03087578
  Ewald energy   TEWEN  =    -21077.04182294
  -Hartree energ DENC   =    -12004.65053015
  -exchange      EXHF   =         0.00000000
  -V(xc)+E(xc)   XCENC  =      1516.27672575
  PAW double counting   =     27022.10826369   -28244.36586763
  entropy T*S    EENTRO =        -0.09026816
  eigenvalues    EBANDS =      -983.86036980
  atomic energy  EATOM  =     32420.79373756
  Solvation  Ediel_sol  =         0.00000000
  ---------------------------------------------------
  free energy    TOTEN  =      -214.79925589 eV

  energy without entropy =     -214.70898773  energy(sigma->0) =     -214.75412181


--------------------------------------------------------------------------------------------------------




--------------------------------------- Iteration      1(   4)  ---------------------------------------


     EDDAV:  cpu time    1.8286: real time    1.8329
    --------------------------------------------
      LOOP:  cpu time    1.8286: real time    1.8329

 eigenvalue-minimisations  :  1248
 total energy-change (2. order) :-0.2228670E+03  (-0.2163068E+03)
 number of electron     373.0000000 magnetization      40.0000000
 augmentation part      373.0000000 magnetization      40.0000000

 Free energy of the ion-electron system (eV)
  ---------------------------------------------------
  alpha Z        PSCENC =      1136.03087578
  Ewald energy   TEWEN  =    -21077.04182294
  -Hartree energ DENC   =    -12004.65053015
  -exchange      EXHF   =         0.00000000
  -V(xc)+E(xc)   XCENC  =      1516.27672575
  PAW double counting   =     27022.10826369   -28244.36586763
  entropy T*S    EENTRO =        -0.21182265
  eigenvalues    EBANDS =     -1206.60579871
  atomic energy  EATOM  =     32420.79373756
  Solvation  Ediel_sol  =         0.00000000
  ---------------------------------------------------
  free energy    TOTEN  =      -437.66623929 eV

  energy without entropy =     -437.45441665  energy(sigma->0) =     -437.56032797


--------------------------------------------------------------------------------------------------------




--------------------------------------- Iteration      1(   5)  ---------------------------------------


     EDDAV:  cpu time    2.1177: real time    2.1228
    CHARGE:  cpu time    0.1007: real time    0.1009
    MIXING:  cpu time    0.0035: real time    0.0085
    --------------------------------------------
      LOOP:  cpu time    2.2216: real time    2.2319

 eigenvalue-minimisations  :  1504
 total energy-change (2. order) :-0.9568374E+01  (-0.9468793E+01)
 number of electron     373.0000085 magnetization      37.5549447
 augmentation part      110.7193110 magnetization      29.4839709

 Broyden mixing:
  rms(total) = 0.11531E+02    rms(broyden)= 0.11530E+02
  rms(prec ) = 0.13940E+02
  weight for this iteration     100.00

 Free energy of the ion-electron system (eV)
  ---------------------------------------------------
  alpha Z        PSCENC =      1136.03087578
  Ewald energy   TEWEN  =    -21077.04182294
  -Hartree energ DENC   =    -12004.65053015
  -exchange      EXHF   =         0.00000000
  -V(xc)+E(xc)   XCENC  =      1516.27672575
  PAW double counting   =     27022.10826369   -28244.36586763
  entropy T*S    EENTRO =        -0.21892951
  eigenvalues    EBANDS =     -1216.16706540
  atomic energy  EATOM  =     32420.79373756
  Solvation  Ediel_sol  =         0.00000000
  ---------------------------------------------------
  free energy    TOTEN  =      -447.23461284 eV

  energy without entropy =     -447.01568333  energy(sigma->0) =     -447.12514809


--------------------------------------------------------------------------------------------------------




--------------------------------------- Iteration      1(   6)  ---------------------------------------


    POTLOK:  cpu time    0.1226: real time    0.1229
    SETDIJ:  cpu time    0.0193: real time    0.0194
     EDDAV:  cpu time    2.1733: real time    2.1785
    CHARGE:  cpu time    0.0939: real time    0.0941
    MIXING:  cpu time    0.0030: real time    0.0031
    --------------------------------------------
      LOOP:  cpu time    2.4122: real time    2.4180

 eigenvalue-minimisations  :  1552
 total energy-change (2. order) :-0.4933755E+02  (-0.9876913E+02)
 number of electron     373.0000134 magnetization      32.8639956
 augmentation part      141.6310644 magnetization      29.6914632

 Broyden mixing:
  rms(total) = 0.19402E+02    rms(broyden)= 0.19401E+02
  rms(prec ) = 0.21363E+02
  weight for this iteration     100.00

 eigenvalues of (default mixing * dielectric matrix)
  average eigenvalue GAMMA=   0.2146
  0.2146

 Free energy of the ion-electron system (eV)
  ---------------------------------------------------
  alpha Z        PSCENC =      1136.03087578
  Ewald energy   TEWEN  =    -21077.04182294
  -Hartree energ DENC   =    -11479.79406383
  -exchange      EXHF   =         0.00000000
  -V(xc)+E(xc)   XCENC  =      1518.99709424
  PAW double counting   =     29941.95799100   -30992.61410115
  entropy T*S    EENTRO =        -0.03415643
  eigenvalues    EBANDS =     -1964.86771820
  atomic energy  EATOM  =     32420.79373756
  Solvation  Ediel_sol  =         0.00000000
  ---------------------------------------------------
  free energy    TOTEN  =      -496.57216397 eV

  energy without entropy =     -496.53800753  energy(sigma->0) =     -496.55508575


--------------------------------------------------------------------------------------------------------




--------------------------------------- Iteration      1(   7)  ---------------------------------------


    POTLOK:  cpu time    0.1222: real time    0.1225
    SETDIJ:  cpu time    0.0193: real time    0.0194
     EDDAV:  cpu time    1.9897: real time    1.9945
    CHARGE:  cpu time    0.0927: real time    0.0929
    MIXING:  cpu time    0.0029: real time    0.0030
    --------------------------------------------
      LOOP:  cpu time    2.2269: real time    2.2322

 eigenvalue-minimisations  :  1424
 total energy-change (2. order) : 0.1363272E+03  (-0.3045201E+02)
 number of electron     373.0000125 magnetization      23.9675662
 augmentation part      130.3865317 magnetization      22.8080406

 Broyden mixing:
  rms(total) = 0.65448E+01    rms(broyden)= 0.65440E+01
  rms(prec ) = 0.77143E+01
  weight for this iteration     100.00

 eigenvalues of (default mixing * dielectric matrix)
  average eigenvalue GAMMA=   0.5525
  0.5525  0.5525

 Free energy of the ion-electron system (eV)
  ---------------------------------------------------
  alpha Z        PSCENC =      1136.03087578
  Ewald energy   TEWEN  =    -21077.04182294
  -Hartree energ DENC   =    -11681.43374979
  -exchange      EXHF   =         0.00000000
  -V(xc)+E(xc)   XCENC  =      1513.31572269
  PAW double counting   =     31176.52776280   -32346.84086945
  entropy T*S    EENTRO =        -0.03872611
  eigenvalues    EBANDS =     -1501.55792066
  atomic energy  EATOM  =     32420.79373756
  Solvation  Ediel_sol  =         0.00000000
  ---------------------------------------------------
  free energy    TOTEN  =      -360.24499012 eV

  energy without entropy =     -360.20626401  energy(sigma->0) =     -360.22562706


--------------------------------------------------------------------------------------------------------




--------------------------------------- Iteration      1(   8)  ---------------------------------------


    POTLOK:  cpu time    0.1196: real time    0.1199
    SETDIJ:  cpu time    0.0194: real time    0.0194
     EDDAV:  cpu time    2.0076: real time    2.0124
    CHARGE:  cpu time    0.0879: real time    0.0881
    MIXING:  cpu time    0.0029: real time    0.0029
    --------------------------------------------
      LOOP:  cpu time    2.2374: real time    2.2427

 eigenvalue-minimisations  :  1520
 total energy-change (2. order) : 0.6524882E+01  (-0.1237478E+02)
 number of electron     373.0000114 magnetization      20.6837662
 augmentation part      121.2701810 magnetization      18.1244954

 Broyden mixing:
  rms(total) = 0.76666E+01    rms(broyden)= 0.76654E+01
  rms(prec ) = 0.10245E+02
  weight for this iteration     100.00

 eigenvalues of (default mixing * dielectric matrix)
  average eigenvalue GAMMA=   0.4957
  0.6186  0.6186  0.2500

 Free energy of the ion-electron system (eV)
  ---------------------------------------------------
  alpha Z        PSCENC =      1136.03087578
  Ewald energy   TEWEN  =    -21077.04182294
  -Hartree energ DENC   =    -11743.64470924
  -exchange      EXHF   =         0.00000000
  -V(xc)+E(xc)   XCENC  =      1506.80961709
  PAW double counting   =     32463.62875148   -33707.18740151
  entropy T*S    EENTRO =        -0.02663589
  eigenvalues    EBANDS =     -1353.08252001
  atomic energy  EATOM  =     32420.79373756
  Solvation  Ediel_sol  =         0.00000000
  ---------------------------------------------------
  free energy    TOTEN  =      -353.72010768 eV

  energy without entropy =     -353.69347178  energy(sigma->0) =     -353.70678973


--------------------------------------------------------------------------------------------------------




--------------------------------------- Iteration      1(   9)  ---------------------------------------


    POTLOK:  cpu time    0.1195: real time    0.1198
    SETDIJ:  cpu time    0.0192: real time    0.0192
     EDDAV:  cpu time    1.8900: real time    1.8945
    CHARGE:  cpu time    0.0964: real time    0.0966
    MIXING:  cpu time    0.0035: real time    0.0035
    --------------------------------------------
      LOOP:  cpu time    2.1287: real time    2.1337

 eigenvalue-minimisations  :  1312
 total energy-change (2. order) :-0.1353207E+01  (-0.1949087E+02)
 number of electron     373.0000122 magnetization      16.9560530
 augmentation part      121.1211065 magnetization      14.7546488

 Broyden mixing:
  rms(total) = 0.69114E+01    rms(broyden)= 0.69105E+01
  rms(prec ) = 0.89875E+01
  weight for this iteration     100.00

 eigenvalues of (default mixing * dielectric matrix)
  average eigenvalue GAMMA=   0.4681
  0.8600  0.4428  0.4428  0.1269

 Free energy of the ion-electron system (eV)
  ---------------------------------------------------
  alpha Z        PSCENC =      1136.03087578
  Ewald energy   TEWEN  =    -21077.04182294
  -Hartree energ DENC   =    -11721.40802115
  -exchange      EXHF   =         0.00000000
  -V(xc)+E(xc)   XCENC  =      1505.08859324
  PAW double counting   =     33046.27233620   -34299.19898936
  entropy T*S    EENTRO =        -0.03286629
  eigenvalues    EBANDS =     -1365.57715784
  atomic energy  EATOM  =     32420.79373756
  Solvation  Ediel_sol  =         0.00000000
  ---------------------------------------------------
  free energy    TOTEN  =      -355.07331479 eV

  energy without entropy =     -355.04044851  energy(sigma->0) =     -355.05688165


--------------------------------------------------------------------------------------------------------




--------------------------------------- Iteration      1(  10)  ---------------------------------------


    POTLOK:  cpu time    0.1229: real time    0.1231
    SETDIJ:  cpu time    0.0198: real time    0.0199
     EDDAV:  cpu time    2.0599: real time    2.0648
    CHARGE:  cpu time    0.0963: real time    0.0965
    MIXING:  cpu time    0.0036: real time    0.0036
    --------------------------------------------
      LOOP:  cpu time    2.3024: real time    2.3079

 eigenvalue-minimisations  :  1456
 total energy-change (2. order) : 0.1163006E+02  (-0.1023526E+02)
 number of electron     373.0000118 magnetization      13.9775777
 augmentation part      122.4021171 magnetization      12.0995068

 Broyden mixing:
  rms(total) = 0.34672E+01    rms(broyden)= 0.34664E+01
  rms(prec ) = 0.43409E+01
  weight for this iteration     100.00

 eigenvalues of (default mixing * dielectric matrix)
  average eigenvalue GAMMA=   0.5033
  1.1847  0.4315  0.4315  0.3348  0.1339

 Free energy of the ion-electron system (eV)
  ---------------------------------------------------
  alpha Z        PSCENC =      1136.03087578
  Ewald energy   TEWEN  =    -21077.04182294
  -Hartree energ DENC   =    -11701.41587675
  -exchange      EXHF   =         0.00000000
  -V(xc)+E(xc)   XCENC  =      1504.05198825
  PAW double counting   =     33753.77966552   -35016.02960583
  entropy T*S    EENTRO =        -0.02105117
  eigenvalues    EBANDS =     -1363.59116447
  atomic energy  EATOM  =     32420.79373756
  Solvation  Ediel_sol  =         0.00000000
  ---------------------------------------------------
  free energy    TOTEN  =      -343.44325404 eV

  energy without entropy =     -343.42220287  energy(sigma->0) =     -343.43272846


--------------------------------------------------------------------------------------------------------




--------------------------------------- Iteration      1(  11)  ---------------------------------------


    POTLOK:  cpu time    0.1223: real time    0.1225
    SETDIJ:  cpu time    0.0197: real time    0.0197
     EDDAV:  cpu time    1.9446: real time    1.9492
    CHARGE:  cpu time    0.0937: real time    0.0939
    MIXING:  cpu time    0.0036: real time    0.0036
    --------------------------------------------
      LOOP:  cpu time    2.1838: real time    2.1889

 eigenvalue-minimisations  :  1344
 total energy-change (2. order) : 0.9326254E+00  (-0.4695211E+01)
 number of electron     373.0000118 magnetization       9.2053186
 augmentation part      122.6958643 magnetization       7.9206888

 Broyden mixing:
  rms(total) = 0.32139E+01    rms(broyden)= 0.32127E+01
  rms(prec ) = 0.40753E+01
  weight for this iteration     100.00

 eigenvalues of (default mixing * dielectric matrix)
  average eigenvalue GAMMA=   0.5376
  1.5286  0.4882  0.4467  0.4467  0.1833  0.1323

 Free energy of the ion-electron system (eV)
  ---------------------------------------------------
  alpha Z        PSCENC =      1136.03087578
  Ewald energy   TEWEN  =    -21077.04182294
  -Hartree energ DENC   =    -11699.71771669
  -exchange      EXHF   =         0.00000000
  -V(xc)+E(xc)   XCENC  =      1503.70649711
  PAW double counting   =     34252.06176543   -35520.88241078
  entropy T*S    EENTRO =        -0.01040778
  eigenvalues    EBANDS =     -1357.45114630
  atomic energy  EATOM  =     32420.79373756
  Solvation  Ediel_sol  =         0.00000000
  ---------------------------------------------------
  free energy    TOTEN  =      -342.51062860 eV

  energy without entropy =     -342.50022082  energy(sigma->0) =     -342.50542471


--------------------------------------------------------------------------------------------------------




--------------------------------------- Iteration      1(  12)  ---------------------------------------


    POTLOK:  cpu time    0.1225: real time    0.1228
    SETDIJ:  cpu time    0.0201: real time    0.0201
     EDDAV:  cpu time    2.0482: real time    2.0530
    CHARGE:  cpu time    0.0963: real time    0.0966
    MIXING:  cpu time    0.0038: real time    0.0038
    --------------------------------------------
      LOOP:  cpu time    2.2908: real time    2.2963

 eigenvalue-minimisations  :  1440
 total energy-change (2. order) : 0.1375219E+01  (-0.2850785E+01)
 number of electron     373.0000121 magnetization       7.4130159
 augmentation part      123.2809759 magnetization       6.0073362

 Broyden mixing:
  rms(total) = 0.20193E+01    rms(broyden)= 0.20183E+01
  rms(prec ) = 0.25841E+01
  weight for this iteration     100.00

 eigenvalues of (default mixing * dielectric matrix)
  average eigenvalue GAMMA=   0.5409
  1.6203  0.5001  0.5001  0.4355  0.4355  0.1632  0.1313

 Free energy of the ion-electron system (eV)
  ---------------------------------------------------
  alpha Z        PSCENC =      1136.03087578
  Ewald energy   TEWEN  =    -21077.04182294
  -Hartree energ DENC   =    -11700.06436688
  -exchange      EXHF   =         0.00000000
  -V(xc)+E(xc)   XCENC  =      1503.70553902
  PAW double counting   =     34949.90757479   -36224.72249451
  entropy T*S    EENTRO =        -0.01774546
  eigenvalues    EBANDS =     -1349.72670675
  atomic energy  EATOM  =     32420.79373756
  Solvation  Ediel_sol  =         0.00000000
  ---------------------------------------------------
  free energy    TOTEN  =      -341.13540939 eV

  energy without entropy =     -341.11766393  energy(sigma->0) =     -341.12653666


--------------------------------------------------------------------------------------------------------




--------------------------------------- Iteration      1(  13)  ---------------------------------------


    POTLOK:  cpu time    0.1223: real time    0.1226
    SETDIJ:  cpu time    0.0198: real time    0.0199
     EDDAV:  cpu time    1.9098: real time    1.9144
    CHARGE:  cpu time    0.0939: real time    0.0941
    MIXING:  cpu time    0.0040: real time    0.0040
    --------------------------------------------
      LOOP:  cpu time    2.1499: real time    2.1550

 eigenvalue-minimisations  :  1312
 total energy-change (2. order) : 0.7137902E-01  (-0.1148722E+01)
 number of electron     373.0000118 magnetization       5.0423263
 augmentation part      123.3765647 magnetization       4.2264877

 Broyden mixing:
  rms(total) = 0.20022E+01    rms(broyden)= 0.20010E+01
  rms(prec ) = 0.26074E+01
  weight for this iteration     100.00

 eigenvalues of (default mixing * dielectric matrix)
  average eigenvalue GAMMA=   0.5475
  1.7894  0.6259  0.6259  0.4365  0.4365  0.1944  0.1395  0.1323

 Free energy of the ion-electron system (eV)
  ---------------------------------------------------
  alpha Z        PSCENC =      1136.03087578
  Ewald energy   TEWEN  =    -21077.04182294
  -Hartree energ DENC   =    -11701.16921133
  -exchange      EXHF   =         0.00000000
  -V(xc)+E(xc)   XCENC  =      1503.70681307
  PAW double counting   =     35222.59533799   -36500.13320387
  entropy T*S    EENTRO =        -0.02342767
  eigenvalues    EBANDS =     -1345.82312896
  atomic energy  EATOM  =     32420.79373756
  Solvation  Ediel_sol  =         0.00000000
  ---------------------------------------------------
  free energy    TOTEN  =      -341.06403037 eV

  energy without entropy =     -341.04060270  energy(sigma->0) =     -341.05231654


--------------------------------------------------------------------------------------------------------




--------------------------------------- Iteration      1(  14)  ---------------------------------------


    POTLOK:  cpu time    0.1222: real time    0.1225
    SETDIJ:  cpu time    0.0193: real time    0.0194
     EDDAV:  cpu time    1.7499: real time    1.7541
    CHARGE:  cpu time    0.0926: real time    0.0928
    MIXING:  cpu time    0.0041: real time    0.0041
    --------------------------------------------
      LOOP:  cpu time    1.9882: real time    1.9929

 eigenvalue-minimisations  :  1232
 total energy-change (2. order) : 0.6195185E-01  (-0.1999325E+01)
 number of electron     373.0000122 magnetization       4.0915800
 augmentation part      123.4558970 magnetization       3.4257016

 Broyden mixing:
  rms(total) = 0.16856E+01    rms(broyden)= 0.16846E+01
  rms(prec ) = 0.21620E+01
  weight for this iteration     100.00

 eigenvalues of (default mixing * dielectric matrix)
  average eigenvalue GAMMA=   0.5338
  1.8767  0.6551  0.6551  0.4483  0.4483  0.2931  0.1630  0.1322  0.1322

 Free energy of the ion-electron system (eV)
  ---------------------------------------------------
  alpha Z        PSCENC =      1136.03087578
  Ewald energy   TEWEN  =    -21077.04182294
  -Hartree energ DENC   =    -11703.97645241
  -exchange      EXHF   =         0.00000000
  -V(xc)+E(xc)   XCENC  =      1503.72624241
  PAW double counting   =     35570.79019432   -36852.48732896
  entropy T*S    EENTRO =        -0.01576939
  eigenvalues    EBANDS =     -1338.82175490
  atomic energy  EATOM  =     32420.79373756
  Solvation  Ediel_sol  =         0.00000000
  ---------------------------------------------------
  free energy    TOTEN  =      -341.00207853 eV

  energy without entropy =     -340.98630914  energy(sigma->0) =     -340.99419383


--------------------------------------------------------------------------------------------------------




--------------------------------------- Iteration      1(  15)  ---------------------------------------


    POTLOK:  cpu time    0.1194: real time    0.1197
    SETDIJ:  cpu time    0.0195: real time    0.0196
     EDDAV:  cpu time    1.7503: real time    1.7544
    CHARGE:  cpu time    0.0950: real time    0.0952
    MIXING:  cpu time    0.0045: real time    0.0045
    --------------------------------------------
      LOOP:  cpu time    1.9886: real time    1.9934

 eigenvalue-minimisations  :  1296
 total energy-change (2. order) : 0.5991075E+00  (-0.9841307E+00)
 number of electron     373.0000122 magnetization       3.3583126
 augmentation part      123.5166750 magnetization       2.6983470

 Broyden mixing:
  rms(total) = 0.10637E+01    rms(broyden)= 0.10629E+01
  rms(prec ) = 0.13359E+01
  weight for this iteration     100.00

 eigenvalues of (default mixing * dielectric matrix)
  average eigenvalue GAMMA=   0.5405
  1.9409  0.7607  0.7607  0.4660  0.4660  0.4222  0.1818  0.1576  0.1335  0.1156

 Free energy of the ion-electron system (eV)
  ---------------------------------------------------
  alpha Z        PSCENC =      1136.03087578
  Ewald energy   TEWEN  =    -21077.04182294
  -Hartree energ DENC   =    -11704.86597655
  -exchange      EXHF   =         0.00000000
  -V(xc)+E(xc)   XCENC  =      1503.72790478
  PAW double counting   =     35696.40466062   -36979.08595005
  entropy T*S    EENTRO =        -0.03928157
  eigenvalues    EBANDS =     -1336.32711865
  atomic energy  EATOM  =     32420.79373756
  Solvation  Ediel_sol  =         0.00000000
  ---------------------------------------------------
  free energy    TOTEN  =      -340.40297103 eV

  energy without entropy =     -340.36368945  energy(sigma->0) =     -340.38333024


--------------------------------------------------------------------------------------------------------




--------------------------------------- Iteration      1(  16)  ---------------------------------------


    POTLOK:  cpu time    0.1225: real time    0.1228
    SETDIJ:  cpu time    0.0201: real time    0.0202
     EDDAV:  cpu time    1.8908: real time    1.8953
    CHARGE:  cpu time    0.0969: real time    0.0971
    MIXING:  cpu time    0.0047: real time    0.0047
    --------------------------------------------
      LOOP:  cpu time    2.1351: real time    2.1401

 eigenvalue-minimisations  :  1312
 total energy-change (2. order) :-0.3047991E-01  (-0.5084109E+00)
 number of electron     373.0000122 magnetization       2.8678008
 augmentation part      123.3904696 magnetization       2.3131289

 Broyden mixing:
  rms(total) = 0.12302E+01    rms(broyden)= 0.12296E+01
  rms(prec ) = 0.15811E+01
  weight for this iteration     100.00

 eigenvalues of (default mixing * dielectric matrix)
  average eigenvalue GAMMA=   0.5222
  1.9889  0.8105  0.8105  0.4740  0.4740  0.4180  0.2286  0.1725  0.1326  0.1326
  0.1018

 Free energy of the ion-electron system (eV)
  ---------------------------------------------------
  alpha Z        PSCENC =      1136.03087578
  Ewald energy   TEWEN  =    -21077.04182294
  -Hartree energ DENC   =    -11707.27772582
  -exchange      EXHF   =         0.00000000
  -V(xc)+E(xc)   XCENC  =      1503.70732347
  PAW double counting   =     35780.55938783   -37063.82611325
  entropy T*S    EENTRO =        -0.02134353
  eigenvalues    EBANDS =     -1333.35777003
  atomic energy  EATOM  =     32420.79373756
  Solvation  Ediel_sol  =         0.00000000
  ---------------------------------------------------
  free energy    TOTEN  =      -340.43345093 eV

  energy without entropy =     -340.41210740  energy(sigma->0) =     -340.42277917


--------------------------------------------------------------------------------------------------------




--------------------------------------- Iteration      1(  17)  ---------------------------------------


    POTLOK:  cpu time    0.1229: real time    0.1231
    SETDIJ:  cpu time    0.0198: real time    0.0198
     EDDAV:  cpu time    1.8741: real time    1.8786
    CHARGE:  cpu time    0.0942: real time    0.0945
    MIXING:  cpu time    0.0049: real time    0.0049
    --------------------------------------------
      LOOP:  cpu time    2.1159: real time    2.1209

 eigenvalue-minimisations  :  1296
 total energy-change (2. order) : 0.1837110E+00  (-0.5450281E+00)
 number of electron     373.0000121 magnetization       2.7324066
 augmentation part      123.3522594 magnetization       2.0904037

 Broyden mixing:
  rms(total) = 0.79435E+00    rms(broyden)= 0.79363E+00
  rms(prec ) = 0.99273E+00
  weight for this iteration     100.00

 eigenvalues of (default mixing * dielectric matrix)
  average eigenvalue GAMMA=   0.5253
  1.9469  0.9375  0.9375  0.4870  0.4870  0.4112  0.4112  0.1864  0.1541  0.1288
  0.1238  0.0922

 Free energy of the ion-electron system (eV)
  ---------------------------------------------------
  alpha Z        PSCENC =      1136.03087578
  Ewald energy   TEWEN  =    -21077.04182294
  -Hartree energ DENC   =    -11708.84035910
  -exchange      EXHF   =         0.00000000
  -V(xc)+E(xc)   XCENC  =      1503.69590516
  PAW double counting   =     35840.96986567   -37124.85935086
  entropy T*S    EENTRO =        -0.03261246
  eigenvalues    EBANDS =     -1330.96597872
  atomic energy  EATOM  =     32420.79373756
  Solvation  Ediel_sol  =         0.00000000
  ---------------------------------------------------
  free energy    TOTEN  =      -340.24973991 eV

  energy without entropy =     -340.21712745  energy(sigma->0) =     -340.23343368


--------------------------------------------------------------------------------------------------------




--------------------------------------- Iteration      1(  18)  ---------------------------------------


    POTLOK:  cpu time    0.1227: real time    0.1230
    SETDIJ:  cpu time    0.0194: real time    0.0195
     EDDAV:  cpu time    1.9107: real time    1.9153
    CHARGE:  cpu time    0.0976: real time    0.0978
    MIXING:  cpu time    0.0054: real time    0.0054
    --------------------------------------------
      LOOP:  cpu time    2.1558: real time    2.1610

 eigenvalue-minimisations  :  1312
 total energy-change (2. order) :-0.1314633E-01  (-0.3012896E+00)
 number of electron     373.0000123 magnetization       2.5447917
 augmentation part      123.3759052 magnetization       1.8698925

 Broyden mixing:
  rms(total) = 0.82384E+00    rms(broyden)= 0.82340E+00
  rms(prec ) = 0.10528E+01
  weight for this iteration     100.00

 eigenvalues of (default mixing * dielectric matrix)
  average eigenvalue GAMMA=   0.5042
  1.9485  0.9822  0.9822  0.5077  0.5077  0.4183  0.4183  0.1897  0.1559  0.1291
  0.1164  0.1164  0.0821

 Free energy of the ion-electron system (eV)
  ---------------------------------------------------
  alpha Z        PSCENC =      1136.03087578
  Ewald energy   TEWEN  =    -21077.04182294
  -Hartree energ DENC   =    -11708.34476965
  -exchange      EXHF   =         0.00000000
  -V(xc)+E(xc)   XCENC  =      1503.63785066
  PAW double counting   =     35851.57487279   -37134.57710623
  entropy T*S    EENTRO =        -0.03446779
  eigenvalues    EBANDS =     -1332.30205642
  atomic energy  EATOM  =     32420.79373756
  Solvation  Ediel_sol  =         0.00000000
  ---------------------------------------------------
  free energy    TOTEN  =      -340.26288624 eV

  energy without entropy =     -340.22841845  energy(sigma->0) =     -340.24565235


--------------------------------------------------------------------------------------------------------




--------------------------------------- Iteration      1(  19)  ---------------------------------------


    POTLOK:  cpu time    0.1266: real time    0.1269
    SETDIJ:  cpu time    0.0197: real time    0.0198
     EDDAV:  cpu time    1.9029: real time    1.9074
    CHARGE:  cpu time    0.0963: real time    0.0965
    MIXING:  cpu time    0.0053: real time    0.0053
    --------------------------------------------
      LOOP:  cpu time    2.1507: real time    2.1559

 eigenvalue-minimisations  :  1312
 total energy-change (2. order) : 0.5780442E-01  (-0.1919237E+00)
 number of electron     373.0000122 magnetization       2.4498747
 augmentation part      123.3441131 magnetization       1.7247024

 Broyden mixing:
  rms(total) = 0.47496E+00    rms(broyden)= 0.47444E+00
  rms(prec ) = 0.60107E+00
  weight for this iteration     100.00

 eigenvalues of (default mixing * dielectric matrix)
  average eigenvalue GAMMA=   0.4972
  1.9434  1.0242  1.0242  0.5251  0.5251  0.4174  0.4174  0.2629  0.1778  0.1636
  0.1446  0.1303  0.1218  0.0826

 Free energy of the ion-electron system (eV)
  ---------------------------------------------------
  alpha Z        PSCENC =      1136.03087578
  Ewald energy   TEWEN  =    -21077.04182294
  -Hartree energ DENC   =    -11709.59448026
  -exchange      EXHF   =         0.00000000
  -V(xc)+E(xc)   XCENC  =      1503.64713029
  PAW double counting   =     35878.32703247   -37161.18677561
  entropy T*S    EENTRO =        -0.03719570
  eigenvalues    EBANDS =     -1331.14358341
  atomic energy  EATOM  =     32420.79373756
  Solvation  Ediel_sol  =         0.00000000
  ---------------------------------------------------
  free energy    TOTEN  =      -340.20508182 eV

  energy without entropy =     -340.16788612  energy(sigma->0) =     -340.18648397


--------------------------------------------------------------------------------------------------------




--------------------------------------- Iteration      1(  20)  ---------------------------------------


    POTLOK:  cpu time    0.1230: real time    0.1233
    SETDIJ:  cpu time    0.0197: real time    0.0197
     EDDAV:  cpu time    1.9036: real time    1.9081
    CHARGE:  cpu time    0.0963: real time    0.0965
    MIXING:  cpu time    0.0056: real time    0.0056
    --------------------------------------------
      LOOP:  cpu time    2.1482: real time    2.1532

 eigenvalue-minimisations  :  1312
 total energy-change (2. order) : 0.2034230E-01  (-0.1193936E+00)
 number of electron     373.0000122 magnetization       2.4206954
 augmentation part      123.3231919 magnetization       1.7192612

 Broyden mixing:
  rms(total) = 0.47452E+00    rms(broyden)= 0.47420E+00
  rms(prec ) = 0.58334E+00
  weight for this iteration     100.00

 eigenvalues of (default mixing * dielectric matrix)
  average eigenvalue GAMMA=   0.5151
  1.9002  1.1624  1.1624  0.6196  0.6196  0.4500  0.4500  0.4038  0.1897  0.1857
  0.1517  0.1306  0.1212  0.1010  0.0782

 Free energy of the ion-electron system (eV)
  ---------------------------------------------------
  alpha Z        PSCENC =      1136.03087578
  Ewald energy   TEWEN  =    -21077.04182294
  -Hartree energ DENC   =    -11710.55213510
  -exchange      EXHF   =         0.00000000
  -V(xc)+E(xc)   XCENC  =      1503.67015880
  PAW double counting   =     35897.81613256   -37180.50849854
  entropy T*S    EENTRO =        -0.04075777
  eigenvalues    EBANDS =     -1330.35242988
  atomic energy  EATOM  =     32420.79373756
  Solvation  Ediel_sol  =         0.00000000
  ---------------------------------------------------
  free energy    TOTEN  =      -340.18473953 eV

  energy without entropy =     -340.14398176  energy(sigma->0) =     -340.16436065


--------------------------------------------------------------------------------------------------------




--------------------------------------- Iteration      1(  21)  ---------------------------------------


    POTLOK:  cpu time    0.1224: real time    0.1226
    SETDIJ:  cpu time    0.0198: real time    0.0199
     EDDAV:  cpu time    1.8780: real time    1.8825
    CHARGE:  cpu time    0.0932: real time    0.0935
    MIXING:  cpu time    0.0059: real time    0.0059
    --------------------------------------------
      LOOP:  cpu time    2.1193: real time    2.1243

 eigenvalue-minimisations  :  1344
 total energy-change (2. order) :-0.1523681E-01  (-0.6563644E-01)
 number of electron     373.0000122 magnetization       2.4174450
 augmentation part      123.3440159 magnetization       1.5981407

 Broyden mixing:
  rms(total) = 0.45076E+00    rms(broyden)= 0.45047E+00
  rms(prec ) = 0.52770E+00
  weight for this iteration     100.00

 eigenvalues of (default mixing * dielectric matrix)
  average eigenvalue GAMMA=   0.4851
  1.9000  1.1636  1.1636  0.6217  0.6217  0.4507  0.4507  0.4030  0.1898  0.1898
  0.1515  0.1306  0.1212  0.1006  0.0780  0.0258

 Free energy of the ion-electron system (eV)
  ---------------------------------------------------
  alpha Z        PSCENC =      1136.03087578
  Ewald energy   TEWEN  =    -21077.04182294
  -Hartree energ DENC   =    -11711.03805183
  -exchange      EXHF   =         0.00000000
  -V(xc)+E(xc)   XCENC  =      1503.70125816
  PAW double counting   =     35914.47127549   -37196.72705203
  entropy T*S    EENTRO =        -0.02966147
  eigenvalues    EBANDS =     -1330.36053506
  atomic energy  EATOM  =     32420.79373756
  Solvation  Ediel_sol  =         0.00000000
  ---------------------------------------------------
  free energy    TOTEN  =      -340.19997634 eV

  energy without entropy =     -340.17031487  energy(sigma->0) =     -340.18514560


--------------------------------------------------------------------------------------------------------




--------------------------------------- Iteration      1(  22)  ---------------------------------------


    POTLOK:  cpu time    0.1195: real time    0.1198
    SETDIJ:  cpu time    0.0191: real time    0.0192
     EDDAV:  cpu time    1.9100: real time    1.9146
    CHARGE:  cpu time    0.0966: real time    0.0968
    MIXING:  cpu time    0.0061: real time    0.0061
    --------------------------------------------
      LOOP:  cpu time    2.1513: real time    2.1564

 eigenvalue-minimisations  :  1440
 total energy-change (2. order) : 0.1057964E-01  (-0.1638135E-01)
 number of electron     373.0000121 magnetization       2.3182097
 augmentation part      123.3437212 magnetization       1.4410186

 Broyden mixing:
  rms(total) = 0.36685E+00    rms(broyden)= 0.36678E+00
  rms(prec ) = 0.38692E+00
  weight for this iteration     100.00

 eigenvalues of (default mixing * dielectric matrix)
  average eigenvalue GAMMA=   0.5043
  1.8841  1.1952  1.1952  0.5018  0.6618  0.6618  0.4514  0.4514  0.4415  0.2225
  0.1921  0.1493  0.1323  0.1271  0.1271  0.0994  0.0783

 Free energy of the ion-electron system (eV)
  ---------------------------------------------------
  alpha Z        PSCENC =      1136.03087578
  Ewald energy   TEWEN  =    -21077.04182294
  -Hartree energ DENC   =    -11711.65945878
  -exchange      EXHF   =         0.00000000
  -V(xc)+E(xc)   XCENC  =      1503.73834330
  PAW double counting   =     35927.39601426   -37209.48599564
  entropy T*S    EENTRO =        -0.02872831
  eigenvalues    EBANDS =     -1329.93236193
  atomic energy  EATOM  =     32420.79373756
  Solvation  Ediel_sol  =         0.00000000
  ---------------------------------------------------
  free energy    TOTEN  =      -340.18939670 eV

  energy without entropy =     -340.16066839  energy(sigma->0) =     -340.17503254


--------------------------------------------------------------------------------------------------------




--------------------------------------- Iteration      1(  23)  ---------------------------------------


    POTLOK:  cpu time    0.1229: real time    0.1232
    SETDIJ:  cpu time    0.0204: real time    0.0205
     EDDAV:  cpu time    2.1084: real time    2.1134
    CHARGE:  cpu time    0.0962: real time    0.0964
    MIXING:  cpu time    0.0062: real time    0.0063
    --------------------------------------------
      LOOP:  cpu time    2.3541: real time    2.3597

 eigenvalue-minimisations  :  1504
 total energy-change (2. order) : 0.1561761E-01  (-0.1522648E-02)
 number of electron     373.0000121 magnetization       2.2949862
 augmentation part      123.3451682 magnetization       1.4930423

 Broyden mixing:
  rms(total) = 0.37369E+00    rms(broyden)= 0.37367E+00
  rms(prec ) = 0.39843E+00
  weight for this iteration     100.00

 eigenvalues of (default mixing * dielectric matrix)
  average eigenvalue GAMMA=   0.4877
  1.8748  1.2005  1.2005  0.6518  0.6518  0.4503  0.4503  0.4482  0.3620  0.3620
  0.2183  0.1921  0.1489  0.1352  0.1274  0.1274  0.0990  0.0783

 Free energy of the ion-electron system (eV)
  ---------------------------------------------------
  alpha Z        PSCENC =      1136.03087578
  Ewald energy   TEWEN  =    -21077.04182294
  -Hartree energ DENC   =    -11711.55391922
  -exchange      EXHF   =         0.00000000
  -V(xc)+E(xc)   XCENC  =      1503.72369821
  PAW double counting   =     35931.39355591   -37213.47904652
  entropy T*S    EENTRO =        -0.03317576
  eigenvalues    EBANDS =     -1330.00768211
  atomic energy  EATOM  =     32420.79373756
  Solvation  Ediel_sol  =         0.00000000
  ---------------------------------------------------
  free energy    TOTEN  =      -340.17377909 eV

  energy without entropy =     -340.14060333  energy(sigma->0) =     -340.15719121


--------------------------------------------------------------------------------------------------------




--------------------------------------- Iteration      1(  24)  ---------------------------------------


    POTLOK:  cpu time    0.1237: real time    0.1240
    SETDIJ:  cpu time    0.0195: real time    0.0196
     EDDAV:  cpu time    1.9738: real time    1.9785
    CHARGE:  cpu time    0.0966: real time    0.0969
    MIXING:  cpu time    0.0064: real time    0.0064
    --------------------------------------------
      LOOP:  cpu time    2.2201: real time    2.2254

 eigenvalue-minimisations  :  1360
 total energy-change (2. order) : 0.2843421E-02  (-0.5811203E-03)
 number of electron     373.0000122 magnetization       2.2230548
 augmentation part      123.3482198 magnetization       1.4531947

 Broyden mixing:
  rms(total) = 0.35390E+00    rms(broyden)= 0.35390E+00
  rms(prec ) = 0.37622E+00
  weight for this iteration     100.00

 eigenvalues of (default mixing * dielectric matrix)
  average eigenvalue GAMMA=   0.4753
  1.8713  1.2077  1.2077  0.6526  0.6526  0.4489  0.4489  0.4502  0.4502  0.4511
  0.2184  0.1923  0.1489  0.1343  0.1274  0.1274  0.0990  0.0783  0.0632

 Free energy of the ion-electron system (eV)
  ---------------------------------------------------
  alpha Z        PSCENC =      1136.03087578
  Ewald energy   TEWEN  =    -21077.04182294
  -Hartree energ DENC   =    -11711.54215920
  -exchange      EXHF   =         0.00000000
  -V(xc)+E(xc)   XCENC  =      1503.72282082
  PAW double counting   =     35932.33711525   -37214.42676669
  entropy T*S    EENTRO =        -0.03441939
  eigenvalues    EBANDS =     -1330.01031686
  atomic energy  EATOM  =     32420.79373756
  Solvation  Ediel_sol  =         0.00000000
  ---------------------------------------------------
  free energy    TOTEN  =      -340.17093567 eV

  energy without entropy =     -340.13651628  energy(sigma->0) =     -340.15372597


--------------------------------------------------------------------------------------------------------




--------------------------------------- Iteration      1(  25)  ---------------------------------------


    POTLOK:  cpu time    0.1223: real time    0.1226
    SETDIJ:  cpu time    0.0193: real time    0.0193
     EDDAV:  cpu time    1.8450: real time    1.8494
    CHARGE:  cpu time    0.0969: real time    0.0972
    MIXING:  cpu time    0.0066: real time    0.0066
    --------------------------------------------
      LOOP:  cpu time    2.0901: real time    2.0951

 eigenvalue-minimisations  :  1264
 total energy-change (2. order) :-0.1548389E-02  (-0.8094956E-03)
 number of electron     373.0000122 magnetization       2.2214347
 augmentation part      123.3501384 magnetization       1.5498353

 Broyden mixing:
  rms(total) = 0.33935E+00    rms(broyden)= 0.33933E+00
  rms(prec ) = 0.37335E+00
  weight for this iteration     100.00

 eigenvalues of (default mixing * dielectric matrix)
  average eigenvalue GAMMA=   0.5195
  1.9247  1.0491  1.0491  1.0555  1.0555  0.6146  0.6146  0.4000  0.4488  0.4488
  0.4588  0.2204  0.1916  0.1472  0.1392  0.1392  0.1305  0.1251  0.0989  0.0783

 Free energy of the ion-electron system (eV)
  ---------------------------------------------------
  alpha Z        PSCENC =      1136.03087578
  Ewald energy   TEWEN  =    -21077.04182294
  -Hartree energ DENC   =    -11711.63556322
  -exchange      EXHF   =         0.00000000
  -V(xc)+E(xc)   XCENC  =      1503.72927373
  PAW double counting   =     35937.04423603   -37219.14731745
  entropy T*S    EENTRO =        -0.03551171
  eigenvalues    EBANDS =     -1329.91039184
  atomic energy  EATOM  =     32420.79373756
  Solvation  Ediel_sol  =         0.00000000
  ---------------------------------------------------
  free energy    TOTEN  =      -340.17248405 eV

  energy without entropy =     -340.13697234  energy(sigma->0) =     -340.15472820


--------------------------------------------------------------------------------------------------------




--------------------------------------- Iteration      1(  26)  ---------------------------------------


    POTLOK:  cpu time    0.1226: real time    0.1228
    SETDIJ:  cpu time    0.0194: real time    0.0194
     EDDAV:  cpu time    1.9725: real time    1.9772
    CHARGE:  cpu time    0.0971: real time    0.0973
    MIXING:  cpu time    0.0068: real time    0.0068
    --------------------------------------------
      LOOP:  cpu time    2.2184: real time    2.2236

 eigenvalue-minimisations  :  1376
 total energy-change (2. order) :-0.3757113E-01  (-0.9408819E-02)
 number of electron     373.0000121 magnetization       2.2170656
 augmentation part      123.3545645 magnetization       1.5017942

 Broyden mixing:
  rms(total) = 0.34102E+00    rms(broyden)= 0.34097E+00
  rms(prec ) = 0.38420E+00
  weight for this iteration     100.00

 eigenvalues of (default mixing * dielectric matrix)
  average eigenvalue GAMMA=   0.5618
  1.9806  1.5775  1.5775  1.0127  1.0127  0.4924  0.6183  0.6183  0.4507  0.4507
  0.4520  0.2853  0.2145  0.1922  0.1487  0.1487  0.1323  0.1282  0.1273  0.0989
  0.0783

 Free energy of the ion-electron system (eV)
  ---------------------------------------------------
  alpha Z        PSCENC =      1136.03087578
  Ewald energy   TEWEN  =    -21077.04182294
  -Hartree energ DENC   =    -11712.35259303
  -exchange      EXHF   =         0.00000000
  -V(xc)+E(xc)   XCENC  =      1503.79718773
  PAW double counting   =     35954.60456077   -37236.73961631
  entropy T*S    EENTRO =        -0.03287597
  eigenvalues    EBANDS =     -1329.26950878
  atomic energy  EATOM  =     32420.79373756
  Solvation  Ediel_sol  =         0.00000000
  ---------------------------------------------------
  free energy    TOTEN  =      -340.21005518 eV

  energy without entropy =     -340.17717921  energy(sigma->0) =     -340.19361720


--------------------------------------------------------------------------------------------------------




--------------------------------------- Iteration      1(  27)  ---------------------------------------


    POTLOK:  cpu time    0.1223: real time    0.1226
    SETDIJ:  cpu time    0.0196: real time    0.0197
     EDDAV:  cpu time    1.9903: real time    1.9951
    CHARGE:  cpu time    0.0972: real time    0.0974
    MIXING:  cpu time    0.0071: real time    0.0071
    --------------------------------------------
      LOOP:  cpu time    2.2365: real time    2.2418

 eigenvalue-minimisations  :  1392
 total energy-change (2. order) :-0.3565889E-01  (-0.1591165E-01)
 number of electron     373.0000121 magnetization       2.0472214
 augmentation part      123.3665076 magnetization       1.2493702

 Broyden mixing:
  rms(total) = 0.34938E+00    rms(broyden)= 0.34928E+00
  rms(prec ) = 0.39782E+00
  weight for this iteration     100.00

 eigenvalues of (default mixing * dielectric matrix)
  average eigenvalue GAMMA=   0.5830
  2.0807  1.8228  1.8228  1.0329  1.0329  0.5355  0.6421  0.6421  0.4544  0.4544
  0.4280  0.4280  0.2175  0.1937  0.1793  0.1464  0.1464  0.1310  0.1310  0.1261
  0.0989  0.0783

 Free energy of the ion-electron system (eV)
  ---------------------------------------------------
  alpha Z        PSCENC =      1136.03087578
  Ewald energy   TEWEN  =    -21077.04182294
  -Hartree energ DENC   =    -11712.86692245
  -exchange      EXHF   =         0.00000000
  -V(xc)+E(xc)   XCENC  =      1503.87225438
  PAW double counting   =     35971.68739309   -37253.73211730
  entropy T*S    EENTRO =        -0.02741876
  eigenvalues    EBANDS =     -1328.96169342
  atomic energy  EATOM  =     32420.79373756
  Solvation  Ediel_sol  =         0.00000000
  ---------------------------------------------------
[...]
 -----------------------------------------------------------------------------------------------
   0.218E+01 0.857E+00 -.366E+00   -.314E+01 -.114E+01 0.397E+00   0.938E+00 0.277E+00 -.322E-01   0.272E-02 -.242E-02 -.237E-02
   0.365E+01 0.890E-01 -.579E+00   -.360E+01 -.107E+00 0.589E+00   -.497E-01 0.165E-01 -.164E-02   -.511E-02 0.127E-02 -.919E-02
   -.350E+01 0.531E+00 0.181E+01   0.342E+01 -.126E+01 -.182E+01   0.906E-01 0.711E+00 0.581E-02   -.886E-02 0.473E-03 0.335E-02
   -.819E+00 0.363E-01 -.131E+01   0.881E+00 0.788E+00 0.130E+01   -.522E-01 -.805E+00 0.112E-01   -.153E-02 0.257E-02 -.219E-02
   0.365E+01 -.771E+00 -.277E+01   -.352E+01 -.305E-01 0.279E+01   -.142E+00 0.761E+00 -.267E-01   0.768E-02 -.221E-03 0.256E-02
   -.383E+01 -.390E+00 0.242E+01   0.478E+01 0.682E+00 -.256E+01   -.937E+00 -.289E+00 0.145E+00   -.174E-02 0.344E-02 -.113E-02
   0.165E+01 0.209E+00 0.283E+01   -.167E+01 0.554E+00 -.280E+01   0.787E-02 -.740E+00 -.273E-01   0.211E-02 0.322E-02 0.714E-02
   0.355E+02 0.143E+02 -.118E+02   -.360E+02 -.144E+02 0.122E+02   0.521E+00 0.112E+00 -.343E+00   0.302E-01 -.113E-01 0.705E-02
   0.123E+02 -.897E+00 -.125E+02   -.127E+02 0.859E+00 0.127E+02   0.406E+00 0.341E-01 -.161E+00   0.183E-01 0.187E-02 -.722E-02
   -.329E+02 0.214E+02 -.503E+02   0.334E+02 -.216E+02 0.509E+02   -.452E+00 0.190E+00 -.592E+00   -.281E-01 0.576E-03 0.388E-02
   -.125E+02 -.241E+02 -.140E+02   0.128E+02 0.245E+02 0.144E+02   -.263E+00 -.371E+00 -.371E+00   -.336E-01 0.144E-02 0.379E-02
   0.158E+02 -.152E-01 -.384E+02   -.161E+02 0.845E-01 0.387E+02   0.268E+00 -.710E-01 -.281E+00   0.233E-01 0.123E-02 -.151E-01
   -.725E+01 -.110E+02 -.937E+02   0.682E+01 0.109E+02 0.947E+02   0.408E+00 0.213E-01 -.100E+01   0.307E-01 0.159E-01 0.132E-01
   0.248E+01 0.267E+02 -.386E+02   -.229E+01 -.269E+02 0.388E+02   -.130E+00 0.226E+00 -.133E+00   -.514E-01 -.200E-01 -.225E-01
   -.107E+02 -.261E+02 -.974E+01   0.108E+02 0.262E+02 0.989E+01   -.390E-01 -.128E+00 -.122E+00   -.533E-01 0.265E-01 -.196E-01
   -.142E+02 0.273E+02 -.104E+02   0.142E+02 -.276E+02 0.104E+02   -.313E-01 0.252E+00 -.222E-01   -.117E-01 -.163E-01 0.326E-02
   0.382E+01 0.221E+02 0.774E+01   -.371E+01 -.223E+02 -.804E+01   -.131E+00 0.164E+00 0.290E+00   0.125E-01 0.135E-02 0.741E-02
   0.163E+02 -.200E+01 0.540E+02   -.164E+02 0.204E+01 -.544E+02   0.130E+00 -.370E-01 0.424E+00   0.425E-02 0.270E-02 0.153E-02
   -.352E+01 0.121E-01 0.195E+02   0.365E+01 0.432E-01 -.198E+02   -.137E+00 -.455E-01 0.247E+00   0.413E-02 -.720E-02 0.531E-02
   -.335E+00 -.245E+02 0.327E+02   0.216E+00 0.248E+02 -.331E+02   0.101E+00 -.325E+00 0.379E+00   0.111E-01 -.745E-02 0.109E-01
   0.250E+02 -.244E+02 0.606E+02   -.251E+02 0.245E+02 -.608E+02   0.112E+00 -.141E+00 0.210E+00   -.125E-01 0.114E-01 -.143E-02
   -.192E+02 0.135E+02 0.742E+02   0.194E+02 -.136E+02 -.751E+02   -.286E+00 0.729E-01 0.954E+00   0.287E-01 -.162E-01 0.134E-01
   -.108E+02 -.131E+02 0.288E+02   0.112E+02 0.131E+02 -.292E+02   -.411E+00 0.191E-01 0.419E+00   0.298E-01 0.129E-01 0.790E-02
   -.129E+02 0.281E+02 0.372E+03   0.130E+02 -.300E+02 -.394E+03   -.680E-01 0.188E+01 0.215E+02   -.707E-02 -.135E-01 -.125E-01
   0.145E+02 0.269E+02 -.348E+03   -.155E+02 -.289E+02 0.368E+03   0.102E+01 0.199E+01 -.197E+02   -.181E-01 -.118E-01 0.402E-02
   -.138E+02 0.290E+02 -.365E+03   0.163E+02 -.308E+02 0.384E+03   -.251E+01 0.181E+01 -.194E+02   0.724E-02 -.193E-01 -.279E-01
   -.115E+02 0.249E+02 0.347E+03   0.112E+02 -.266E+02 -.368E+03   0.279E+00 0.179E+01 0.204E+02   -.327E-01 -.206E-01 -.377E-02
   -.144E+02 0.304E+02 0.394E+03   0.131E+02 -.323E+02 -.415E+03   0.128E+01 0.193E+01 0.214E+02   0.136E-01 0.883E-02 0.970E-03
   -.345E+02 0.259E+02 -.337E+03   0.394E+02 -.277E+02 0.355E+03   -.492E+01 0.178E+01 -.183E+02   0.475E-02 0.529E-02 0.656E-02
   0.782E+01 -.321E+02 -.345E+03   -.872E+01 0.349E+02 0.366E+03   0.870E+00 -.284E+01 -.202E+02   0.111E-01 -.506E-02 0.337E-02
   -.155E+02 -.352E+02 0.383E+03   0.159E+02 0.375E+02 -.404E+03   -.368E+00 -.237E+01 0.211E+02   0.516E-02 -.630E-02 0.643E-02
   0.114E+02 -.319E+02 -.392E+03   -.101E+02 0.338E+02 0.413E+03   -.133E+01 -.196E+01 -.211E+02   0.218E-01 0.145E-02 0.198E-02
   0.322E+02 0.114E+02 0.335E+03   -.366E+02 -.118E+02 -.353E+03   0.445E+01 0.332E+00 0.178E+02   0.235E-01 -.965E-03 -.859E-02
   -.761E+01 -.205E+02 0.345E+03   0.843E+01 0.219E+02 -.364E+03   -.816E+00 -.138E+01 0.197E+02   0.122E-01 -.466E-03 -.224E-02
   0.117E+02 0.350E+02 -.381E+03   -.117E+02 -.373E+02 0.402E+03   -.145E-01 0.232E+01 -.206E+02   0.338E-01 -.352E-02 -.718E-02
   0.280E+02 -.280E+02 0.364E+03   -.318E+02 0.297E+02 -.382E+03   0.380E+01 -.169E+01 0.186E+02   -.163E-01 0.168E-01 -.724E-02
   -.355E+02 -.174E+02 -.331E+03   0.408E+02 0.183E+02 0.350E+03   -.528E+01 -.957E+00 -.185E+02   -.802E-02 0.145E-01 -.229E-02
   0.259E+02 -.267E+02 -.383E+03   -.263E+02 0.283E+02 0.404E+03   0.392E+00 -.159E+01 -.213E+02   0.124E-01 0.177E-01 -.308E-01
   0.348E+01 -.207E+02 0.347E+03   -.576E+01 0.217E+02 -.366E+03   0.232E+01 -.107E+01 0.187E+02   -.366E-01 0.193E-01 -.180E-02
   0.430E+02 -.306E+01 0.381E+03   -.475E+02 0.329E+01 -.402E+03   0.448E+01 -.213E+00 0.205E+02   0.678E-02 -.104E-01 0.794E-02
   0.394E+01 0.295E+02 -.349E+03   -.351E+01 -.318E+02 0.370E+03   -.449E+00 0.237E+01 -.202E+02   0.607E-02 -.151E-01 0.987E-02
   -.902E+01 0.113E+00 -.404E+03   0.991E+01 -.370E+00 0.430E+03   -.888E+00 0.269E+00 -.257E+02   0.732E-02 -.184E-01 0.973E-02
   -.868E+01 0.269E+02 0.351E+03   0.971E+01 -.290E+02 -.371E+03   -.104E+01 0.210E+01 0.194E+02   0.320E-01 -.199E-01 0.135E-01
   0.483E+02 -.277E+02 0.370E+03   -.531E+02 0.290E+02 -.388E+03   0.486E+01 -.133E+01 0.182E+02   -.101E-01 0.143E-01 -.485E-02
   -.316E+02 0.150E+02 -.349E+03   0.358E+02 -.158E+02 0.367E+03   -.417E+01 0.782E+00 -.180E+02   -.196E-01 0.114E-01 0.300E-02
   0.775E+00 -.202E+02 -.351E+03   -.963E+00 0.217E+02 0.371E+03   0.185E+00 -.154E+01 -.200E+02   -.999E-02 -.948E-02 -.210E-02
   0.100E+02 0.266E+02 0.382E+03   -.104E+02 -.279E+02 -.404E+03   0.381E+00 0.129E+01 0.218E+02   -.162E-01 -.124E-01 0.145E-02
   -.458E+02 0.270E+02 -.371E+03   0.505E+02 -.283E+02 0.390E+03   -.475E+01 0.130E+01 -.183E+02   -.367E-01 0.382E-02 -.211E-01
   0.335E+02 0.251E+02 0.350E+03   -.380E+02 -.267E+02 -.368E+03   0.453E+01 0.160E+01 0.181E+02   0.194E-02 0.269E-02 0.220E-01
   -.407E+00 -.336E+02 0.352E+03   0.589E+00 0.363E+02 -.372E+03   -.163E+00 -.276E+01 0.204E+02   -.812E-02 -.579E-02 0.305E-01
   -.705E+01 -.275E+02 -.383E+03   0.712E+01 0.290E+02 0.405E+03   -.405E-01 -.150E+01 -.221E+02   -.276E-01 -.552E-02 -.287E-01
   -.403E+01 0.432E+00 0.415E+03   0.343E+01 -.339E+00 -.440E+03   0.592E+00 -.100E+00 0.255E+02   0.223E-02 0.117E-01 0.127E-01
   -.122E+02 -.207E+02 -.352E+03   0.148E+02 0.219E+02 0.371E+03   -.262E+01 -.123E+01 -.188E+02   0.831E-02 0.175E-01 0.505E-02
   -.568E+02 0.430E+01 -.382E+03   0.627E+02 -.462E+01 0.401E+03   -.591E+01 0.293E+00 -.197E+02   0.762E-02 0.173E-01 0.961E-02
   0.445E+02 -.212E+02 0.336E+03   -.501E+02 0.227E+02 -.355E+03   0.558E+01 -.148E+01 0.189E+02   0.308E-01 0.196E-01 0.161E-01
 -----------------------------------------------------------------------------------------------
   0.407E+00 0.253E+00 0.457E-01   0.995E-13 -.167E-12 0.171E-12   -.391E+00 -.267E+00 -.531E-01   -.752E-03 0.935E-02 0.138E-01
 
 
 POSITION                                       TOTAL-FORCE (eV/Angst)
 -----------------------------------------------------------------------------------
      1.30635      5.44007      2.47776        -0.015264     -0.002865     -0.004163
      4.04455      1.39342      2.50231        -0.003955      0.000283     -0.001344
      2.29207      1.14336      7.36300         0.000935     -0.021027     -0.001723
      4.75638      3.04468      7.39696         0.008134      0.022144     -0.003980
      7.20635      1.09330      7.41937        -0.003312     -0.040202     -0.001267
      6.76165      2.88826      2.54869         0.013319      0.007312      0.002602
     -0.16630      3.06114      7.34005        -0.002607      0.026357      0.006355
      6.33455      5.55532      9.84237         0.008066     -0.001268     -0.000495
     -1.03670      1.40644      9.73877         0.009396     -0.001898      0.003523
      7.39721      1.37910      0.10767         0.007583     -0.001645     -0.007048
      3.87549      4.18044      9.81002         0.007190     -0.001010     -0.005270
     -1.03393      4.17439      9.76538         0.009299     -0.000412      0.007121
      0.02152      2.76425      0.03820         0.008345     -0.003505     -0.004979
      4.93594      5.53377      0.09558         0.009603     -0.002851      0.004724
      1.42961      2.79493      9.77833         0.010980     -0.003412      0.003226
      3.17059      5.54800      4.95870        -0.008095      0.002525     -0.002745
      5.62238      1.39706      4.96435        -0.008758      0.002824     -0.000116
      0.69072      1.40298      4.91446        -0.010368      0.002617      0.001887
      0.69876      4.16699      4.94331        -0.009573      0.002679     -0.000073
      5.62868      4.17195      4.94920        -0.007925      0.003697     -0.002560
      3.14900      2.78971      4.90724        -0.008669      0.002480      0.000267
      8.08637      0.02058      4.97782        -0.008834      0.002810     -0.000832
     -1.76522      2.78416      4.89040        -0.010562      0.001419      0.002516
      4.82632      0.03950      3.99874        -0.000907      0.004483     -0.001769
      1.50403      0.03629      5.86862        -0.012414     -0.001676     -0.000553
      3.18513      0.02385      1.01722         0.000566     -0.005356      0.002404
      3.12075      0.04609      8.85808         0.013098     -0.001003     -0.001131
      7.35832      1.42815      4.02608        -0.001049      0.007155      0.003489
     -1.09455      1.39375      5.88904        -0.014173     -0.001673      0.000748
     -1.00924      4.16695      5.85213        -0.013126     -0.000663      0.002059
      7.33641      4.15564      4.04099         0.000785      0.003021      0.001570
      0.74866      1.34230      0.97369        -0.000852     -0.004728     -0.002028
      5.65955      1.44985      8.84326         0.016825     -0.000501     -0.001620
      5.57691      4.13889      8.90106         0.015599      0.002034     -0.001614
      0.77695      4.17213      0.97003        -0.000471     -0.003920     -0.001133
      4.93983      2.76867      3.95286        -0.003392      0.006155     -0.001074
      1.39195      2.75891      5.92333        -0.012886      0.001468     -0.000446
      3.27758      2.75172      0.98928         0.002967     -0.004050      0.001394
      3.11870      2.76595      8.83228         0.013876      0.002296     -0.000343
     -0.01994      0.01602      3.95016        -0.000742      0.004195      0.004839
      6.37260      0.01919      5.90855        -0.015180     -0.002008     -0.002810
      8.18486      5.53090      1.04253         0.001556     -0.005444     -0.004633
     -1.83415      0.02430      8.78207         0.016383     -0.002229      0.004517
      2.46475      1.37174      3.92139        -0.002711      0.005500      0.001915
      3.85944      1.43775      5.93535        -0.013452     -0.000726     -0.004822
      3.93528      4.13284      5.88535        -0.014025      0.000168     -0.004931
      2.38103      4.19482      3.98189        -0.003659      0.004900      0.001442
      5.61685      1.40080      1.08632         0.002779     -0.003936     -0.002070
      0.73782      1.41274      8.77386         0.012750     -0.000089      0.004773
      0.66759      4.17688      8.83046         0.011466     -0.000360      0.005698
      5.70131      4.13576      1.04227         0.003296     -0.006314     -0.002389
     -0.09739      2.79340      3.99257        -0.001329      0.005108      0.006477
      6.37024      2.77706      5.95552        -0.015932      0.002348     -0.003129
      8.08773      2.77666      1.07827         0.004339     -0.003675     -0.004986
     -1.72095      2.78662      8.75569         0.015084      0.002468      0.004528
 -----------------------------------------------------------------------------------
    total drift:                                0.015657     -0.005118      0.006471


--------------------------------------------------------------------------------------------------------



  FREE ENERGIE OF THE ION-ELECTRON SYSTEM (eV)
  ---------------------------------------------------
  free  energy   TOTEN  =      -340.3739691632 eV

  energy  without entropy=     -340.3739188048  energy(sigma->0) =     -340.37394398
 
 d Force =-0.1999237E-03[-0.190E-03,-0.210E-03]  d Energy =-0.2210116E-03 0.211E-04
 d Force = 0.4595581E+00[ 0.460E+00, 0.460E+00]  d Ewald  = 0.5216255E+00-0.621E-01


--------------------------------------------------------------------------------------------------------


    POTLOK:  cpu time    0.1433: real time    0.1436


--------------------------------------------------------------------------------------------------------


 Quasi-Newton relaxation of ions (Broydens 2nd method)
  g(Force)  = 0.464E-03   g(Stress)= 0.297E-04

 retain information from N=  3 steps
 eigenvalues of (default step * inverse Hessian matrix)
  average eigenvalue of G=   3.8229
 eigenvalue spectrum of G is  0.1422  5.6633  5.6633


--------------------------------------------------------------------------------------------------------


     LOOP+:  cpu time   10.0828: real time   10.1639
    4ORBIT:  cpu time    0.0000: real time    0.0000

volume of typ            1:    10.3 %

volume of typ            2:    19.2 %

volume of typ            3:     9.8 %
 
total charge     
 
# of ion       s       p       d       tot
------------------------------------------
    1        2.064   0.202   0.075   2.341
    2        2.064   0.198   0.073   2.334
    3        2.071   0.217   0.082   2.369
    4        2.064   0.197   0.074   2.334
    5        2.070   0.217   0.081   2.368
    6        2.066   0.207   0.076   2.349
    7        2.068   0.211   0.078   2.357
    8        0.295   0.416   7.840   8.552
    9        0.287   0.396   7.862   8.544
   10        0.283   0.389   7.860   8.532
   11        0.290   0.405   7.848   8.544
   12        0.284   0.393   7.843   8.520
   13        0.279   0.381   7.847   8.508
   14        0.282   0.390   7.845   8.517
   15        0.297   0.422   7.845   8.564
   16        0.294   0.415   7.842   8.552
   17        0.288   0.398   7.862   8.548
   18        0.283   0.387   7.859   8.529
   19        0.289   0.403   7.848   8.541
   20        0.285   0.395   7.843   8.523
   21        0.279   0.381   7.856   8.516
   22        0.282   0.391   7.838   8.511
   23        0.298   0.423   7.843   8.564
   24        1.271   2.759   0.008   4.038
   25        1.267   2.773   0.007   4.048
   26        1.267   2.770   0.007   4.044
   27        1.268   2.772   0.008   4.048
   28        1.274   2.753   0.007   4.034
   29        1.268   2.768   0.007   4.043
   30        1.269   2.767   0.007   4.043
   31        1.271   2.764   0.007   4.042
   32        1.272   2.755   0.007   4.034
   33        1.266   2.770   0.007   4.043
   34        1.268   2.769   0.007   4.045
   35        1.270   2.764   0.007   4.041
   36        1.267   2.767   0.007   4.041
   37        1.266   2.774   0.007   4.046
   38        1.272   2.756   0.007   4.036
   39        1.265   2.774   0.007   4.046
   40        1.269   2.770   0.008   4.047
   41        1.269   2.769   0.008   4.046
   42        1.281   2.734   0.008   4.023
   43        1.268   2.770   0.007   4.046
   44        1.267   2.767   0.007   4.041
   45        1.266   2.771   0.007   4.044
   46        1.268   2.770   0.007   4.046
   47        1.273   2.754   0.008   4.034
   48        1.268   2.766   0.007   4.041
   49        1.267   2.770   0.007   4.044
   50        1.269   2.767   0.007   4.044
   51        1.273   2.754   0.008   4.034
   52        1.281   2.732   0.008   4.021
   53        1.267   2.770   0.007   4.044
   54        1.270   2.767   0.007   4.044
   55        1.267   2.770   0.007   4.044
--------------------------------------------------
tot          59.69   96.29  126.35  282.33
 
magnetization (x)
 
# of ion       s       p       d       tot
------------------------------------------
    1        0.003   0.004  -0.000   0.006
    2        0.000  -0.000  -0.000  -0.000
    3        0.000  -0.000  -0.000  -0.000
    4       -0.004   0.001  -0.000  -0.003
    5        0.000  -0.001  -0.000  -0.001
    6        0.003   0.006   0.000   0.010
    7        0.004   0.006   0.000   0.010
    8       -0.000  -0.000  -0.094  -0.095
    9       -0.002  -0.000  -0.450  -0.452
   10        0.004  -0.000   0.486   0.490
   11       -0.000  -0.000  -0.167  -0.167
   12        0.000  -0.000   0.149   0.149
   13        0.002  -0.000   0.432   0.435
   14        0.000  -0.000   0.205   0.205
   15       -0.000  -0.000  -0.151  -0.151
   16       -0.000   0.000  -0.112  -0.112
   17        0.001  -0.000   0.426   0.427
   18       -0.004  -0.000  -0.512  -0.516
   19        0.000  -0.000   0.158   0.158
   20       -0.000  -0.000  -0.155  -0.156
   21        0.003   0.000   0.433   0.436
   22        0.000   0.000   0.199   0.200
   23       -0.000   0.000  -0.128  -0.128
   24       -0.001  -0.005  -0.000  -0.006
   25       -0.001  -0.019  -0.000  -0.020
   26        0.001   0.008   0.000   0.009
   27        0.002   0.029   0.000   0.031
   28        0.005   0.063   0.000   0.068
   29       -0.005  -0.053  -0.000  -0.059
   30        0.001   0.015   0.000   0.017
   31       -0.001  -0.017  -0.000  -0.018
   32       -0.004  -0.057  -0.000  -0.061
   33        0.005   0.061   0.000   0.067
   34       -0.001  -0.004  -0.000  -0.004
   35        0.002   0.021   0.000   0.023
   36        0.005   0.049   0.000   0.054
   37        0.004   0.040   0.000   0.044
   38       -0.003  -0.030  -0.000  -0.033
   39       -0.001  -0.006  -0.000  -0.007
   40        0.001   0.006   0.000   0.007
   41        0.003   0.028   0.000   0.031
   42       -0.001  -0.007  -0.000  -0.008
   43       -0.002  -0.020  -0.000  -0.022
   44       -0.005  -0.050  -0.000  -0.055
   45        0.004   0.045   0.000   0.049
   46       -0.001  -0.007  -0.000  -0.008
   47        0.002   0.023   0.000   0.025
   48        0.005   0.054   0.000   0.059
   49       -0.004  -0.038  -0.000  -0.043
   50        0.001   0.015   0.000   0.016
   51       -0.002  -0.019  -0.000  -0.020
   52       -0.002  -0.024  -0.000  -0.026
   53       -0.001  -0.003  -0.000  -0.004
   54        0.005   0.049   0.000   0.054
   55        0.004   0.039   0.000   0.043
--------------------------------------------------
tot           0.03    0.20    0.72    0.94
 

 total amount of memory used by VASP MPI-rank0    88482. kBytes
=======================================================================

   base      :      30000. kBytes
   nonlr-proj:      20372. kBytes
   fftplans  :       4884. kBytes
   grid      :      28787. kBytes
   one-center:        855. kBytes
   wavefun   :       3584. kBytes
 
  
  
 General timing and accounting informations for this job:
 ========================================================
  
                  Total CPU time used (sec):      476.373
                            User time (sec):      473.833
                          System time (sec):        2.540
                         Elapsed time (sec):      482.981
  
                   Maximum memory used (kb):      137236.
                   Average memory used (kb):           0.
  
                          Minor page faults:        37078
                          Major page faults:           46
                 Voluntary context switches:         1380
