 vasp.5.4.4.18Apr17-6-g9f103f2a35 (build May 12 2020 05:39:39) gamma-only       
  
 MD_VERSION_INFO: Compiled 2020-05-12T12:39:39-UTC in devlin.sd.materialsdesign.
 com:/home/medea2/data/build/wwolf/vasp-gpu5.4.4/13047/x86_64/src/src/build/gam 
 from svn 13047
 
 This VASP executable licensed from Materials Design, Inc.
 
 executed on                        Lin64 date 2023.03.07  07:17:11
 running on   16 total cores
 distrk:  each k-point on   16 cores,    1 groups
 distr:  one band on NCORES_PER_BAND=   1 cores,   16 groups


--------------------------------------------------------------------------------------------------------


 INCAR:
 POTCAR:    PAW_PBE Li_sv 10Sep2004               
 POTCAR:    PAW_PBE Ni 02Aug2007                  
 POTCAR:    PAW_PBE O 08Apr2002                   

 ----------------------------------------------------------------------------- 
|                                                                             |
|           W    W    AA    RRRRR   N    N  II  N    N   GGGG   !!!           |
|           W    W   A  A   R    R  NN   N  II  NN   N  G    G  !!!           |
|           W    W  A    A  R    R  N N  N  II  N N  N  G       !!!           |
|           W WW W  AAAAAA  RRRRR   N  N N  II  N  N N  G  GGG   !            |
|           WW  WW  A    A  R   R   N   NN  II  N   NN  G    G                |
|           W    W  A    A  R    R  N    N  II  N    N   GGGG   !!!           |
|                                                                             |
|      For optimal performance we recommend to set                            |
|        NCORE= 4 - approx SQRT( number of cores)                             |
|      NCORE specifies how many cores store one orbital (NPAR=cpu/NCORE).     |
|      This setting can  greatly improve the performance of VASP for DFT.     |
|      The default,   NCORE=1            might be grossly inefficient         |
|      on modern multi-core architectures or massively parallel machines.     |
|      Do your own testing !!!!                                               |
|      Unfortunately you need to use the default for GW and RPA calculations. |
|      (for HF NCORE is supported but not extensively tested yet)             |
|                                                                             |
 ----------------------------------------------------------------------------- 

 POTCAR:    PAW_PBE Li_sv 10Sep2004               
  local pseudopotential read in
  atomic valenz-charges read in
  non local Contribution for L=           0  read in
    real space projection operators read in
  non local Contribution for L=           0  read in
    real space projection operators read in
  non local Contribution for L=           1  read in
    real space projection operators read in
    PAW grid and wavefunctions read in
 
   number of l-projection  operators is LMAX  =           3
   number of lm-projection operators is LMMAX =           5
 
 POTCAR:    PAW_PBE Ni 02Aug2007                  
  local pseudopotential read in
  partial core-charges read in
  partial kinetic energy density read in
  atomic valenz-charges read in
  non local Contribution for L=           2  read in
    real space projection operators read in
  non local Contribution for L=           2  read in
    real space projection operators read in
  non local Contribution for L=           0  read in
    real space projection operators read in
  non local Contribution for L=           0  read in
    real space projection operators read in
  non local Contribution for L=           1  read in
    real space projection operators read in
  non local Contribution for L=           1  read in
    real space projection operators read in
    PAW grid and wavefunctions read in
 
   number of l-projection  operators is LMAX  =           6
   number of lm-projection operators is LMMAX =          18
 
 POTCAR:    PAW_PBE O 08Apr2002                   
  local pseudopotential read in
  partial core-charges read in
  partial kinetic energy density read in
  kinetic energy density of atom read in
  atomic valenz-charges read in
  non local Contribution for L=           0  read in
    real space projection operators read in
  non local Contribution for L=           0  read in
    real space projection operators read in
  non local Contribution for L=           1  read in
    real space projection operators read in
  non local Contribution for L=           1  read in
    real space projection operators read in
    PAW grid and wavefunctions read in
 
   number of l-projection  operators is LMAX  =           4
   number of lm-projection operators is LMMAX =           8
 
 Optimization of the real space projectors (new method)

 maximal supplied QI-value         = 22.11
 optimisation between [QCUT,QGAM] = [ 11.28, 22.77] = [ 35.61,145.23] Ry 
 Optimized for a Real-space Cutoff    1.10 Angstroem

   l    n(q)    QCUT    max X(q) W(low)/X(q) W(high)/X(q)  e(spline) 
   0      7    11.276    10.506    0.54E-04    0.58E-04    0.16E-07
   0      7    11.276     8.367    0.11E-03    0.14E-03    0.35E-07
   1      7    11.276     8.983    0.23E-03    0.43E-03    0.86E-07
 Optimization of the real space projectors (new method)

 maximal supplied QI-value         = 16.25
 optimisation between [QCUT,QGAM] = [ 11.38, 22.75] = [ 36.24,144.96] Ry 
 Optimized for a Real-space Cutoff    1.47 Angstroem

   l    n(q)    QCUT    max X(q) W(low)/X(q) W(high)/X(q)  e(spline) 
   2      9    11.376    60.317    0.17E-03    0.16E-04    0.16E-06
   2      9    11.376    55.921    0.17E-03    0.16E-04    0.17E-06
   0     10    11.376    51.690    0.45E-04    0.60E-04    0.21E-06
   0     10    11.376    30.015    0.37E-04    0.55E-04    0.19E-06
   1     10    11.376    18.849    0.83E-04    0.11E-03    0.92E-07
   1     10    11.376    14.624    0.69E-04    0.92E-04    0.82E-07
 Optimization of the real space projectors (new method)

 maximal supplied QI-value         = 24.76
 optimisation between [QCUT,QGAM] = [ 11.39, 22.77] = [ 36.31,145.25] Ry 
 Optimized for a Real-space Cutoff    1.10 Angstroem

   l    n(q)    QCUT    max X(q) W(low)/X(q) W(high)/X(q)  e(spline) 
   0      7    11.387    20.381    0.22E-03    0.48E-03    0.18E-06
   0      7    11.387    15.268    0.22E-03    0.52E-03    0.19E-06
   1      7    11.387     5.964    0.22E-03    0.73E-03    0.24E-06
   1      7    11.387     5.382    0.19E-03    0.60E-03    0.21E-06

 ----------------------------------------------------------------------------- 
|                                                                             |
|  ADVICE TO THIS USER RUNNING 'VASP/VAMP'   (HEAR YOUR MASTER'S VOICE ...):  |
|                                                                             |
|      You enforced a specific xc-type in the INCAR file,                     |
|      a different type was found on the POTCAR file                          |
|          I HOPE YOU KNOW, WHAT YOU ARE  DOING                               |
|                                                                             |
 ----------------------------------------------------------------------------- 

  PAW_PBE Li_sv 10Sep2004               :
 energy of atom  1       EATOM= -202.7858
 kinetic energy error for atom=    0.0143 (will be added to EATOM!!)
  PAW_PBE Ni 02Aug2007                  :
 energy of atom  2       EATOM=-1077.6739
 kinetic energy error for atom=    0.0030 (will be added to EATOM!!)
  PAW_PBE O 08Apr2002                   :
 energy of atom  3       EATOM= -432.3788
 kinetic energy error for atom=    0.0224 (will be added to EATOM!!)
 
 
 POSCAR: ce4461_1                                
  positions in direct lattice
  No initial velocities read in
 exchange correlation table for  LEXCH =       14
   RHO(1)=    0.500       N(1)  =     2000
   RHO(2)=  100.500       N(2)  =     4000
 


--------------------------------------------------------------------------------------------------------


 ion  position               nearest neighbor table
   1  0.995  0.253  0.242-  41 2.06  46 2.07  38 2.09  53 2.11  50 2.14  32 2.23  14 2.81
   2  0.252  0.250  0.500-  44 2.09  42 2.10  30 2.11  32 2.11  54 2.12  50 2.15  23 2.84  21 2.84
                            27 2.84  15 2.84
   3  0.242  0.750  0.500-  31 2.09  33 2.09  51 2.09  55 2.12  45 2.15  43 2.15  24 2.80  16 2.80

   4  0.757  0.750  0.500-  31 2.06  33 2.07  45 2.12  43 2.12  56 2.18  52 2.19  25 2.83  17 2.83

   5  0.748  0.249  0.501-  57 2.07  53 2.08  44 2.10  42 2.11  30 2.12  32 2.12  21 2.83  26 2.84

   6  0.506  0.252  0.242-  41 2.07  58 2.07  38 2.11  53 2.12  50 2.14  44 2.17  19 2.78  27 2.84

   7  0.498  0.748  0.750-  45 2.11  59 2.11  52 2.13  39 2.13  51 2.13  40 2.15  16 2.84
   8  0.996  0.247  0.760-  37 2.05  48 2.08  34 2.09  57 2.11  54 2.14  30 2.27  28 2.79  17 2.84

   9  0.254  0.249  0.000-  34 2.04  38 2.05  60 2.13  58 2.13  48 2.16  46 2.17  19 2.83
  10  0.241  0.750  0.000-  49 2.09  47 2.09  39 2.12  35 2.14  61 2.14  59 2.15
  11  0.760  0.750  0.999-  40 2.08  36 2.08  49 2.10  47 2.10  59 2.16  61 2.17  26 2.84
  12  0.504  0.249  0.758-  37 2.07  60 2.07  34 2.11  57 2.12  42 2.13  54 2.14  29 2.77  21 2.84

  13  0.501  0.751  0.249-  43 2.07  61 2.10  56 2.13  35 2.14  55 2.15  36 2.15
  14  0.999  0.002  0.000-  40 1.86  38 1.87  41 1.88  39 1.88  49 1.96  48 2.00  19 2.77  19 2.79
                             1 2.81  17 2.87  16 2.88  18 2.90  15 2.90
  15  0.250  1.000  0.251-  61 1.86  49 1.87  32 1.87  44 1.88  55 2.07  38 2.13  18 2.78  18 2.79
                             2 2.84  20 2.88  19 2.89  21 2.89  14 2.90
  16  0.249  0.994  0.748-  48 1.85  60 1.85  33 1.87  45 1.87  39 2.05  54 2.09  17 2.77  17 2.79
                             3 2.80   7 2.84  14 2.88  21 2.88  20 2.88  19 2.90
  17  0.750  0.997  0.750-  45 1.86  48 1.86  33 1.86  60 1.87  40 2.08  57 2.13  16 2.77  16 2.79
                             4 2.83   8 2.84  14 2.87  19 2.88  21 2.89  20 2.90
  18  0.750  0.999  0.251-  61 1.88  49 1.88  32 1.88  44 1.89  41 1.99  56 2.01  15 2.78  15 2.79
                            20 2.88  19 2.89  21 2.89  14 2.90
  19  0.501  0.004  0.003-  40 1.84  39 1.85  41 1.86  38 1.87  60 2.05  61 2.09  14 2.77   6 2.78
                            14 2.79   9 2.83  17 2.88  18 2.89  15 2.89  16 2.90
  20  0.001  0.002  0.501-  55 1.86  57 1.87  54 1.87  56 1.87  33 1.98  32 2.03  21 2.78  21 2.78
                            15 2.88  18 2.88  16 2.88  17 2.90
  21  0.500  0.005  0.503-  55 1.84  56 1.85  57 1.87  54 1.87  44 2.09  45 2.10  20 2.78  20 2.78
                             5 2.83   2 2.84  12 2.84  16 2.88  17 2.89  18 2.89  15 2.89
  22  0.001  0.498  0.500-  51 1.86  53 1.86  50 1.88  52 1.88  31 1.97  30 2.01  27 2.78  27 2.78
                            23 2.87  26 2.88  24 2.89  25 2.91
  23  0.249  0.500  0.749-  47 1.85  59 1.86  42 1.87  30 1.87  51 2.11  34 2.16  26 2.78  26 2.79
                             2 2.84  22 2.87  29 2.89  27 2.89  28 2.90
  24  0.249  0.506  0.252-  46 1.85  58 1.86  43 1.86  31 1.87  35 2.03  50 2.07  25 2.77  25 2.79
                             3 2.80  28 2.88  27 2.89  22 2.89  29 2.90
  25  0.751  0.504  0.250-  46 1.85  43 1.85  31 1.86  58 1.87  36 2.11  53 2.16  24 2.77  24 2.79
                             4 2.83  28 2.87  29 2.88  27 2.89  22 2.91
  26  0.750  0.500  0.749-  47 1.88  59 1.88  42 1.88  30 1.89  37 1.98  52 2.00  23 2.78  23 2.79
                             5 2.84  11 2.84  22 2.88  29 2.89  27 2.89  28 2.90
  27  0.501  0.496  0.498-  51 1.83  52 1.85  53 1.85  50 1.87  42 2.12  43 2.14  22 2.78  22 2.78
                             6 2.84   2 2.84  24 2.89  26 2.89  23 2.89  25 2.89
  28  0.999  0.498  1.000-  36 1.85  34 1.86  37 1.87  35 1.88  47 1.99  46 2.03  29 2.77  29 2.79
                             8 2.79  25 2.87  24 2.88  26 2.90  23 2.90
  29  0.501  0.495  0.998-  36 1.83  35 1.86  34 1.86  37 1.87  58 2.03  59 2.07  12 2.77  28 2.77
                            28 2.79  25 2.88  26 2.89  23 2.89  24 2.90
  30  0.002  0.393  0.635-  23 1.87  26 1.89  22 2.01   2 2.11   5 2.12   8 2.27
  31  0.996  0.604  0.370-  25 1.86  24 1.87  22 1.97   4 2.06   3 2.09
  32  0.001  0.108  0.364-  15 1.87  18 1.88  20 2.03   2 2.11   5 2.12   1 2.23
  33  0.997  0.896  0.631-  17 1.86  16 1.87  20 1.98   4 2.07   3 2.09
  34  0.248  0.385  0.893-  28 1.86  29 1.86   9 2.04   8 2.09  12 2.11  23 2.16
  35  0.254  0.604  0.109-  29 1.86  28 1.88  24 2.03  10 2.14  13 2.14
  36  0.746  0.606  0.102-  29 1.83  28 1.85  11 2.08  25 2.11  13 2.15
  37  0.752  0.395  0.881-  28 1.87  29 1.87  26 1.98   8 2.05  12 2.07
  38  0.248  0.113  0.110-  19 1.87  14 1.87   9 2.05   1 2.09   6 2.11  15 2.13
  39  0.255  0.895  0.892-  19 1.85  14 1.88  16 2.05  10 2.12   7 2.13
  40  0.745  0.894  0.895-  19 1.84  14 1.86  11 2.08  17 2.08   7 2.15
  41  0.751  0.105  0.119-  19 1.86  14 1.88  18 1.99   1 2.06   6 2.07
  42  0.498  0.387  0.642-  23 1.87  26 1.88   2 2.10   5 2.11  27 2.12  12 2.13
  43  0.503  0.613  0.359-  25 1.85  24 1.86  13 2.07   4 2.12  27 2.14   3 2.15
  44  0.499  0.111  0.361-  15 1.88  18 1.89  21 2.09   2 2.09   5 2.10   6 2.17
  45  0.503  0.889  0.638-  17 1.86  16 1.87  21 2.10   7 2.11   4 2.12   3 2.15
  46  0.003  0.399  0.142-  24 1.85  25 1.85  28 2.03   1 2.07   9 2.17
  47  0.003  0.601  0.865-  23 1.85  26 1.88  28 1.99  10 2.09  11 2.10
  48  0.003  0.100  0.860-  16 1.85  17 1.86  14 2.00   8 2.08   9 2.16
  49  0.002  0.899  0.132-  15 1.87  18 1.88  14 1.96  10 2.09  11 2.10
  50  0.250  0.391  0.384-  27 1.87  22 1.88  24 2.07   1 2.14   6 2.14   2 2.15
  51  0.256  0.605  0.603-  27 1.83  22 1.86   3 2.09  23 2.11   7 2.13
  52  0.744  0.601  0.612-  27 1.85  22 1.88  26 2.00   7 2.13   4 2.19
  53  0.752  0.388  0.392-  27 1.85  22 1.86   5 2.08   1 2.11   6 2.12  25 2.16
  54  0.249  0.111  0.614-  21 1.87  20 1.87  16 2.09   2 2.12  12 2.14   8 2.14
  55  0.255  0.897  0.394-  21 1.84  20 1.86  15 2.07   3 2.12  13 2.15
  56  0.746  0.899  0.389-  21 1.85  20 1.87  18 2.01  13 2.13   4 2.18
  57  0.753  0.112  0.612-  20 1.87  21 1.87   5 2.07   8 2.11  12 2.12  17 2.13
  58  0.497  0.398  0.141-  24 1.86  25 1.87  29 2.03   6 2.07   9 2.13
  59  0.497  0.607  0.861-  23 1.86  26 1.88  29 2.07   7 2.11  10 2.15  11 2.16
  60  0.495  0.102  0.858-  16 1.85  17 1.87  19 2.05  12 2.07   9 2.13
  61  0.498  0.892  0.140-  15 1.86  18 1.88  19 2.09  13 2.10  10 2.14  11 2.17
 
  LATTYP: Found a triclinic cell.
 ALAT       =    10.0841500920
 B/A-ratio  =     1.0037312521
 C/A-ratio  =     0.5514014586
 COS(alpha) =     0.0002338739
 COS(beta)  =     0.0005701765
 COS(gamma) =     0.3645526077
  
  Lattice vectors:
  
 A1 = (  -3.7076072247,  -0.0028652549,   9.3778314944)
 A2 = ( -10.1217198490,  -0.0011879714,  -0.0338732243)
 A3 = (  -0.0006526854,  -5.5604148414,   0.0014522613)


Analysis of symmetry for initial positions (statically):
=====================================================================
 Subroutine PRICEL returns:
 Original cell was already a primitive cell.
 

 Routine SETGRP: Setting up the symmetry group for a 
 triclinic supercell.


 Subroutine GETGRP returns: Found  1 space group operations
 (whereof  1 operations were pure point group operations)
 out of a pool of  2 trial point group operations.


The static configuration has the point symmetry C_1 .


Analysis of symmetry for dynamics (positions and initial velocities):
=====================================================================
 Subroutine PRICEL returns:
 Original cell was already a primitive cell.
 

 Routine SETGRP: Setting up the symmetry group for a 
 triclinic supercell.


 Subroutine GETGRP returns: Found  1 space group operations
 (whereof  1 operations were pure point group operations)
 out of a pool of  2 trial point group operations.


The dynamic configuration has the point symmetry C_1 .


Analysis of structural, dynamic, and magnetic symmetry:
=====================================================================
 Subroutine PRICEL returns:
 Original cell was already a primitive cell.
 

 Routine SETGRP: Setting up the symmetry group for a 
 triclinic supercell.


 Subroutine GETGRP returns: Found  1 space group operations
 (whereof  1 operations were pure point group operations)
 out of a pool of  2 trial point group operations.


The magnetic configuration has the point symmetry C_1 .


 Subroutine INISYM returns: Found  1 space group operations
 (whereof  1 operations are pure point group operations),
 and found     1 'primitive' translations

 
 
 KPOINTS: Automatic mesh                          

Automatic generation of k-mesh.
Space group operators:
 irot       det(A)        alpha          n_x          n_y          n_z        tau_x        tau_y        tau_z
    1     1.000000     0.000000     1.000000     0.000000     0.000000     0.000000     0.000000     0.000000
 
 Subroutine IBZKPT returns following result:
 ===========================================
 
 Found      1 irreducible k-points:
 
 Following reciprocal coordinates:
            Coordinates               Weight
  0.000000  0.000000  0.000000      1.000000
 
 Following cartesian coordinates:
            Coordinates               Weight
  0.000000  0.000000  0.000000      1.000000
 


--------------------------------------------------------------------------------------------------------




 Dimension of arrays:
   k-points           NKPTS =      1   k-points in BZ     NKDIM =      1   number of bands    NBANDS=    256
   number of dos      NEDOS =    301   number of ions     NIONS =     61
   non local maximal  LDIM  =      6   non local SUM 2l+1 LMDIM =     18
   total plane-waves  NPLWV = 268800
   max r-space proj   IRMAX =   6878   max aug-charges    IRDMAX=  16684
   dimension x,y,z NGX =    42 NGY =   80 NGZ =   80
   dimension x,y,z NGXF=    84 NGYF=  160 NGZF=  160
   support grid    NGXF=    84 NGYF=  160 NGZF=  160
   ions per type =              13  16  32
   NGX,Y,Z   is equivalent  to a cutoff of  12.56, 13.19, 13.14 a.u.
   NGXF,Y,Z  is equivalent  to a cutoff of  25.11, 26.38, 26.28 a.u.

 SYSTEM =  unknown system                          
 POSCAR =  ce4461_1                                

 Startparameter for this run:
   NWRITE =      1    write-flag & timer
   PREC   = accura    normal or accurate (medium, high low for compatibility)
   ISTART =      0    job   : 0-new  1-cont  2-samecut
   ICHARG =      2    charge: 1-file 2-atom 10-const
   ISPIN  =      2    spin polarized calculation?
   LNONCOLLINEAR =      F non collinear calculations
   LSORBIT =      F    spin-orbit coupling
   INIWAV =      1    electr: 0-lowe 1-rand  2-diag
   LASPH  =      F    aspherical Exc in radial PAW
   METAGGA=      F    non-selfconsistent MetaGGA calc.

 Electronic Relaxation 1
   ENCUT  =  500.0 eV  36.75 Ry    6.06 a.u.  10.14 18.39 18.45*2*pi/ulx,y,z
   ENINI  =  500.0     initial cutoff
   ENAUG  =  628.9 eV  augmentation charge cutoff
   NELM   =     80;   NELMIN=  2; NELMDL= -5     # of ELM steps 
   EDIFF  = 0.1E-04   stopping-criterion for ELM
   LREAL  =      T    real-space projection
   NLSPLINE    = F    spline interpolate recip. space projectors
   LCOMPAT=      F    compatible to vasp.4.4
   GGA_COMPAT  = T    GGA compatible to vasp.4.4-vasp.4.6
   LMAXPAW     = -100 max onsite density
   LMAXMIX     =    2 max onsite mixed and CHGCAR
   VOSKOWN=      1    Vosko Wilk Nusair interpolation
   ROPT   =   -0.00025  -0.00025  -0.00025
 Ionic relaxation
   EDIFFG = -.2E-01   stopping-criterion for IOM
   NSW    =     20    number of steps for IOM
   NBLOCK =      1;   KBLOCK =     20    inner block; outer block 
   IBRION =      1    ionic relax: 0-MD 1-quasi-New 2-CG
   NFREE  =      0    steps in history (QN), initial steepest desc. (CG)
   ISIF   =      3    stress and relaxation
   IWAVPR =     11    prediction:  0-non 1-charg 2-wave 3-comb
   ISYM   =      2    0-nonsym 1-usesym 2-fastsym
   LCORR  =      T    Harris-Foulkes like correction to forces

   POTIM  = 0.5000    time-step for ionic-motion
   TEIN   =    0.0    initial temperature
   TEBEG  =    0.0;   TEEND  =   0.0 temperature during run
   SMASS  =  -3.00    Nose mass-parameter (am)
   estimated Nose-frequenzy (Omega)   =  0.10E-29 period in steps =****** mass=  -0.707E-27a.u.
   SCALEE = 1.0000    scale energy and forces
   NPACO  =    256;   APACO  = 16.0  distance and # of slots for P.C.
   PSTRESS=    0.0 pullay stress

  Mass of Ions in am
   POMASS =   7.01 58.69 16.00
  Ionic Valenz
   ZVAL   =   3.00 10.00  6.00
  Atomic Wigner-Seitz radii
   RWIGS  =   1.23  1.15  0.73
  virtual crystal weights 
   VCA    =   1.00  1.00  1.00
   NELECT =     391.0000    total number of electrons
   NUPDOWN=      -1.0000    fix difference up-down

 DOS related values:
   EMIN   =  10.00;   EMAX   =-10.00  energy-range for DOS
   EFERMI =   0.00
   ISMEAR =     0;   SIGMA  =   0.05  broadening in eV -4-tet -1-fermi 0-gaus

 Electronic relaxation 2 (details)
   IALGO  =     38    algorithm
   LDIAG  =      T    sub-space diagonalisation (order eigenvalues)
   LSUBROT=      F    optimize rotation matrix (better conditioning)
   TURBO    =      0    0=normal 1=particle mesh
   IRESTART =      0    0=no restart 2=restart with 2 vectors
   NREBOOT  =      0    no. of reboots
   NMIN     =      0    reboot dimension
   EREF     =   0.00    reference energy to select bands
   IMIX   =      4    mixing-type and parameters
     AMIX     =   0.40;   BMIX     =  1.00
     AMIX_MAG =   1.60;   BMIX_MAG =  1.00
     AMIN     =   0.10
     WC   =   100.;   INIMIX=   1;  MIXPRE=   1;  MAXMIX= -45

 Intra band minimization:
   WEIMIN = 0.0010     energy-eigenvalue tresh-hold
   EBREAK =  0.98E-08  absolut break condition
   DEPER  =   0.30     relativ break condition  

   TIME   =   0.40     timestep for ELM

  volume/ion in A,a.u.               =       8.66        58.47
  Fermi-wavevector in a.u.,A,eV,Ry     =   1.480657  2.798035 29.828654  2.192344
  Thomas-Fermi vector in A             =   2.594664
 
 Write flags
   LWAVE        =      F    write WAVECAR
   LDOWNSAMPLE  =      F    k-point downsampling of WAVECAR
   LCHARG       =      T    write CHGCAR
   LVTOT        =      F    write LOCPOT, total local potential
   LVHAR        =      F    write LOCPOT, Hartree potential only
   LELF         =      F    write electronic localiz. function (ELF)
   LORBIT       =      0    0 simple, 1 ext, 2 COOP (PROOUT), +10 PAW based schemes


 Dipole corrections
   LMONO  =      F    monopole corrections only (constant potential shift)
   LDIPOL =      F    correct potential (dipole corrections)
   IDIPOL =      0    1-x, 2-y, 3-z, 4-all directions 
   EPSILON=  1.0000000 bulk dielectric constant

 Exchange correlation treatment:
   GGA     =    PS    GGA type
   LEXCH   =    14    internal setting for exchange type
   VOSKOWN=      1    Vosko Wilk Nusair interpolation
   LHFCALC =     F    Hartree Fock is set to
   LHFONE  =     F    Hartree Fock one center treatment
   AEXX    =    0.0000 exact exchange contribution

 Linear response parameters
   LEPSILON=     F    determine dielectric tensor
   LRPA    =     F    only Hartree local field effects (RPA)
   LNABLA  =     F    use nabla operator in PAW spheres
   LVEL    =     F    velocity operator in full k-point grid
   LINTERFAST=   F  fast interpolation
   KINTER  =     0    interpolate to denser k-point grid
   CSHIFT  =0.1000    complex shift for real part using Kramers Kronig
   OMEGAMAX=  -1.0    maximum frequency
   DEG_THRESHOLD= 0.2000000E-02 threshold for treating states as degnerate
   RTIME   =   -0.100 relaxation time in fs
  (WPLASMAI=    0.000 imaginary part of plasma frequency in eV, 0.658/RTIME)
   DFIELD  = 0.0000000 0.0000000 0.0000000 field for delta impulse in time
 
 Orbital magnetization related:
   ORBITALMAG=     F  switch on orbital magnetization
   LCHIMAG   =     F  perturbation theory with respect to B field
   DQ        =  0.001000  dq finite difference perturbation B field
   LLRAUG    =     F  two centre corrections for induced B field



--------------------------------------------------------------------------------------------------------


 quasi-Newton-method for relaxation of ions
 charge density and potential will be updated during run
 spin polarized calculation
 Variant of blocked Davidson
 Davidson routine will perform the subspace rotation
 perform sub-space diagonalisation
    after iterative eigenvector-optimisation
 modified Broyden-mixing scheme, WC =      100.0
 initial mixing is a Kerker type mixing with AMIX =  0.4000 and BMIX =      1.0000
 Hartree-type preconditioning will be used
 using additional bands           60
 real space projection scheme for non local part
 use partial core corrections
 calculate Harris-corrections to forces 
   (improved forces if not selfconsistent)
 use gradient corrections 
 use of overlap-Matrix (Vanderbilt PP)
 Gauss-broadening in eV      SIGMA  =   0.05


--------------------------------------------------------------------------------------------------------


  energy-cutoff  :      500.00
  volume of cell :      528.49
      direct lattice vectors                 reciprocal lattice vectors
     0.000652685  5.560414841 -0.001452261    -0.000021264  0.179842711  0.000046541
    -3.707607225 -0.002865255  9.377831494    -0.000356393  0.000027856  0.106493566
    10.121719849  0.001187971  0.033873224     0.098666893 -0.000001393  0.039008814

  length of vectors
     5.560415069 10.084150092 10.121776598     0.179842719  0.106494166  0.106098272


 
 k-points in units of 2pi/SCALE and weight: Automatic mesh                          
   0.00000000  0.00000000  0.00000000       1.000
 
 k-points in reciprocal lattice and weights: Automatic mesh                          
   0.00000000  0.00000000  0.00000000       1.000
 
 position of ions in fractional coordinates (direct lattice) 
   0.99458756  0.25253620  0.24195714
   0.25243934  0.24997437  0.50010484
   0.24154474  0.75022476  0.49960007
   0.75703748  0.74999363  0.49975873
   0.74809430  0.24929430  0.50131706
   0.50648468  0.25232893  0.24232280
   0.49804687  0.74845606  0.75024925
   0.99553373  0.24722101  0.76020693
   0.25371753  0.24916162  0.00048619
   0.24127399  0.74994532  0.00035442
   0.75988367  0.75042123  0.99864013
   0.50443499  0.24851116  0.75802175
   0.50112268  0.75108934  0.24944549
   0.99925415  0.00173730  0.00010621
   0.24958524  0.99999391  0.25076477
   0.24917783  0.99377366  0.74798951
   0.75042560  0.99651042  0.75016512
   0.75047907  0.99932499  0.25076278
   0.50056746  0.00406963  0.00257739
   0.00072196  0.00225634  0.50107971
   0.50042738  0.00456212  0.50298562
   0.00080948  0.49812690  0.49978121
   0.24939078  0.49981769  0.74919985
   0.24925093  0.50603037  0.25208437
   0.75057416  0.50370545  0.24992729
   0.75031629  0.50029241  0.74929313
   0.50059058  0.49562163  0.49751476
   0.99922150  0.49789967  0.99970847
   0.50057367  0.49546351  0.99755336
   0.00189951  0.39324908  0.63469279
   0.99640990  0.60384218  0.36969642
   0.00149102  0.10758496  0.36407368
   0.99720201  0.89589486  0.63129643
   0.24761700  0.38549709  0.89333370
   0.25408556  0.60415652  0.10914425
   0.74577684  0.60621047  0.10203885
   0.75196939  0.39526807  0.88050973
   0.24787948  0.11312496  0.10998829
   0.25508293  0.89481597  0.89215801
   0.74540918  0.89440069  0.89527770
   0.75070244  0.10457068  0.11882237
   0.49792011  0.38749368  0.64166926
   0.50332026  0.61323643  0.35864655
   0.49920459  0.11147146  0.36121732
   0.50290016  0.88862975  0.63841584
   0.00265554  0.39912573  0.14190770
   0.00308197  0.60135187  0.86544704
   0.00341651  0.10002896  0.86015758
   0.00196835  0.89937953  0.13210074
   0.25017728  0.39087843  0.38415425
   0.25583951  0.60478003  0.60330687
   0.74428978  0.60125504  0.61219528
   0.75209274  0.38763608  0.39165946
   0.24932032  0.11055840  0.61447325
   0.25475442  0.89670756  0.39402971
   0.74554427  0.89913370  0.38941843
   0.75256992  0.11224144  0.61165502
   0.49653568  0.39761196  0.14130068
   0.49749758  0.60705564  0.86124491
   0.49541132  0.10244622  0.85805234
   0.49801017  0.89176567  0.13961177
 
 position of ions in cartesian coordinates  (Angst):
   1.51336650  5.52988329  2.37499340
   4.13527907  1.40354532  2.36079108
   2.27543086  1.34153288  7.05205366
   2.27823016  4.20788722  7.04914291
   4.15039376  4.15959591  2.35373473
   1.51751751  2.81582982  2.37377089
   4.81915670  2.76809396  7.04358488
   6.77865294  5.53577528  2.34270186
  -0.91870675  1.41006139  2.33624369
  -2.77675787  1.33943511  7.03252245
   7.32618442  4.22430464  7.07004746
   6.75143126  2.80505627  2.35543985
  -0.25959982  2.78459426  7.05131103
  -0.00471400  5.55626275  0.01484453
  -1.16925099  1.38523014  9.38590613
   3.88658050  1.38357328  9.34441687
   3.89878174  4.17071356  9.36942750
  -1.16646412  4.17040954  9.37890562
   0.01132574  2.78335414  0.03752465
   5.06342330  0.00460320  0.03813171
   5.07449161  2.78316829  0.05909379
   3.21178703  0.00366751  4.68827816
   5.73022609  1.38617412  4.71222171
   0.67552820  1.38478813  4.75364447
   0.66264194  4.17235736  4.73104065
   5.72973711  4.17152651  4.71594924
   3.19846141  2.78266224  4.66398157
   8.27340483  5.55584707  4.70163142
   8.26029827  2.78316270  4.67943669
   4.96617072  0.01018930  3.70931994
   1.50380431  5.53916142  5.67380598
   3.28616999  0.00841494  1.02124381
   3.06883021  5.54303985  8.42148688
   7.61296326  1.37680995  3.64502724
  -1.13508172  1.41121972  5.66900611
  -1.21429491  4.14521288  5.68731296
   7.44726486  4.18117523  3.73549100
   0.69400953  1.37811927  1.06423248
   5.71271377  1.41686289  8.42128321
   5.74615012  4.14328515  8.41678237
   0.81546970  4.17405852  0.98358090
   5.05844710  2.76829439  3.65486273
   1.35680860  2.79733843  5.76224547
   3.24317395  2.77589433  1.05687119
   3.16750443  2.79454578  8.35431492
  -0.04344972  0.01379089  3.74773686
   6.53023796  0.01644213  5.66868751
   8.33540819  0.01973245  0.96718608
  -1.99745808  0.00852482  8.43870150
   2.43924129  1.39042586  3.67824127
   3.86438330  1.42155767  5.69158962
   3.96773737  4.13756446  5.65812458
   2.52755588  4.18130224  3.64736037
   5.80978170  1.38673761  1.05725016
   0.66378518  1.41443906  8.42214948
   0.60843626  4.14342179  8.44403246
   5.77534477  4.18500598  1.07220711
  -0.04365900  2.75997297  3.73280317
   6.46688053  2.76557669  5.72131615
   8.30545840  2.75541826  0.98906892
  -1.89288057  2.76675386  8.36683405
 


--------------------------------------------------------------------------------------------------------


 use serial FFT for orbitals x direction half grid
 k-point  1 :   0.0000 0.0000 0.0000  plane waves:    6694

 maximum and minimum number of plane-waves per node :      6694     6694

 maximum number of plane-waves:      6694
 maximum index in each direction: 
   IXMAX=   10   IYMAX=   18   IZMAX=   18
   IXMIN=    0   IYMIN=  -18   IZMIN=  -18

 The following grids will avoid any aliasing or wrap around errors in the Hartre
 e energy
  - symmetry arguments have not been applied
  - exchange correlation energies might require even more grid points
  - we recommend to set PREC=Normal or Accurate and rely on VASP defaults
 NGX is ok and might be reduce to    42
 NGY is ok and might be reduce to    80
 NGZ is ok and might be reduce to    80

 serial   3D FFT for wavefunctions
 parallel 3D FFT for charge:
    minimum data exchange during FFTs selected (reduces bandwidth)


 total amount of memory used by VASP MPI-rank0   100454. kBytes
=======================================================================

   base      :      30000. kBytes
   nonlr-proj:      24499. kBytes
   fftplans  :       6149. kBytes
   grid      :      35266. kBytes
   one-center:        948. kBytes
   wavefun   :       3592. kBytes
 
     INWAV:  cpu time    0.0000: real time    0.0000
 Broyden mixing: mesh for mixing (old mesh)
   NGX = 21   NGY = 37   NGZ = 37
  (NGX  = 84   NGY  =160   NGZ  =160)
  gives a total of  28749 points

 initial charge density was supplied:
 charge density of overlapping atoms calculated
 number of electron     391.0000000 magnetization      40.0000000
 keeping initial charge density in first step


--------------------------------------------------------------------------------------------------------


 Maximum index for non-local projection operator         6638
 Maximum index for augmentation-charges         1562 (set IRDMAX)


--------------------------------------------------------------------------------------------------------


 First call to EWALD:  gamma=   0.219
 Maximum number of real-space cells 4x 2x 2
 Maximum number of reciprocal cells 2x 3x 3

    FEWALD:  cpu time    0.0036: real time    0.0036


--------------------------------------- Iteration      1(   1)  ---------------------------------------


    POTLOK:  cpu time    0.1647: real time    0.1674
    SETDIJ:  cpu time    0.0214: real time    0.0215
     EDDAV:  cpu time    1.5261: real time    1.6058
    --------------------------------------------
      LOOP:  cpu time    1.7219: real time    1.8421

 eigenvalue-minimisations  :  1056
 total energy-change (2. order) : 0.6847008E+04  (-0.1738320E+05)
 number of electron     391.0000000 magnetization      40.0000000
 augmentation part      391.0000000 magnetization      40.0000000

 Free energy of the ion-electron system (eV)
  ---------------------------------------------------
  alpha Z        PSCENC =      1225.79410149
  Ewald energy   TEWEN  =    -24050.68886434
  -Hartree energ DENC   =    -10311.47235675
  -exchange      EXHF   =         0.00000000
  -V(xc)+E(xc)   XCENC  =      1596.51637880
  PAW double counting   =     27500.57083131   -28814.20024788
  entropy T*S    EENTRO =        -0.00156831
  eigenvalues    EBANDS =      6073.59218295
  atomic energy  EATOM  =     33626.89778075
  Solvation  Ediel_sol  =         0.00000000
  ---------------------------------------------------
  free energy    TOTEN  =      6847.00823801 eV

  energy without entropy =     6847.00980632  energy(sigma->0) =     6847.00902217


--------------------------------------------------------------------------------------------------------




--------------------------------------- Iteration      1(   2)  ---------------------------------------


     EDDAV:  cpu time    1.4898: real time    1.5321
    --------------------------------------------
      LOOP:  cpu time    1.4803: real time    1.4849

 eigenvalue-minimisations  :  1056
 total energy-change (2. order) :-0.5516768E+04  (-0.5016021E+04)
 number of electron     391.0000000 magnetization      40.0000000
 augmentation part      391.0000000 magnetization      40.0000000

 Free energy of the ion-electron system (eV)
  ---------------------------------------------------
  alpha Z        PSCENC =      1225.79410149
  Ewald energy   TEWEN  =    -24050.68886434
  -Hartree energ DENC   =    -10311.47235675
  -exchange      EXHF   =         0.00000000
  -V(xc)+E(xc)   XCENC  =      1596.51637880
  PAW double counting   =     27500.57083131   -28814.20024788
  entropy T*S    EENTRO =        -0.00000245
  eigenvalues    EBANDS =       556.82235986
  atomic energy  EATOM  =     33626.89778075
  Solvation  Ediel_sol  =         0.00000000
  ---------------------------------------------------
  free energy    TOTEN  =      1330.23998079 eV

  energy without entropy =     1330.23998324  energy(sigma->0) =     1330.23998201


--------------------------------------------------------------------------------------------------------




--------------------------------------- Iteration      1(   3)  ---------------------------------------


     EDDAV:  cpu time    1.6059: real time    1.6097
    --------------------------------------------
      LOOP:  cpu time    1.6060: real time    1.6098

 eigenvalue-minimisations  :  1168
 total energy-change (2. order) :-0.1539033E+04  (-0.1271107E+04)
 number of electron     391.0000000 magnetization      40.0000000
 augmentation part      391.0000000 magnetization      40.0000000

 Free energy of the ion-electron system (eV)
  ---------------------------------------------------
  alpha Z        PSCENC =      1225.79410149
  Ewald energy   TEWEN  =    -24050.68886434
  -Hartree energ DENC   =    -10311.47235675
  -exchange      EXHF   =         0.00000000
  -V(xc)+E(xc)   XCENC  =      1596.51637880
  PAW double counting   =     27500.57083131   -28814.20024788
  entropy T*S    EENTRO =        -0.08436839
  eigenvalues    EBANDS =      -982.12607431
  atomic energy  EATOM  =     33626.89778075
  Solvation  Ediel_sol  =         0.00000000
  ---------------------------------------------------
  free energy    TOTEN  =      -208.79281933 eV

  energy without entropy =     -208.70845094  energy(sigma->0) =     -208.75063513


--------------------------------------------------------------------------------------------------------




--------------------------------------- Iteration      1(   4)  ---------------------------------------


     EDDAV:  cpu time    1.9580: real time    1.9637
    --------------------------------------------
      LOOP:  cpu time    1.9580: real time    1.9637

 eigenvalue-minimisations  :  1232
 total energy-change (2. order) :-0.2536495E+03  (-0.2465656E+03)
 number of electron     391.0000000 magnetization      40.0000000
 augmentation part      391.0000000 magnetization      40.0000000

 Free energy of the ion-electron system (eV)
  ---------------------------------------------------
  alpha Z        PSCENC =      1225.79410149
  Ewald energy   TEWEN  =    -24050.68886434
  -Hartree energ DENC   =    -10311.47235675
  -exchange      EXHF   =         0.00000000
  -V(xc)+E(xc)   XCENC  =      1596.51637880
  PAW double counting   =     27500.57083131   -28814.20024788
  entropy T*S    EENTRO =        -0.15554859
  eigenvalues    EBANDS =     -1235.70439826
  atomic energy  EATOM  =     33626.89778075
  Solvation  Ediel_sol  =         0.00000000
  ---------------------------------------------------
  free energy    TOTEN  =      -462.44232347 eV

  energy without entropy =     -462.28677489  energy(sigma->0) =     -462.36454918


--------------------------------------------------------------------------------------------------------




--------------------------------------- Iteration      1(   5)  ---------------------------------------


     EDDAV:  cpu time    2.2321: real time    2.2374
    CHARGE:  cpu time    0.1054: real time    0.3558
    MIXING:  cpu time    0.0033: real time    0.0080
    --------------------------------------------
      LOOP:  cpu time    2.3405: real time    2.6008

 eigenvalue-minimisations  :  1744
 total energy-change (2. order) :-0.1452871E+02  (-0.1439286E+02)
 number of electron     390.9999953 magnetization      41.7645370
 augmentation part      118.7081930 magnetization      31.2387353

 Broyden mixing:
  rms(total) = 0.10896E+02    rms(broyden)= 0.10895E+02
  rms(prec ) = 0.13402E+02
  weight for this iteration     100.00

 Free energy of the ion-electron system (eV)
  ---------------------------------------------------
  alpha Z        PSCENC =      1225.79410149
  Ewald energy   TEWEN  =    -24050.68886434
  -Hartree energ DENC   =    -10311.47235675
  -exchange      EXHF   =         0.00000000
  -V(xc)+E(xc)   XCENC  =      1596.51637880
  PAW double counting   =     27500.57083131   -28814.20024788
  entropy T*S    EENTRO =        -0.15000113
  eigenvalues    EBANDS =     -1250.23865553
  atomic energy  EATOM  =     33626.89778075
  Solvation  Ediel_sol  =         0.00000000
  ---------------------------------------------------
  free energy    TOTEN  =      -476.97103328 eV

  energy without entropy =     -476.82103215  energy(sigma->0) =     -476.89603272


--------------------------------------------------------------------------------------------------------




--------------------------------------- Iteration      1(   6)  ---------------------------------------


    POTLOK:  cpu time    0.1330: real time    0.1333
    SETDIJ:  cpu time    0.0180: real time    0.0181
     EDDAV:  cpu time    2.2141: real time    2.2196
    CHARGE:  cpu time    0.1329: real time    0.1332
    MIXING:  cpu time    0.0046: real time    0.0188
    --------------------------------------------
      LOOP:  cpu time    2.5027: real time    2.5231

 eigenvalue-minimisations  :  1504
 total energy-change (2. order) :-0.1003503E+02  (-0.1090854E+03)
 number of electron     390.9999902 magnetization      36.1622528
 augmentation part      147.1000663 magnetization      33.0335705

 Broyden mixing:
  rms(total) = 0.18019E+02    rms(broyden)= 0.18018E+02
  rms(prec ) = 0.19869E+02
  weight for this iteration     100.00

 eigenvalues of (default mixing * dielectric matrix)
  average eigenvalue GAMMA=   0.2420
  0.2420

 Free energy of the ion-electron system (eV)
  ---------------------------------------------------
  alpha Z        PSCENC =      1225.79410149
  Ewald energy   TEWEN  =    -24050.68886434
  -Hartree energ DENC   =     -9846.29644276
  -exchange      EXHF   =         0.00000000
  -V(xc)+E(xc)   XCENC  =      1608.53814646
  PAW double counting   =     30206.15553849   -31356.68126401
  entropy T*S    EENTRO =        -0.04806442
  eigenvalues    EBANDS =     -1900.67699696
  atomic energy  EATOM  =     33626.89778075
  Solvation  Ediel_sol  =         0.00000000
  ---------------------------------------------------
  free energy    TOTEN  =      -487.00606530 eV

  energy without entropy =     -486.95800088  energy(sigma->0) =     -486.98203309


--------------------------------------------------------------------------------------------------------




--------------------------------------- Iteration      1(   7)  ---------------------------------------


    POTLOK:  cpu time    0.1597: real time    0.1601
    SETDIJ:  cpu time    0.0222: real time    0.0223
     EDDAV:  cpu time    2.5052: real time    2.5112
    CHARGE:  cpu time    0.1295: real time    0.1298
    MIXING:  cpu time    0.0036: real time    0.0036
    --------------------------------------------
      LOOP:  cpu time    2.8202: real time    2.8269

 eigenvalue-minimisations  :  1376
 total energy-change (2. order) : 0.1105021E+03  (-0.2626954E+02)
 number of electron     390.9999910 magnetization      27.5152775
 augmentation part      135.1582677 magnetization      24.6413172

 Broyden mixing:
  rms(total) = 0.58074E+01    rms(broyden)= 0.58068E+01
  rms(prec ) = 0.66495E+01
  weight for this iteration     100.00

 eigenvalues of (default mixing * dielectric matrix)
  average eigenvalue GAMMA=   0.5592
  0.5592  0.5592

 Free energy of the ion-electron system (eV)
  ---------------------------------------------------
  alpha Z        PSCENC =      1225.79410149
  Ewald energy   TEWEN  =    -24050.68886434
  -Hartree energ DENC   =    -10035.11234899
  -exchange      EXHF   =         0.00000000
  -V(xc)+E(xc)   XCENC  =      1597.09839978
  PAW double counting   =     31458.20162701   -32729.17668234
  entropy T*S    EENTRO =        -0.01997452
  eigenvalues    EBANDS =     -1469.49799371
  atomic energy  EATOM  =     33626.89778075
  Solvation  Ediel_sol  =         0.00000000
  ---------------------------------------------------
  free energy    TOTEN  =      -376.50395488 eV

  energy without entropy =     -376.48398036  energy(sigma->0) =     -376.49396762


--------------------------------------------------------------------------------------------------------




--------------------------------------- Iteration      1(   8)  ---------------------------------------


    POTLOK:  cpu time    0.1558: real time    0.1562
    SETDIJ:  cpu time    0.0220: real time    0.0220
     EDDAV:  cpu time    2.7025: real time    2.7090
    CHARGE:  cpu time    0.1307: real time    0.1311
    MIXING:  cpu time    0.0037: real time    0.0037
    --------------------------------------------
      LOOP:  cpu time    3.0148: real time    3.0220

 eigenvalue-minimisations  :  1504
 total energy-change (2. order) :-0.1862409E+01  (-0.1070759E+02)
 number of electron     390.9999910 magnetization      25.0421554
 augmentation part      128.5819728 magnetization      20.5643165

 Broyden mixing:
  rms(total) = 0.76966E+01    rms(broyden)= 0.76960E+01
  rms(prec ) = 0.10537E+02
  weight for this iteration     100.00

 eigenvalues of (default mixing * dielectric matrix)
  average eigenvalue GAMMA=   0.4937
  0.6282  0.6282  0.2247

 Free energy of the ion-electron system (eV)
  ---------------------------------------------------
  alpha Z        PSCENC =      1225.79410149
  Ewald energy   TEWEN  =    -24050.68886434
  -Hartree energ DENC   =    -10044.91559222
  -exchange      EXHF   =         0.00000000
  -V(xc)+E(xc)   XCENC  =      1588.12746989
  PAW double counting   =     32725.51817713   -34053.59070360
  entropy T*S    EENTRO =        -0.04081421
  eigenvalues    EBANDS =     -1395.46791925
  atomic energy  EATOM  =     33626.89778075
  Solvation  Ediel_sol  =         0.00000000
  ---------------------------------------------------
  free energy    TOTEN  =      -378.36636437 eV

  energy without entropy =     -378.32555015  energy(sigma->0) =     -378.34595726


--------------------------------------------------------------------------------------------------------




--------------------------------------- Iteration      1(   9)  ---------------------------------------


    POTLOK:  cpu time    0.1609: real time    0.1613
    SETDIJ:  cpu time    0.0223: real time    0.0224
     EDDAV:  cpu time    2.4627: real time    2.4687
    CHARGE:  cpu time    0.1321: real time    0.1324
    MIXING:  cpu time    0.0038: real time    0.0038
    --------------------------------------------
      LOOP:  cpu time    2.7818: real time    2.7885

 eigenvalue-minimisations  :  1344
 total energy-change (2. order) :-0.2729971E+01  (-0.1801871E+02)
 number of electron     390.9999910 magnetization      19.1731015
 augmentation part      129.1380880 magnetization      16.7355766

 Broyden mixing:
  rms(total) = 0.57593E+01    rms(broyden)= 0.57584E+01
  rms(prec ) = 0.74634E+01
  weight for this iteration     100.00

 eigenvalues of (default mixing * dielectric matrix)
  average eigenvalue GAMMA=   0.5104
  0.8850  0.6315  0.4032  0.1217

 Free energy of the ion-electron system (eV)
  ---------------------------------------------------
  alpha Z        PSCENC =      1225.79410149
  Ewald energy   TEWEN  =    -24050.68886434
  -Hartree energ DENC   =    -10026.03750463
  -exchange      EXHF   =         0.00000000
  -V(xc)+E(xc)   XCENC  =      1586.46303540
  PAW double counting   =     33197.82425246   -34532.81883269
  entropy T*S    EENTRO =        -0.03887501
  eigenvalues    EBANDS =     -1408.49142899
  atomic energy  EATOM  =     33626.89778075
  Solvation  Ediel_sol  =         0.00000000
  ---------------------------------------------------
  free energy    TOTEN  =      -381.09633555 eV

  energy without entropy =     -381.05746055  energy(sigma->0) =     -381.07689805


--------------------------------------------------------------------------------------------------------




--------------------------------------- Iteration      1(  10)  ---------------------------------------


    POTLOK:  cpu time    0.1589: real time    0.1593
    SETDIJ:  cpu time    0.0222: real time    0.0222
     EDDAV:  cpu time    2.4612: real time    2.4672
    CHARGE:  cpu time    0.1330: real time    0.1333
    MIXING:  cpu time    0.0037: real time    0.0037
    --------------------------------------------
      LOOP:  cpu time    2.7790: real time    2.7857

 eigenvalue-minimisations  :  1360
 total energy-change (2. order) : 0.7580444E+01  (-0.4588053E+01)
 number of electron     390.9999910 magnetization      16.9957708
 augmentation part      130.3544865 magnetization      14.3443359

 Broyden mixing:
  rms(total) = 0.39873E+01    rms(broyden)= 0.39867E+01
  rms(prec ) = 0.52324E+01
  weight for this iteration     100.00

 eigenvalues of (default mixing * dielectric matrix)
  average eigenvalue GAMMA=   0.4989
  1.1295  0.5788  0.3914  0.2645  0.1304

 Free energy of the ion-electron system (eV)
  ---------------------------------------------------
  alpha Z        PSCENC =      1225.79410149
  Ewald energy   TEWEN  =    -24050.68886434
  -Hartree energ DENC   =     -9995.08020203
  -exchange      EXHF   =         0.00000000
  -V(xc)+E(xc)   XCENC  =      1584.43019370
  PAW double counting   =     34165.69958500   -35512.39371280
  entropy T*S    EENTRO =        -0.02971919
  eigenvalues    EBANDS =     -1418.14505444
  atomic energy  EATOM  =     33626.89778075
  Solvation  Ediel_sol  =         0.00000000
  ---------------------------------------------------
  free energy    TOTEN  =      -373.51589188 eV

  energy without entropy =     -373.48617269  energy(sigma->0) =     -373.50103228


--------------------------------------------------------------------------------------------------------




--------------------------------------- Iteration      1(  11)  ---------------------------------------


    POTLOK:  cpu time    0.1540: real time    0.1543
    SETDIJ:  cpu time    0.0221: real time    0.0222
     EDDAV:  cpu time    2.4103: real time    2.4161
    CHARGE:  cpu time    0.1219: real time    0.1222
    MIXING:  cpu time    0.0037: real time    0.0037
    --------------------------------------------
      LOOP:  cpu time    2.7120: real time    2.7185

 eigenvalue-minimisations  :  1328
 total energy-change (2. order) : 0.3977582E+01  (-0.2755828E+01)
 number of electron     390.9999910 magnetization      12.4597902
 augmentation part      130.6589909 magnetization      10.4304165

 Broyden mixing:
  rms(total) = 0.24758E+01    rms(broyden)= 0.24750E+01
  rms(prec ) = 0.32485E+01
  weight for this iteration     100.00

 eigenvalues of (default mixing * dielectric matrix)
  average eigenvalue GAMMA=   0.5400
  1.4981  0.6497  0.4066  0.4066  0.1589  0.1199

 Free energy of the ion-electron system (eV)
  ---------------------------------------------------
  alpha Z        PSCENC =      1225.79410149
  Ewald energy   TEWEN  =    -24050.68886434
  -Hartree energ DENC   =     -9996.03999955
  -exchange      EXHF   =         0.00000000
  -V(xc)+E(xc)   XCENC  =      1584.27147194
  PAW double counting   =     34516.61981376   -35868.98645850
  entropy T*S    EENTRO =        -0.03959142
  eigenvalues    EBANDS =     -1407.36656380
  atomic energy  EATOM  =     33626.89778075
  Solvation  Ediel_sol  =         0.00000000
  ---------------------------------------------------
  free energy    TOTEN  =      -369.53830967 eV

  energy without entropy =     -369.49871825  energy(sigma->0) =     -369.51851396


--------------------------------------------------------------------------------------------------------




--------------------------------------- Iteration      1(  12)  ---------------------------------------


    POTLOK:  cpu time    0.1589: real time    0.1593
    SETDIJ:  cpu time    0.0234: real time    0.0234
     EDDAV:  cpu time    2.5027: real time    2.5087
    CHARGE:  cpu time    0.1320: real time    0.1323
    MIXING:  cpu time    0.0049: real time    0.0049
    --------------------------------------------
      LOOP:  cpu time    2.8219: real time    2.8287

 eigenvalue-minimisations  :  1392
 total energy-change (2. order) :-0.1706326E+01  (-0.1665668E+01)
 number of electron     390.9999909 magnetization      10.2129509
 augmentation part      130.4092494 magnetization       8.3990888

 Broyden mixing:
  rms(total) = 0.29796E+01    rms(broyden)= 0.29787E+01
  rms(prec ) = 0.39351E+01
  weight for this iteration     100.00

 eigenvalues of (default mixing * dielectric matrix)
  average eigenvalue GAMMA=   0.5274
  1.7108  0.5691  0.4690  0.3400  0.3400  0.1465  0.1166

 Free energy of the ion-electron system (eV)
  ---------------------------------------------------
  alpha Z        PSCENC =      1225.79410149
  Ewald energy   TEWEN  =    -24050.68886434
  -Hartree energ DENC   =    -10008.67542450
  -exchange      EXHF   =         0.00000000
  -V(xc)+E(xc)   XCENC  =      1584.56440768
  PAW double counting   =     35136.38117213   -36499.78201321
  entropy T*S    EENTRO =        -0.04565457
  eigenvalues    EBANDS =     -1385.69014123
  atomic energy  EATOM  =     33626.89778075
  Solvation  Ediel_sol  =         0.00000000
  ---------------------------------------------------
  free energy    TOTEN  =      -371.24463581 eV

  energy without entropy =     -371.19898124  energy(sigma->0) =     -371.22180852


--------------------------------------------------------------------------------------------------------




--------------------------------------- Iteration      1(  13)  ---------------------------------------


    POTLOK:  cpu time    0.1590: real time    0.1594
    SETDIJ:  cpu time    0.0223: real time    0.0223
     EDDAV:  cpu time    2.3083: real time    2.3138
    CHARGE:  cpu time    0.1326: real time    0.1329
    MIXING:  cpu time    0.0044: real time    0.0044
    --------------------------------------------
      LOOP:  cpu time    2.6266: real time    2.6329

 eigenvalue-minimisations  :  1264
 total energy-change (2. order) : 0.1872106E+01  (-0.2269978E+01)
 number of electron     390.9999909 magnetization       8.1952645
 augmentation part      130.3246783 magnetization       6.3682899

 Broyden mixing:
  rms(total) = 0.16696E+01    rms(broyden)= 0.16683E+01
  rms(prec ) = 0.22974E+01
  weight for this iteration     100.00

 eigenvalues of (default mixing * dielectric matrix)
  average eigenvalue GAMMA=   0.5495
  1.8805  0.5952  0.5952  0.4619  0.4619  0.1438  0.1438  0.1135

 Free energy of the ion-electron system (eV)
  ---------------------------------------------------
  alpha Z        PSCENC =      1225.79410149
  Ewald energy   TEWEN  =    -24050.68886434
  -Hartree energ DENC   =    -10013.00627509
  -exchange      EXHF   =         0.00000000
  -V(xc)+E(xc)   XCENC  =      1584.68166761
  PAW double counting   =     35451.90358618   -36820.59592706
  entropy T*S    EENTRO =        -0.03348672
  eigenvalues    EBANDS =     -1374.32511230
  atomic energy  EATOM  =     33626.89778075
  Solvation  Ediel_sol  =         0.00000000
  ---------------------------------------------------
  free energy    TOTEN  =      -369.37252948 eV

  energy without entropy =     -369.33904276  energy(sigma->0) =     -369.35578612


--------------------------------------------------------------------------------------------------------




--------------------------------------- Iteration      1(  14)  ---------------------------------------


    POTLOK:  cpu time    0.1594: real time    0.1597
    SETDIJ:  cpu time    0.0223: real time    0.0223
     EDDAV:  cpu time    2.4532: real time    2.4591
    CHARGE:  cpu time    0.1312: real time    0.1315
    MIXING:  cpu time    0.0048: real time    0.0048
    --------------------------------------------
      LOOP:  cpu time    2.7710: real time    2.7776

 eigenvalue-minimisations  :  1360
 total energy-change (2. order) :-0.6788142E+00  (-0.1357198E+01)
 number of electron     390.9999909 magnetization       7.3393985
 augmentation part      130.3056371 magnetization       5.4538513

 Broyden mixing:
  rms(total) = 0.21033E+01    rms(broyden)= 0.21025E+01
  rms(prec ) = 0.28806E+01
  weight for this iteration     100.00

 eigenvalues of (default mixing * dielectric matrix)
  average eigenvalue GAMMA=   0.5284
  1.9239  0.6600  0.6600  0.4564  0.4564  0.2112  0.1592  0.1195  0.1085

 Free energy of the ion-electron system (eV)
  ---------------------------------------------------
  alpha Z        PSCENC =      1225.79410149
  Ewald energy   TEWEN  =    -24050.68886434
  -Hartree energ DENC   =    -10017.39991885
  -exchange      EXHF   =         0.00000000
  -V(xc)+E(xc)   XCENC  =      1584.91282954
  PAW double counting   =     35696.82418548   -37068.43063918
  entropy T*S    EENTRO =        -0.03093508
  eigenvalues    EBANDS =     -1367.92988348
  atomic energy  EATOM  =     33626.89778075
  Solvation  Ediel_sol  =         0.00000000
  ---------------------------------------------------
  free energy    TOTEN  =      -370.05134367 eV

  energy without entropy =     -370.02040859  energy(sigma->0) =     -370.03587613


--------------------------------------------------------------------------------------------------------




--------------------------------------- Iteration      1(  15)  ---------------------------------------


    POTLOK:  cpu time    0.1590: real time    0.1594
    SETDIJ:  cpu time    0.0224: real time    0.0225
     EDDAV:  cpu time    2.3655: real time    2.3711
    CHARGE:  cpu time    0.1337: real time    0.1340
    MIXING:  cpu time    0.0052: real time    0.0052
    --------------------------------------------
      LOOP:  cpu time    2.6857: real time    2.6921

 eigenvalue-minimisations  :  1296
 total energy-change (2. order) : 0.1300137E+01  (-0.8790423E+00)
 number of electron     390.9999909 magnetization       7.2564622
 augmentation part      130.2844674 magnetization       5.0511446

 Broyden mixing:
  rms(total) = 0.10717E+01    rms(broyden)= 0.10705E+01
  rms(prec ) = 0.13279E+01
  weight for this iteration     100.00

 eigenvalues of (default mixing * dielectric matrix)
  average eigenvalue GAMMA=   0.5448
  1.9188  0.8376  0.8376  0.4688  0.4688  0.3997  0.1595  0.1397  0.1149  0.1022

 Free energy of the ion-electron system (eV)
  ---------------------------------------------------
  alpha Z        PSCENC =      1225.79410149
  Ewald energy   TEWEN  =    -24050.68886434
  -Hartree energ DENC   =    -10020.55816672
  -exchange      EXHF   =         0.00000000
  -V(xc)+E(xc)   XCENC  =      1585.04619078
  PAW double counting   =     35808.09685580   -37181.31262032
  entropy T*S    EENTRO =        -0.07368847
  eigenvalues    EBANDS =     -1361.95279564
  atomic energy  EATOM  =     33626.89778075
  Solvation  Ediel_sol  =         0.00000000
  ---------------------------------------------------
  free energy    TOTEN  =      -368.75120667 eV

  energy without entropy =     -368.67751821  energy(sigma->0) =     -368.71436244


--------------------------------------------------------------------------------------------------------




--------------------------------------- Iteration      1(  16)  ---------------------------------------


    POTLOK:  cpu time    0.1628: real time    0.1632
    SETDIJ:  cpu time    0.0237: real time    0.0238
     EDDAV:  cpu time    2.4517: real time    2.4575
    CHARGE:  cpu time    0.1323: real time    0.1326
    MIXING:  cpu time    0.0057: real time    0.0057
    --------------------------------------------
      LOOP:  cpu time    2.7762: real time    2.7828

 eigenvalue-minimisations  :  1360
 total energy-change (2. order) :-0.3096129E+00  (-0.4371856E+00)
 number of electron     390.9999907 magnetization       7.3459034
 augmentation part      130.0790521 magnetization       5.0576887

 Broyden mixing:
  rms(total) = 0.12864E+01    rms(broyden)= 0.12859E+01
  rms(prec ) = 0.17213E+01
  weight for this iteration     100.00

 eigenvalues of (default mixing * dielectric matrix)
  average eigenvalue GAMMA=   0.5176
  1.9123  0.8960  0.8960  0.4730  0.4730  0.3932  0.1752  0.1331  0.1296  0.1200
  0.0924

 Free energy of the ion-electron system (eV)
  ---------------------------------------------------
  alpha Z        PSCENC =      1225.79410149
  Ewald energy   TEWEN  =    -24050.68886434
  -Hartree energ DENC   =    -10024.23772167
  -exchange      EXHF   =         0.00000000
  -V(xc)+E(xc)   XCENC  =      1585.17028849
  PAW double counting   =     35847.70139773   -37221.15547879
  entropy T*S    EENTRO =        -0.02983734
  eigenvalues    EBANDS =     -1358.51248589
  atomic energy  EATOM  =     33626.89778075
  Solvation  Ediel_sol  =         0.00000000
  ---------------------------------------------------
  free energy    TOTEN  =      -369.06081958 eV

  energy without entropy =     -369.03098224  energy(sigma->0) =     -369.04590091


--------------------------------------------------------------------------------------------------------




--------------------------------------- Iteration      1(  17)  ---------------------------------------


    POTLOK:  cpu time    0.1601: real time    0.1605
    SETDIJ:  cpu time    0.0224: real time    0.0224
     EDDAV:  cpu time    2.4793: real time    2.4853
    CHARGE:  cpu time    0.1309: real time    0.1313
    MIXING:  cpu time    0.0052: real time    0.0052
    --------------------------------------------
      LOOP:  cpu time    2.7979: real time    2.8046

 eigenvalue-minimisations  :  1376
 total energy-change (2. order) : 0.3388698E+00  (-0.1503586E+00)
 number of electron     390.9999909 magnetization       7.7411021
 augmentation part      130.0349833 magnetization       4.8130487

 Broyden mixing:
  rms(total) = 0.75211E+00    rms(broyden)= 0.75172E+00
  rms(prec ) = 0.83350E+00
  weight for this iteration     100.00

 eigenvalues of (default mixing * dielectric matrix)
  average eigenvalue GAMMA=   0.4982
  1.8967  0.9334  0.9334  0.4805  0.4805  0.3085  0.3085  0.1521  0.1521  0.1250
  0.1101  0.0970

 Free energy of the ion-electron system (eV)
  ---------------------------------------------------
  alpha Z        PSCENC =      1225.79410149
  Ewald energy   TEWEN  =    -24050.68886434
  -Hartree energ DENC   =    -10025.83761113
  -exchange      EXHF   =         0.00000000
  -V(xc)+E(xc)   XCENC  =      1585.25709768
  PAW double counting   =     35858.64832376   -37231.96302748
  entropy T*S    EENTRO =        -0.02781954
  eigenvalues    EBANDS =     -1356.80193092
  atomic energy  EATOM  =     33626.89778075
  Solvation  Ediel_sol  =         0.00000000
  ---------------------------------------------------
  free energy    TOTEN  =      -368.72194974 eV

  energy without entropy =     -368.69413020  energy(sigma->0) =     -368.70803997


--------------------------------------------------------------------------------------------------------




--------------------------------------- Iteration      1(  18)  ---------------------------------------


    POTLOK:  cpu time    0.1564: real time    0.1567
    SETDIJ:  cpu time    0.0215: real time    0.0216
     EDDAV:  cpu time    2.5227: real time    2.5287
    CHARGE:  cpu time    0.1319: real time    0.1322
    MIXING:  cpu time    0.0056: real time    0.0056
    --------------------------------------------
      LOOP:  cpu time    2.8380: real time    2.8447

 eigenvalue-minimisations  :  1424
 total energy-change (2. order) :-0.5896717E-01  (-0.4872583E-01)
 number of electron     390.9999909 magnetization       7.9998166
 augmentation part      130.0017860 magnetization       5.0602010

 Broyden mixing:
  rms(total) = 0.70806E+00    rms(broyden)= 0.70797E+00
  rms(prec ) = 0.81686E+00
  weight for this iteration     100.00

 eigenvalues of (default mixing * dielectric matrix)
  average eigenvalue GAMMA=   0.4838
  1.9130  0.9447  0.9447  0.4803  0.4803  0.3129  0.2837  0.2837  0.1746  0.1359
  0.1248  0.1168  0.0936

 Free energy of the ion-electron system (eV)
  ---------------------------------------------------
  alpha Z        PSCENC =      1225.79410149
  Ewald energy   TEWEN  =    -24050.68886434
  -Hartree energ DENC   =    -10026.22349123
  -exchange      EXHF   =         0.00000000
  -V(xc)+E(xc)   XCENC  =      1585.32000832
  PAW double counting   =     35856.17652948   -37228.98160681
  entropy T*S    EENTRO =        -0.00996072
  eigenvalues    EBANDS =     -1357.06541384
  atomic energy  EATOM  =     33626.89778075
  Solvation  Ediel_sol  =         0.00000000
  ---------------------------------------------------
  free energy    TOTEN  =      -368.78091691 eV

  energy without entropy =     -368.77095619  energy(sigma->0) =     -368.77593655


--------------------------------------------------------------------------------------------------------




--------------------------------------- Iteration      1(  19)  ---------------------------------------


    POTLOK:  cpu time    0.1604: real time    0.1608
    SETDIJ:  cpu time    0.0222: real time    0.0222
     EDDAV:  cpu time    2.5040: real time    2.5099
    CHARGE:  cpu time    0.1312: real time    0.1315
    MIXING:  cpu time    0.0062: real time    0.0062
    --------------------------------------------
      LOOP:  cpu time    2.8240: real time    2.8307

 eigenvalue-minimisations  :  1392
 total energy-change (2. order) :-0.4565861E-01  (-0.2642239E-01)
 number of electron     390.9999909 magnetization       8.3231205
 augmentation part      129.9881304 magnetization       5.4051347

 Broyden mixing:
  rms(total) = 0.59993E+00    rms(broyden)= 0.59985E+00
  rms(prec ) = 0.67379E+00
  weight for this iteration     100.00

 eigenvalues of (default mixing * dielectric matrix)
  average eigenvalue GAMMA=   0.5165
  1.9395  0.9526  0.9526  0.6306  0.6306  0.4637  0.4637  0.4175  0.1753  0.1419
  0.1419  0.1173  0.1115  0.0926

 Free energy of the ion-electron system (eV)
  ---------------------------------------------------
  alpha Z        PSCENC =      1225.79410149
  Ewald energy   TEWEN  =    -24050.68886434
  -Hartree energ DENC   =    -10026.66902288
  -exchange      EXHF   =         0.00000000
  -V(xc)+E(xc)   XCENC  =      1585.39919915
  PAW double counting   =     35871.41277863   -37244.12287677
  entropy T*S    EENTRO =        -0.00233467
  eigenvalues    EBANDS =     -1356.84733687
  atomic energy  EATOM  =     33626.89778075
  Solvation  Ediel_sol  =         0.00000000
  ---------------------------------------------------
  free energy    TOTEN  =      -368.82657552 eV

  energy without entropy =     -368.82424085  energy(sigma->0) =     -368.82540818


--------------------------------------------------------------------------------------------------------




--------------------------------------- Iteration      1(  20)  ---------------------------------------


    POTLOK:  cpu time    0.1587: real time    0.1591
    SETDIJ:  cpu time    0.0219: real time    0.0220
     EDDAV:  cpu time    2.4780: real time    2.4839
    CHARGE:  cpu time    0.1292: real time    0.1296
    MIXING:  cpu time    0.0056: real time    0.0056
    --------------------------------------------
      LOOP:  cpu time    2.7935: real time    2.8002

 eigenvalue-minimisations  :  1376
 total energy-change (2. order) :-0.1142334E+00  (-0.5409784E-01)
 number of electron     390.9999909 magnetization       8.5229349
 augmentation part      130.0361241 magnetization       5.6712512

 Broyden mixing:
  rms(total) = 0.64724E+00    rms(broyden)= 0.64714E+00
  rms(prec ) = 0.80590E+00
  weight for this iteration     100.00

 eigenvalues of (default mixing * dielectric matrix)
  average eigenvalue GAMMA=   0.5318
  1.9665  1.0562  1.0562  0.7374  0.7374  0.4693  0.4693  0.4381  0.2831  0.1635
  0.1383  0.1383  0.1156  0.1156  0.0925

 Free energy of the ion-electron system (eV)
  ---------------------------------------------------
  alpha Z        PSCENC =      1225.79410149
  Ewald energy   TEWEN  =    -24050.68886434
  -Hartree energ DENC   =    -10027.08920631
  -exchange      EXHF   =         0.00000000
  -V(xc)+E(xc)   XCENC  =      1585.58284391
  PAW double counting   =     35935.60602859   -37308.07886107
  entropy T*S    EENTRO =        -0.00257921
  eigenvalues    EBANDS =     -1356.96205271
  atomic energy  EATOM  =     33626.89778075
  Solvation  Ediel_sol  =         0.00000000
  ---------------------------------------------------
  free energy    TOTEN  =      -368.94080890 eV

  energy without entropy =     -368.93822970  energy(sigma->0) =     -368.93951930


--------------------------------------------------------------------------------------------------------




--------------------------------------- Iteration      1(  21)  ---------------------------------------


    POTLOK:  cpu time    0.1568: real time    0.1572
    SETDIJ:  cpu time    0.0223: real time    0.0223
     EDDAV:  cpu time    2.5738: real time    2.5800
    CHARGE:  cpu time    0.1325: real time    0.1328
    MIXING:  cpu time    0.0068: real time    0.0068
    --------------------------------------------
      LOOP:  cpu time    2.8922: real time    2.8991

 eigenvalue-minimisations  :  1424
 total energy-change (2. order) : 0.2371945E-01  (-0.4388282E-01)
 number of electron     390.9999910 magnetization       8.6905623
 augmentation part      130.0945933 magnetization       5.9092627

 Broyden mixing:
  rms(total) = 0.42046E+00    rms(broyden)= 0.42029E+00
  rms(prec ) = 0.50365E+00
  weight for this iteration     100.00

 eigenvalues of (default mixing * dielectric matrix)
  average eigenvalue GAMMA=   0.5552
  1.9714  1.2302  1.2302  0.8010  0.8010  0.5210  0.5210  0.4280  0.4280  0.1963
  0.1603  0.1370  0.1370  0.1145  0.1145  0.0924

 Free energy of the ion-electron system (eV)
  ---------------------------------------------------
  alpha Z        PSCENC =      1225.79410149
  Ewald energy   TEWEN  =    -24050.68886434
  -Hartree energ DENC   =    -10028.03577166
  -exchange      EXHF   =         0.00000000
  -V(xc)+E(xc)   XCENC  =      1585.80395735
  PAW double counting   =     36008.56290568   -37380.76393652
  entropy T*S    EENTRO =        -0.00063248
  eigenvalues    EBANDS =     -1356.48662971
  atomic energy  EATOM  =     33626.89778075
  Solvation  Ediel_sol  =         0.00000000
  ---------------------------------------------------
  free energy    TOTEN  =      -368.91708945 eV

  energy without entropy =     -368.91645696  energy(sigma->0) =     -368.91677321


--------------------------------------------------------------------------------------------------------




--------------------------------------- Iteration      1(  22)  ---------------------------------------


    POTLOK:  cpu time    0.1598: real time    0.1602
    SETDIJ:  cpu time    0.0222: real time    0.0222
     EDDAV:  cpu time    2.6301: real time    2.6363
    CHARGE:  cpu time    0.1184: real time    0.1187
    MIXING:  cpu time    0.0064: real time    0.0064
    --------------------------------------------
      LOOP:  cpu time    2.9369: real time    2.9439

 eigenvalue-minimisations  :  1488
 total energy-change (2. order) :-0.2135722E-01  (-0.3899169E-01)
 number of electron     390.9999909 magnetization       8.7349545
 augmentation part      130.1073376 magnetization       5.9744064

 Broyden mixing:
  rms(total) = 0.37774E+00    rms(broyden)= 0.37764E+00
  rms(prec ) = 0.46890E+00
  weight for this iteration     100.00

 eigenvalues of (default mixing * dielectric matrix)
  average eigenvalue GAMMA=   0.5473
  1.9937  1.2606  1.2606  0.8504  0.8504  0.5209  0.5209  0.4115  0.4115  0.2679
  0.1996  0.1580  0.1382  0.1382  0.1149  0.1149  0.0924

 Free energy of the ion-electron system (eV)
  ---------------------------------------------------
  alpha Z        PSCENC =      1225.79410149
  Ewald energy   TEWEN  =    -24050.68886434
  -Hartree energ DENC   =    -10029.59183835
  -exchange      EXHF   =         0.00000000
  -V(xc)+E(xc)   XCENC  =      1585.98599400
  PAW double counting   =     36051.02131254   -37422.89581255
  entropy T*S    EENTRO =        -0.00267949
  eigenvalues    EBANDS =     -1355.45844071
  atomic energy  EATOM  =     33626.89778075
  Solvation  Ediel_sol  =         0.00000000
  ---------------------------------------------------
  free energy    TOTEN  =      -368.93844667 eV

  energy without entropy =     -368.93576718  energy(sigma->0) =     -368.93710692


--------------------------------------------------------------------------------------------------------




--------------------------------------- Iteration      1(  23)  ---------------------------------------


    POTLOK:  cpu time    0.1572: real time    0.1576
    SETDIJ:  cpu time    0.0228: real time    0.0229
     EDDAV:  cpu time    2.5510: real time    2.5570
    CHARGE:  cpu time    0.1314: real time    0.1317
    MIXING:  cpu time    0.0068: real time    0.0068
    --------------------------------------------
      LOOP:  cpu time    2.8692: real time    2.8760

 eigenvalue-minimisations  :  1424
 total energy-change (2. order) : 0.2217621E-02  (-0.2356331E-01)
 number of electron     390.9999910 magnetization       8.7230775
 augmentation part      130.0841349 magnetization       5.9981098

 Broyden mixing:
  rms(total) = 0.29348E+00    rms(broyden)= 0.29338E+00
  rms(prec ) = 0.34188E+00
  weight for this iteration     100.00

 eigenvalues of (default mixing * dielectric matrix)
  average eigenvalue GAMMA=   0.5239
  1.9881  1.2724  1.2724  0.8629  0.8629  0.5144  0.5144  0.4054  0.4054  0.2997
  0.2039  0.1582  0.1387  0.1387  0.1150  0.1150  0.0924  0.0702

 Free energy of the ion-electron system (eV)
  ---------------------------------------------------
  alpha Z        PSCENC =      1225.79410149
  Ewald energy   TEWEN  =    -24050.68886434
  -Hartree energ DENC   =    -10030.67290097
  -exchange      EXHF   =         0.00000000
  -V(xc)+E(xc)   XCENC  =      1586.07167094
  PAW double counting   =     36072.53428311   -37444.46729770
  entropy T*S    EENTRO =        -0.00182811
  eigenvalues    EBANDS =     -1354.40317421
  atomic energy  EATOM  =     33626.89778075
  Solvation  Ediel_sol  =         0.00000000
  ---------------------------------------------------
  free energy    TOTEN  =      -368.93622904 eV

  energy without entropy =     -368.93440093  energy(sigma->0) =     -368.93531499


--------------------------------------------------------------------------------------------------------




--------------------------------------- Iteration      1(  24)  ---------------------------------------


    POTLOK:  cpu time    0.1590: real time    0.1594
    SETDIJ:  cpu time    0.0226: real time    0.0226
     EDDAV:  cpu time    2.6837: real time    2.6901
    CHARGE:  cpu time    0.1327: real time    0.1330
    MIXING:  cpu time    0.0070: real time    0.0070
    --------------------------------------------
      LOOP:  cpu time    3.0050: real time    3.0122

 eigenvalue-minimisations  :  1520
 total energy-change (2. order) :-0.5990678E-02  (-0.6128105E-02)
 number of electron     390.9999910 magnetization       8.7237527
 augmentation part      130.0839205 magnetization       5.9922131

 Broyden mixing:
  rms(total) = 0.25645E+00    rms(broyden)= 0.25642E+00
  rms(prec ) = 0.28792E+00
  weight for this iteration     100.00

 eigenvalues of (default mixing * dielectric matrix)
  average eigenvalue GAMMA=   0.5216
  1.9895  1.2923  1.2923  0.8773  0.8773  0.5063  0.5063  0.3963  0.3963  0.3159
  0.3159  0.1951  0.1951  0.1554  0.1381  0.1381  0.1148  0.1148  0.0924

 Free energy of the ion-electron system (eV)
  ---------------------------------------------------
  alpha Z        PSCENC =      1225.79410149
  Ewald energy   TEWEN  =    -24050.68886434
  -Hartree energ DENC   =    -10030.65631653
  -exchange      EXHF   =         0.00000000
  -V(xc)+E(xc)   XCENC  =      1586.07924217
  PAW double counting   =     36074.44611470   -37446.31335566
  entropy T*S    EENTRO =        -0.00222375
  eigenvalues    EBANDS =     -1354.49869854
  atomic energy  EATOM  =     33626.89778075
  Solvation  Ediel_sol  =         0.00000000
  ---------------------------------------------------
  free energy    TOTEN  =      -368.94221972 eV

  energy without entropy =     -368.93999598  energy(sigma->0) =     -368.94110785


--------------------------------------------------------------------------------------------------------




--------------------------------------- Iteration      1(  25)  ---------------------------------------


    POTLOK:  cpu time    0.1565: real time    0.1569
    SETDIJ:  cpu time    0.0222: real time    0.0222
     EDDAV:  cpu time    2.5752: real time    2.5813
    CHARGE:  cpu time    0.1330: real time    0.1333
    MIXING:  cpu time    0.0074: real time    0.0074
    --------------------------------------------
      LOOP:  cpu time    2.8942: real time    2.9011

 eigenvalue-minimisations  :  1440
 total energy-change (2. order) :-0.1111309E-01  (-0.3283064E-02)
 number of electron     390.9999910 magnetization       8.7721561
 augmentation part      130.0752833 magnetization       6.0457022

 Broyden mixing:
  rms(total) = 0.23202E+00    rms(broyden)= 0.23199E+00
  rms(prec ) = 0.26216E+00
  weight for this iteration     100.00

 eigenvalues of (default mixing * dielectric matrix)
  average eigenvalue GAMMA=   0.6188
  1.9728  1.8546  1.8546  1.0239  1.0239  0.7053  0.7053  0.5203  0.5203  0.4439
  0.4439  0.2257  0.1884  0.0924  0.1599  0.1147  0.1147  0.1394  0.1394  0.1319

 Free energy of the ion-electron system (eV)
  ---------------------------------------------------
  alpha Z        PSCENC =      1225.79410149
  Ewald energy   TEWEN  =    -24050.68886434
  -Hartree energ DENC   =    -10030.88325098
  -exchange      EXHF   =         0.00000000
  -V(xc)+E(xc)   XCENC  =      1586.11957970
  PAW double counting   =     36083.66190807   -37455.55174144
  entropy T*S    EENTRO =        -0.00165676
  eigenvalues    EBANDS =     -1354.30118931
  atomic energy  EATOM  =     33626.89778075
  Solvation  Ediel_sol  =         0.00000000
  ---------------------------------------------------
  free energy    TOTEN  =      -368.95333281 eV

  energy without entropy =     -368.95167606  energy(sigma->0) =     -368.95250443


--------------------------------------------------------------------------------------------------------




--------------------------------------- Iteration      1(  26)  ---------------------------------------


    POTLOK:  cpu time    0.1607: real time    0.1611
    SETDIJ:  cpu time    0.0219: real time    0.0219
     EDDAV:  cpu time    2.5288: real time    2.5348
    CHARGE:  cpu time    0.1337: real time    0.1340
    MIXING:  cpu time    0.0076: real time    0.0077
    --------------------------------------------
      LOOP:  cpu time    2.8527: real time    2.8595

 eigenvalue-minimisations  :  1408
 total energy-change (2. order) :-0.2966874E-01  (-0.1035417E-01)
 number of electron     390.9999910 magnetization       8.8590902
 augmentation part      130.0757694 magnetization       6.1184998

 Broyden mixing:
  rms(total) = 0.22263E+00    rms(broyden)= 0.22257E+00
  rms(prec ) = 0.28805E+00
  weight for this iteration     100.00

 eigenvalues of (default mixing * dielectric matrix)
  average eigenvalue GAMMA=   0.6348
  2.4236  1.8579  1.8579  1.1066  1.1066  0.6977  0.6977  0.5495  0.5495  0.4403
  0.4403  0.3278  0.2099  0.1790  0.1591  0.0924  0.1384  0.1384  0.1147  0.1147
  0.1287

 Free energy of the ion-electron system (eV)
  ---------------------------------------------------
  alpha Z        PSCENC =      1225.79410149
  Ewald energy   TEWEN  =    -24050.68886434
  -Hartree energ DENC   =    -10030.81707900
  -exchange      EXHF   =         0.00000000
  -V(xc)+E(xc)   XCENC  =      1586.21742620
  PAW double counting   =     36101.33093763   -37473.13685971
  entropy T*S    EENTRO =        -0.00434991
  eigenvalues    EBANDS =     -1354.57609467
  atomic energy  EATOM  =     33626.89778075
  Solvation  Ediel_sol  =         0.00000000
  ---------------------------------------------------
  free energy    TOTEN  =      -368.98300156 eV

  energy without entropy =     -368.97865165  energy(sigma->0) =     -368.98082660


--------------------------------------------------------------------------------------------------------




--------------------------------------- Iteration      1(  27)  ---------------------------------------


[...]
   0.271E+01 0.160E+02 0.577E+02   -.229E+01 -.161E+02 -.583E+02   -.441E+00 0.781E-01 0.580E+00   0.289E-01 0.177E-02 -.168E-02
   -.194E+02 0.162E+02 0.659E+02   0.202E+02 -.162E+02 -.662E+02   -.782E+00 0.613E-01 0.323E+00   -.283E-01 0.257E-02 -.225E-02
   -.406E+02 -.149E+02 0.237E+02   0.414E+02 0.150E+02 -.239E+02   -.807E+00 -.381E-01 0.206E+00   -.253E-01 -.539E-02 -.879E-03
   -.748E+01 -.172E+02 0.690E+02   0.739E+01 0.173E+02 -.693E+02   0.674E-01 -.914E-01 0.287E+00   0.289E-01 -.169E-02 0.269E-02
   0.161E+02 -.134E+02 -.257E+02   -.167E+02 0.135E+02 0.257E+02   0.592E+00 -.168E+00 -.171E-01   -.546E-02 -.164E-02 -.979E-02
   0.176E+02 0.207E+01 0.533E+02   -.177E+02 -.211E+01 -.541E+02   0.111E+00 0.371E-01 0.746E+00   0.341E-02 -.131E-04 0.269E-02
   -.153E+02 -.213E+01 0.218E+02   0.148E+02 0.213E+01 -.222E+02   0.429E+00 -.194E-02 0.402E+00   0.416E-02 -.855E-03 0.730E-02
   -.157E+02 0.231E+01 -.541E+02   0.158E+02 -.237E+01 0.549E+02   -.586E-01 0.653E-01 -.786E+00   0.301E-01 -.610E-02 0.649E-02
   -.199E+01 0.163E+02 -.576E+02   0.161E+01 -.163E+02 0.582E+02   0.376E+00 0.187E-01 -.553E+00   -.172E-02 0.718E-02 -.214E-02
   0.178E+02 0.171E+02 -.641E+02   -.186E+02 -.171E+02 0.644E+02   0.719E+00 -.139E-01 -.350E+00   0.729E-04 0.115E-01 0.263E-02
   0.380E+02 -.153E+02 -.230E+02   -.388E+02 0.153E+02 0.232E+02   0.768E+00 -.111E-01 -.228E+00   -.364E-02 -.113E-01 0.174E-02
   0.713E+01 -.176E+02 -.680E+02   -.707E+01 0.177E+02 0.683E+02   -.595E-01 -.508E-01 -.309E+00   -.512E-02 -.500E-02 -.911E-03
   0.170E+02 -.276E+01 -.203E+02   -.166E+02 0.279E+01 0.207E+02   -.378E+00 -.276E-01 -.463E+00   0.299E-01 0.396E-02 0.275E-02
   -.471E+02 0.138E+02 -.787E+01   0.473E+02 -.140E+02 0.816E+01   -.243E+00 0.127E+00 -.296E+00   -.319E-01 -.757E-02 -.244E-02
   -.157E+02 -.138E+02 0.248E+02   0.163E+02 0.139E+02 -.248E+02   -.606E+00 -.125E+00 0.404E-01   -.332E-01 0.809E-02 -.411E-02
   0.418E+01 -.307E+01 0.248E+03   -.627E+01 0.259E+01 -.261E+03   0.207E+01 0.477E+00 0.125E+02   0.195E-01 -.125E-02 0.108E-01
   0.197E+02 0.484E+01 -.304E+03   -.192E+02 -.496E+01 0.319E+03   -.535E+00 0.132E+00 -.152E+02   0.410E-02 -.125E-01 0.159E-01
   -.659E+01 -.216E+01 -.249E+03   0.894E+01 0.179E+01 0.260E+03   -.237E+01 0.363E+00 -.119E+02   0.203E-01 0.109E-01 -.638E-02
   -.179E+02 0.461E+01 0.306E+03   0.172E+02 -.491E+01 -.321E+03   0.695E+00 0.305E+00 0.154E+02   -.109E-01 -.901E-02 0.100E-01
   0.185E+02 0.277E+01 0.264E+03   -.231E+02 -.297E+01 -.276E+03   0.468E+01 0.184E+00 0.122E+02   -.250E-01 0.177E-01 0.150E-02
   -.328E+02 0.312E+02 -.309E+03   0.369E+02 -.331E+02 0.325E+03   -.410E+01 0.191E+01 -.153E+02   -.144E-01 0.183E-01 0.913E-02
   -.510E+02 -.305E+02 -.301E+03   0.565E+02 0.325E+02 0.317E+03   -.544E+01 -.194E+01 -.163E+02   -.645E-02 -.186E-01 0.163E-02
   -.311E+02 -.240E+01 0.287E+03   0.304E+02 0.255E+01 -.301E+03   0.791E+00 -.138E+00 0.140E+02   -.275E-01 -.173E-01 0.516E-02
   -.143E+02 0.965E+00 -.266E+03   0.192E+02 -.117E+01 0.278E+03   -.493E+01 0.201E+00 -.118E+02   0.135E-01 0.101E-01 0.317E-02
   0.365E+02 0.302E+02 0.309E+03   -.409E+02 -.323E+02 -.324E+03   0.440E+01 0.209E+01 0.153E+02   -.961E-02 0.104E-01 -.174E-01
   0.483E+02 -.287E+02 0.300E+03   -.537E+02 0.305E+02 -.316E+03   0.544E+01 -.186E+01 0.158E+02   -.163E-01 -.103E-01 -.150E-01
   0.297E+02 -.200E+01 -.289E+03   -.288E+02 0.242E+01 0.303E+03   -.938E+00 -.417E+00 -.139E+02   0.582E-02 -.106E-01 0.815E-02
   0.147E+02 0.318E+01 0.250E+03   -.176E+02 -.290E+01 -.262E+03   0.294E+01 -.282E+00 0.123E+02   0.208E-01 0.160E-02 0.131E-01
   -.231E+02 -.505E+01 -.282E+03   0.281E+02 0.510E+01 0.295E+03   -.507E+01 -.597E-01 -.132E+02   0.153E-02 0.125E-01 0.131E-01
   -.819E+01 0.272E+01 -.252E+03   0.108E+02 -.253E+01 0.264E+03   -.265E+01 -.183E+00 -.117E+02   0.128E-01 -.104E-01 -.490E-02
   0.179E+02 -.404E+01 0.285E+03   -.227E+02 0.410E+01 -.298E+03   0.476E+01 -.669E-01 0.133E+02   -.463E-02 0.853E-02 0.732E-02
   0.437E+02 0.336E+02 0.283E+03   -.485E+02 -.354E+02 -.299E+03   0.475E+01 0.181E+01 0.162E+02   0.377E-02 -.127E-01 -.108E-01
   0.942E+01 -.236E+01 -.311E+03   -.888E+01 0.189E+01 0.326E+03   -.495E+00 0.479E+00 -.144E+02   -.295E-01 -.194E-02 -.160E-01
   -.412E+02 0.328E+02 -.282E+03   0.455E+02 -.345E+02 0.299E+03   -.429E+01 0.178E+01 -.162E+02   -.272E-01 -.872E-02 0.825E-03
   -.145E+02 -.183E+01 0.312E+03   0.144E+02 0.152E+01 -.326E+03   0.411E-01 0.302E+00 0.139E+02   0.193E-01 0.103E-01 -.413E-02
   0.383E+02 0.839E+00 0.260E+03   -.425E+02 -.130E+01 -.273E+03   0.422E+01 0.461E+00 0.125E+02   0.177E-01 0.683E-03 -.119E-01
   -.524E+02 0.281E+02 -.316E+03   0.580E+02 -.300E+02 0.333E+03   -.558E+01 0.187E+01 -.164E+02   0.236E-01 0.156E-03 0.661E-03
   -.332E+02 -.301E+02 -.321E+03   0.370E+02 0.325E+02 0.337E+03   -.379E+01 -.236E+01 -.159E+02   0.242E-01 -.422E-03 -.764E-03
   0.544E+02 0.586E-01 0.255E+03   -.591E+02 0.177E+00 -.268E+03   0.466E+01 -.234E+00 0.127E+02   0.103E-01 -.671E-03 -.558E-02
   -.416E+02 0.206E+01 -.260E+03   0.461E+02 -.234E+01 0.272E+03   -.450E+01 0.282E+00 -.127E+02   -.122E-01 -.535E-02 -.513E-02
   0.479E+02 0.297E+02 0.318E+03   -.535E+02 -.316E+02 -.334E+03   0.559E+01 0.195E+01 0.160E+02   0.452E-02 -.587E-02 0.194E-01
   0.365E+02 -.308E+02 0.321E+03   -.406E+02 0.331E+02 -.337E+03   0.410E+01 -.225E+01 0.159E+02   0.137E-01 0.549E-02 0.131E-01
   -.507E+02 -.148E+01 -.255E+03   0.553E+02 0.167E+01 0.268E+03   -.464E+01 -.193E+00 -.123E+02   -.439E-02 0.562E-02 -.821E-02
   0.384E+02 -.349E+02 0.289E+03   -.431E+02 0.368E+02 -.304E+03   0.471E+01 -.191E+01 0.153E+02   -.139E-01 0.131E-01 -.207E-02
   -.219E+02 0.292E+01 -.292E+03   0.263E+02 -.256E+01 0.304E+03   -.441E+01 -.355E+00 -.123E+02   -.105E-01 0.206E-02 -.245E-01
   -.422E+02 -.342E+02 -.288E+03   0.471E+02 0.362E+02 0.303E+03   -.489E+01 -.199E+01 -.154E+02   -.158E-01 0.870E-02 -.264E-02
   0.230E+02 0.185E+01 0.292E+03   -.274E+02 -.152E+01 -.304E+03   0.439E+01 -.320E+00 0.120E+02   0.757E-02 -.103E-01 -.143E-03
 -----------------------------------------------------------------------------------------------
   0.567E+00 0.325E-01 -.396E+00   0.195E-12 -.251E-12 0.568E-12   -.528E+00 -.112E-01 0.406E+00   -.187E-01 0.125E-02 -.793E-02
 
 
 POSITION                                       TOTAL-FORCE (eV/Angst)
 -----------------------------------------------------------------------------------
      1.51321      5.53020      2.37575        -0.006453      0.000051      0.000420
      4.13538      1.40359      2.36169        -0.000075     -0.001706      0.002743
      2.27574      1.34174      7.05373        -0.002220      0.001348     -0.000963
      2.27870      4.20809      7.05070         0.001157     -0.002061     -0.002621
      4.15045      4.16009      2.35466        -0.000069      0.004548      0.002895
      1.51769      2.81602      2.37408         0.000980     -0.000208     -0.007512
      4.81948      2.76798      7.04531        -0.000825     -0.007065     -0.001194
      6.77942      5.53595      2.34382         0.013625     -0.004003      0.003606
     -0.91863      1.41076      2.33699        -0.001868      0.012030      0.003992
     -2.77619      1.33997      7.03376         0.001541      0.006354     -0.002503
      7.32649      4.22430      7.07192        -0.000930     -0.004761     -0.001919
      6.75132      2.80526      2.35661        -0.004192      0.000470      0.005501
     -0.25924      2.78484      7.05290        -0.001686      0.000832     -0.000057
     -0.00509      5.55668      0.01527         0.007788     -0.002085     -0.003319
     -1.16841      1.38544      9.38736         0.004206     -0.002795     -0.008015
      3.88652      1.38360      9.34695         0.006354      0.002312      0.008681
      3.89933      4.17064      9.37223         0.001152      0.007392      0.001671
     -1.16566      4.17067      9.38121        -0.001632      0.000413     -0.009018
      0.01122      2.78335      0.03753         0.006452      0.006016      0.002686
      5.06365      0.00453      0.03780         0.007692     -0.000235      0.002535
      5.07472      2.78330      0.05962         0.000756     -0.001197     -0.001895
      3.21083      0.00355      4.69058        -0.003641      0.001167     -0.006224
      5.73020      1.38662      4.71417        -0.005285     -0.006786      0.002193
      0.67606      1.38514      4.75439        -0.001315     -0.005295      0.001243
      0.66267      4.17249      4.73166         0.002675      0.000219      0.006902
      5.72864      4.17193      4.71829         0.000458     -0.000512      0.003350
      3.19805      2.78261      4.66536        -0.001256      0.004038     -0.000123
      8.27421      5.55641      4.70322        -0.009867     -0.004564     -0.002742
      8.26065      2.78331      4.68089        -0.003865      0.005567      0.001093
      4.96635      0.01004      3.71037        -0.002389      0.001954      0.012886
      1.50419      5.53965      5.67526        -0.010800      0.000190     -0.004159
      3.28615      0.00825      1.02122         0.001202      0.000155     -0.011552
      3.06969      5.54378      8.42333         0.006921     -0.003413      0.001536
      7.61264      1.37704      3.64618        -0.002504      0.001934      0.006322
     -1.13484      1.41131      5.67056        -0.003521      0.005479      0.001348
     -1.21382      4.14561      5.68885         0.000064     -0.002792     -0.002737
      7.44735      4.18132      3.73623        -0.002748     -0.001825      0.008238
      0.69448      1.37837      1.06451         0.005897      0.001931     -0.005622
      5.71344      1.41732      8.42372         0.001812      0.001514      0.006672
      5.74645      4.14334      8.41896        -0.001788     -0.002476      0.006963
      0.81591      4.17444      0.98394         0.002338     -0.000413     -0.006799
      5.05790      2.76848      3.65585        -0.013164      0.000076      0.006749
      1.35731      2.79739      5.76367         0.001354      0.001110     -0.006500
      3.24338      2.77614      1.05716         0.002545     -0.001121     -0.006972
      3.16858      2.79475      8.35629         0.008443     -0.000602      0.000631
     -0.04438      0.01360      3.74911        -0.016071      0.001798      0.006406
      6.53120      0.01648      5.67055         0.010082      0.002353     -0.003400
      8.33594      0.01982      0.96794         0.001655     -0.001501     -0.003529
     -1.99640      0.00866      8.43966         0.007418     -0.001304     -0.002502
      2.43930      1.39062      3.67890        -0.002578     -0.004003     -0.000150
      3.86483      1.42164      5.69298        -0.002902     -0.001395     -0.002393
      3.96825      4.13807      5.65947        -0.006309     -0.002328     -0.001474
      2.52754      4.18151      3.64812        -0.005527     -0.000252      0.004240
      5.81013      1.38686      1.05795         0.001640     -0.003994     -0.007295
      0.66389      1.41455      8.42404        -0.002108      0.003003      0.005221
      0.60928      4.14384      8.44593         0.007782     -0.002838      0.004316
      5.77580      4.18503      1.07301         0.006813     -0.000104     -0.007471
     -0.04305      2.76014      3.73361         0.003046     -0.002150     -0.003179
      6.46675      2.76582      5.72372        -0.012427      0.005283      0.004930
      8.30546      2.75566      0.98993        -0.001866     -0.005905     -0.001605
     -1.89198      2.76688      8.36819         0.008029      0.002151     -0.000527
 -----------------------------------------------------------------------------------
    total drift:                                0.020204      0.022591      0.001357


--------------------------------------------------------------------------------------------------------



  FREE ENERGIE OF THE ION-ELECTRON SYSTEM (eV)
  ---------------------------------------------------
  free  energy   TOTEN  =      -368.9757904750 eV

  energy  without entropy=     -368.9722415809  energy(sigma->0) =     -368.97401603
 
 d Force = 0.2515761E-03[ 0.838E-04, 0.419E-03]  d Energy = 0.2916897E-03-0.401E-04
 d Force = 0.1473149E+01[ 0.147E+01, 0.148E+01]  d Ewald  =-0.1650281E+01 0.312E+01


--------------------------------------------------------------------------------------------------------


    POTLOK:  cpu time    0.1829: real time    0.1834


--------------------------------------------------------------------------------------------------------


 Quasi-Newton relaxation of ions (Broydens 2nd method)
  g(Force)  = 0.208E-03   g(Stress)= 0.146E-03

 retain information from N=  1 steps
 eigenvalues of (default step * inverse Hessian matrix)
  average eigenvalue of G=   0.3267
 eigenvalue spectrum of G is  0.3267


--------------------------------------------------------------------------------------------------------


  
 reached required accuracy - stopping structural energy minimisation
     LOOP+:  cpu time   22.5822: real time   22.7799
    4ORBIT:  cpu time    0.0000: real time    0.0000

volume of typ            1:    19.2 %

volume of typ            2:    19.3 %

volume of typ            3:     9.9 %
 
total charge     
 
# of ion       s       p       d       tot
------------------------------------------
    1        2.083   0.251   0.094   2.428
    2        2.081   0.260   0.096   2.437
    3        2.081   0.250   0.095   2.426
    4        2.077   0.244   0.091   2.412
    5        2.086   0.271   0.102   2.460
    6        2.083   0.254   0.095   2.432
    7        2.077   0.237   0.088   2.402
    8        2.082   0.251   0.094   2.426
    9        2.083   0.256   0.097   2.436
   10        2.077   0.249   0.090   2.416
   11        2.080   0.253   0.093   2.426
   12        2.085   0.258   0.097   2.440
   13        2.080   0.242   0.091   2.413
   14        0.272   0.369   7.858   8.499
   15        0.263   0.345   7.871   8.479
   16        0.272   0.362   7.869   8.503
   17        0.265   0.348   7.865   8.478
   18        0.267   0.357   7.865   8.489
   19        0.272   0.365   7.874   8.511
   20        0.271   0.367   7.866   8.504
   21        0.271   0.361   7.882   8.514
   22        0.272   0.369   7.863   8.504
   23        0.264   0.344   7.882   8.490
   24        0.272   0.365   7.865   8.502
   25        0.265   0.346   7.879   8.490
   26        0.268   0.359   7.861   8.489
   27        0.272   0.359   7.892   8.523
   28        0.271   0.366   7.864   8.502
   29        0.273   0.366   7.869   8.508
   30        1.258   2.794   0.006   4.057
   31        1.259   2.788   0.007   4.053
   32        1.258   2.794   0.006   4.058
   33        1.258   2.789   0.007   4.054
   34        1.254   2.804   0.006   4.064
   35        1.265   2.772   0.006   4.043
   36        1.264   2.776   0.007   4.046
   37        1.260   2.789   0.006   4.055
   38        1.254   2.803   0.006   4.063
   39        1.264   2.774   0.006   4.044
   40        1.263   2.778   0.006   4.048
   41        1.260   2.789   0.006   4.055
   42        1.256   2.796   0.006   4.058
   43        1.254   2.799   0.006   4.060
   44        1.257   2.794   0.006   4.057
   45        1.254   2.799   0.006   4.059
   46        1.262   2.780   0.007   4.049
   47        1.263   2.779   0.006   4.048
   48        1.261   2.783   0.007   4.051
   49        1.263   2.781   0.006   4.050
   50        1.257   2.794   0.006   4.056
   51        1.262   2.779   0.007   4.048
   52        1.263   2.775   0.007   4.045
   53        1.255   2.800   0.006   4.061
   54        1.256   2.796   0.006   4.058
   55        1.263   2.778   0.006   4.047
   56        1.263   2.777   0.007   4.046
   57        1.254   2.803   0.006   4.063
   58        1.261   2.780   0.006   4.048
   59        1.258   2.791   0.006   4.055
   60        1.261   2.781   0.006   4.049
   61        1.259   2.792   0.006   4.056
--------------------------------------------------
tot          71.66   98.23  127.35  297.24
 
magnetization (x)
 
# of ion       s       p       d       tot
------------------------------------------
    1        0.001   0.005  -0.001   0.006
    2        0.006   0.015  -0.000   0.021
    3        0.002   0.007   0.001   0.011
    4        0.004   0.007  -0.001   0.011
    5        0.002   0.009  -0.000   0.010
    6        0.004   0.010   0.000   0.014
    7        0.003   0.009   0.000   0.012
    8        0.002   0.006  -0.001   0.008
    9        0.003   0.007   0.001   0.011
   10        0.005   0.016  -0.000   0.021
   11        0.001   0.008  -0.000   0.010
   12        0.002   0.009   0.000   0.011
   13        0.002   0.009   0.000   0.011
   14       -0.001  -0.001   0.261   0.260
   15        0.003  -0.000   0.736   0.739
   16        0.003  -0.000   0.579   0.582
   17        0.004  -0.000   0.654   0.657
   18        0.000  -0.001   0.567   0.567
   19        0.003  -0.000   0.494   0.496
   20        0.000  -0.001   0.342   0.342
   21        0.004  -0.001   0.551   0.554
   22        0.000  -0.000   0.286   0.286
   23        0.004  -0.000   0.662   0.665
   24        0.003  -0.000   0.494   0.496
   25       -0.005  -0.001  -0.525  -0.531
   26        0.000  -0.001   0.531   0.531
   27        0.005   0.000   0.516   0.522
   28       -0.001   0.000  -0.085  -0.086
   29        0.003   0.000   0.469   0.472
   30        0.008   0.034   0.000   0.042
   31        0.002   0.023   0.000   0.025
   32        0.009   0.039   0.000   0.048
   33        0.006   0.047   0.000   0.053
   34        0.005   0.072   0.000   0.077
   35        0.006   0.070   0.000   0.077
   36       -0.005  -0.087  -0.000  -0.093
   37        0.005   0.048   0.000   0.053
   38        0.007   0.070   0.000   0.077
   39        0.008   0.083   0.000   0.091
   40        0.007   0.090   0.000   0.097
   41        0.007   0.056   0.000   0.063
   42        0.009   0.085   0.000   0.094
   43        0.005   0.065   0.000   0.070
   44        0.010   0.083   0.000   0.093
   45        0.007   0.064   0.000   0.072
   46       -0.001  -0.021   0.000  -0.022
   47        0.004   0.003   0.000   0.008
   48        0.004   0.022   0.000   0.027
   49        0.009   0.046   0.000   0.056
   50        0.007   0.061   0.000   0.069
   51        0.006   0.091   0.000   0.098
   52        0.006   0.045   0.000   0.051
   53       -0.004  -0.072  -0.000  -0.076
   54        0.008   0.065   0.000   0.073
   55        0.008   0.087   0.000   0.095
   56        0.007   0.045   0.000   0.052
   57        0.007   0.077   0.000   0.085
   58        0.005   0.052   0.000   0.057
   59        0.009   0.064   0.000   0.074
   60        0.007   0.068   0.000   0.076
   61        0.010   0.066   0.000   0.076
--------------------------------------------------
tot           0.25    1.65    6.54    8.44
 

 total amount of memory used by VASP MPI-rank0   100454. kBytes
=======================================================================

   base      :      30000. kBytes
   nonlr-proj:      24499. kBytes
   fftplans  :       6149. kBytes
   grid      :      35266. kBytes
   one-center:        948. kBytes
   wavefun   :       3592. kBytes
 
  
  
 General timing and accounting informations for this job:
 ========================================================
  
                  Total CPU time used (sec):      144.135
                            User time (sec):      141.694
                          System time (sec):        2.442
                         Elapsed time (sec):      148.422
  
                   Maximum memory used (kb):      148796.
                   Average memory used (kb):           0.
  
                          Minor page faults:        37033
                          Major page faults:           67
                 Voluntary context switches:         1222
