 vasp.5.4.4.18Apr17-6-g9f103f2a35 (build May 12 2020 05:39:39) gamma-only       
  
 MD_VERSION_INFO: Compiled 2020-05-12T12:39:39-UTC in devlin.sd.materialsdesign.
 com:/home/medea2/data/build/wwolf/vasp-gpu5.4.4/13047/x86_64/src/src/build/gam 
 from svn 13047
 
 This VASP executable licensed from Materials Design, Inc.
 
 executed on                        Lin64 date 2023.04.01  01:58:52
 running on   16 total cores
 distrk:  each k-point on   16 cores,    1 groups
 distr:  one band on NCORES_PER_BAND=   1 cores,   16 groups


--------------------------------------------------------------------------------------------------------


 INCAR:
 POTCAR:    PAW_PBE Ta_pv 07Sep2000               
 POTCAR:    PAW_PBE Li_sv 10Sep2004               
 POTCAR:    PAW_PBE O 08Apr2002                   

 ----------------------------------------------------------------------------- 
|                                                                             |
|           W    W    AA    RRRRR   N    N  II  N    N   GGGG   !!!           |
|           W    W   A  A   R    R  NN   N  II  NN   N  G    G  !!!           |
|           W    W  A    A  R    R  N N  N  II  N N  N  G       !!!           |
|           W WW W  AAAAAA  RRRRR   N  N N  II  N  N N  G  GGG   !            |
|           WW  WW  A    A  R   R   N   NN  II  N   NN  G    G                |
|           W    W  A    A  R    R  N    N  II  N    N   GGGG   !!!           |
|                                                                             |
|      For optimal performance we recommend to set                            |
|        NCORE= 4 - approx SQRT( number of cores)                             |
|      NCORE specifies how many cores store one orbital (NPAR=cpu/NCORE).     |
|      This setting can  greatly improve the performance of VASP for DFT.     |
|      The default,   NCORE=1            might be grossly inefficient         |
|      on modern multi-core architectures or massively parallel machines.     |
|      Do your own testing !!!!                                               |
|      Unfortunately you need to use the default for GW and RPA calculations. |
|      (for HF NCORE is supported but not extensively tested yet)             |
|                                                                             |
 ----------------------------------------------------------------------------- 

 POTCAR:    PAW_PBE Ta_pv 07Sep2000               
  local pseudopotential read in
  partial core-charges read in
  partial kinetic energy density read in
  atomic valenz-charges read in
  non local Contribution for L=           1  read in
    real space projection operators read in
  non local Contribution for L=           1  read in
    real space projection operators read in
  non local Contribution for L=           2  read in
    real space projection operators read in
  non local Contribution for L=           2  read in
    real space projection operators read in
  non local Contribution for L=           0  read in
    real space projection operators read in
  non local Contribution for L=           0  read in
    real space projection operators read in
    PAW grid and wavefunctions read in
 
   number of l-projection  operators is LMAX  =           6
   number of lm-projection operators is LMMAX =          18
 
 POTCAR:    PAW_PBE Li_sv 10Sep2004               
  local pseudopotential read in
  atomic valenz-charges read in
  non local Contribution for L=           0  read in
    real space projection operators read in
  non local Contribution for L=           0  read in
    real space projection operators read in
  non local Contribution for L=           1  read in
    real space projection operators read in
    PAW grid and wavefunctions read in
 
   number of l-projection  operators is LMAX  =           3
   number of lm-projection operators is LMMAX =           5
 
 POTCAR:    PAW_PBE O 08Apr2002                   
  local pseudopotential read in
  partial core-charges read in
  partial kinetic energy density read in
  kinetic energy density of atom read in
  atomic valenz-charges read in
  non local Contribution for L=           0  read in
    real space projection operators read in
  non local Contribution for L=           0  read in
    real space projection operators read in
  non local Contribution for L=           1  read in
    real space projection operators read in
  non local Contribution for L=           1  read in
    real space projection operators read in
    PAW grid and wavefunctions read in
 
   number of l-projection  operators is LMAX  =           4
   number of lm-projection operators is LMMAX =           8
 
 Optimization of the real space projectors (new method)

 maximal supplied QI-value         = 15.12
 optimisation between [QCUT,QGAM] = [ 11.34, 22.83] = [ 36.00,145.93] Ry 
 Optimized for a Real-space Cutoff    1.61 Angstroem

   l    n(q)    QCUT    max X(q) W(low)/X(q) W(high)/X(q)  e(spline) 
   1     11    11.338     4.092    0.40E-05    0.64E-05    0.47E-07
   1     11    11.338     4.834    0.13E-04    0.44E-04    0.21E-06
   2     10    11.338    62.294    0.15E-03    0.31E-03    0.77E-06
   2     10    11.338    50.966    0.15E-03    0.31E-03    0.77E-06
   0     11    11.338   103.792    0.33E-04    0.19E-04    0.90E-07
   0     11    11.338    56.335    0.26E-04    0.17E-04    0.79E-07
 Optimization of the real space projectors (new method)

 maximal supplied QI-value         = 22.11
 optimisation between [QCUT,QGAM] = [ 11.28, 22.77] = [ 35.61,145.23] Ry 
 Optimized for a Real-space Cutoff    1.10 Angstroem

   l    n(q)    QCUT    max X(q) W(low)/X(q) W(high)/X(q)  e(spline) 
   0      7    11.276    10.506    0.54E-04    0.58E-04    0.16E-07
   0      7    11.276     8.367    0.11E-03    0.14E-03    0.35E-07
   1      7    11.276     8.983    0.23E-03    0.43E-03    0.86E-07
 Optimization of the real space projectors (new method)

 maximal supplied QI-value         = 24.76
 optimisation between [QCUT,QGAM] = [ 11.39, 22.77] = [ 36.31,145.25] Ry 
 Optimized for a Real-space Cutoff    1.10 Angstroem

   l    n(q)    QCUT    max X(q) W(low)/X(q) W(high)/X(q)  e(spline) 
   0      7    11.387    20.381    0.22E-03    0.48E-03    0.18E-06
   0      7    11.387    15.268    0.22E-03    0.52E-03    0.19E-06
   1      7    11.387     5.964    0.22E-03    0.73E-03    0.24E-06
   1      7    11.387     5.382    0.19E-03    0.60E-03    0.21E-06

 ----------------------------------------------------------------------------- 
|                                                                             |
|  ADVICE TO THIS USER RUNNING 'VASP/VAMP'   (HEAR YOUR MASTER'S VOICE ...):  |
|                                                                             |
|      You enforced a specific xc-type in the INCAR file,                     |
|      a different type was found on the POTCAR file                          |
|          I HOPE YOU KNOW, WHAT YOU ARE  DOING                               |
|                                                                             |
 ----------------------------------------------------------------------------- 

  PAW_PBE Ta_pv 07Sep2000               :
 energy of atom  1       EATOM=-1047.1984
 kinetic energy error for atom=    0.0019 (will be added to EATOM!!)
  PAW_PBE Li_sv 10Sep2004               :
 energy of atom  2       EATOM= -202.7858
 kinetic energy error for atom=    0.0143 (will be added to EATOM!!)
  PAW_PBE O 08Apr2002                   :
 energy of atom  3       EATOM= -432.3788
 kinetic energy error for atom=    0.0224 (will be added to EATOM!!)
 
 
 POSCAR: ce1_1                                   
  positions in direct lattice
  No initial velocities read in
 exchange correlation table for  LEXCH =       14
   RHO(1)=    0.500       N(1)  =     2000
   RHO(2)=  100.500       N(2)  =     4000
 


--------------------------------------------------------------------------------------------------------


 ion  position               nearest neighbor table
   1  0.000  0.000  0.000-  72 2.14  93 2.14  57 2.14 108 2.14 105 2.14  60 2.14  10 2.87  19 2.87
                             4 2.87   7 2.87  13 2.87  25 2.87  36 3.09  47 3.09  29 3.09  54 3.09
   2  0.889  0.333  0.222-  74 2.14  56 2.14  80 2.14  59 2.14  77 2.14  71 2.14  20 2.87   8 2.87
                             5 2.87  26 2.87  14 2.87  11 2.87  30 3.09  39 3.09  36 3.09  37 3.09
   3  0.111  0.667  0.111-  61 2.14  79 2.14  55 2.14  58 2.14  94 2.14  64 2.14  12 2.87  21 2.87
                             9 2.87  27 2.87  15 2.87   6 2.87  29 3.09  47 3.09  32 3.09  31 3.09
   4  0.333  0.000  0.000-  60 2.14  99 2.14  96 2.14  63 2.14  93 2.14  66 2.14  22 2.87  13 2.87
                             1 2.87  19 2.87  16 2.87   7 2.87  30 3.09  50 3.09  48 3.09  32 3.09
   5  0.222  0.333  0.222-  80 2.14  62 2.14  86 2.14  83 2.14  59 2.14  65 2.14  23 2.87   2 2.87
                            20 2.87  14 2.87   8 2.87  17 2.87  42 3.09  30 3.09  33 3.09  40 3.09
   6  0.444  0.667  0.111-  67 2.14  85 2.14  61 2.14 100 2.14  70 2.14  64 2.14  15 2.87  24 2.87
                             9 2.87  18 2.87  21 2.87   3 2.87  50 3.09  35 3.09  32 3.09  34 3.09
   7  0.667  0.000  0.000-  66 2.14 105 2.14 102 2.14  69 2.14  72 2.14  99 2.14  16 2.87  25 2.87
                             1 2.87  10 2.87  22 2.87   4 2.87  33 3.09  53 3.09  51 3.09  35 3.09
   8  0.556  0.333  0.222-  86 2.14  68 2.14  74 2.14  71 2.14  89 2.14  65 2.14  26 2.87   2 2.87
                            23 2.87  11 2.87  17 2.87   5 2.87  36 3.09  45 3.09  33 3.09  43 3.09
   9  0.778  0.667  0.111-  55 2.14  73 2.14  67 2.14  70 2.14 106 2.14  58 2.14  18 2.87  27 2.87
                             3 2.87   6 2.87  12 2.87  24 2.87  35 3.09  53 3.09  29 3.09  28 3.09
  10  0.667  0.000  0.333-  57 2.14  90 2.14  72 2.14  78 2.14  69 2.14  75 2.14   1 2.87  16 2.87
                            13 2.87   7 2.87  22 2.87  19 2.87  29 3.09  45 3.09  36 3.09  39 3.09
  11  0.556  0.333  0.556-  92 2.14  98 2.14  74 2.14  95 2.14  89 2.14  77 2.14  20 2.87  17 2.87
                            14 2.87  23 2.87   8 2.87   2 2.87  48 3.09  45 3.09  39 3.09  46 3.09
  12  0.778  0.667  0.444-  79 2.14  73 2.14  97 2.14  58 2.14  82 2.14  76 2.14   3 2.87  18 2.87
                             9 2.87  21 2.87  15 2.87  24 2.87  29 3.09  41 3.09  38 3.09  40 3.09
  13  0.000  0.000  0.333-  63 2.14  78 2.14  60 2.14  57 2.14  81 2.14  84 2.14   4 2.87  10 2.87
                             1 2.87  22 2.87  16 2.87  25 2.87  32 3.09  39 3.09  30 3.09  29 3.09
  14  0.889  0.333  0.556-  98 2.14  80 2.14 104 2.14 101 2.14  77 2.14  83 2.14  23 2.87  11 2.87
                            26 2.87   2 2.87   5 2.87  17 2.87  51 3.09  39 3.09  42 3.09  49 3.09
  15  0.111  0.667  0.444-  85 2.14 103 2.14  79 2.14  64 2.14  88 2.14  82 2.14   6 2.87  18 2.87
                             3 2.87  27 2.87  24 2.87  12 2.87  32 3.09  44 3.09  41 3.09  43 3.09
  16  0.333  0.000  0.333-  69 2.14  84 2.14  66 2.14  90 2.14  87 2.14  63 2.14   7 2.87  10 2.87
                            19 2.87   4 2.87  25 2.87  13 2.87  35 3.09  42 3.09  33 3.09  45 3.09
  17  0.222  0.333  0.556- 104 2.14  92 2.14  86 2.14 107 2.14  83 2.14  89 2.14  26 2.87  11 2.87
                            20 2.87   8 2.87  14 2.87   5 2.87  54 3.09  42 3.09  45 3.09  52 3.09
  18  0.444  0.667  0.444-  73 2.14  85 2.14  91 2.14  70 2.14  76 2.14  88 2.14   9 2.87  12 2.87
                            15 2.87   6 2.87  21 2.87  27 2.87  35 3.09  38 3.09  44 3.09  37 3.09
  19  0.333  0.000  0.667-  75 2.14 108 2.14  93 2.14  96 2.14  87 2.14  90 2.14   1 2.87  22 2.87
                            25 2.87   4 2.87  16 2.87  10 2.87  38 3.09  54 3.09  47 3.09  48 3.09
  20  0.222  0.333  0.889-  56 2.14  92 2.14  62 2.14  95 2.14  59 2.14 107 2.14  11 2.87   2 2.87
                            23 2.87  26 2.87  17 2.87   5 2.87  48 3.09  30 3.09  54 3.09  28 3.09
  21  0.444  0.667  0.778-  97 2.14  61 2.14  91 2.14  94 2.14  76 2.14 100 2.14   3 2.87  27 2.87
                            18 2.87   6 2.87  12 2.87  24 2.87  47 3.09  38 3.09  50 3.09  49 3.09
  22  0.667  0.000  0.667-  96 2.14  81 2.14  99 2.14  75 2.14  78 2.14 102 2.14   4 2.87  19 2.87
                            10 2.87   7 2.87  13 2.87  25 2.87  48 3.09  41 3.09  50 3.09  38 3.09
  23  0.556  0.333  0.889-  62 2.14  98 2.14  68 2.14  65 2.14  95 2.14 101 2.14  14 2.87   5 2.87
                            20 2.87  11 2.87   8 2.87  26 2.87  33 3.09  48 3.09  51 3.09  31 3.09
  24  0.778  0.667  0.778- 103 2.14  67 2.14  97 2.14  82 2.14 106 2.14 100 2.14   6 2.87  27 2.87
                             9 2.87  15 2.87  21 2.87  12 2.87  41 3.09  53 3.09  50 3.09  52 3.09
  25  0.000  0.000  0.667-  87 2.14 102 2.14 105 2.14 108 2.14  84 2.14  81 2.14   7 2.87  19 2.87
                             1 2.87  16 2.87  22 2.87  13 2.87  44 3.09  51 3.09  53 3.09  54 3.09
  26  0.889  0.333  0.889-  68 2.14 104 2.14  56 2.14 107 2.14  71 2.14 101 2.14   8 2.87  17 2.87
                            20 2.87   2 2.87  14 2.87  23 2.87  54 3.09  36 3.09  51 3.09  34 3.09
  27  0.111  0.667  0.778-  91 2.14  55 2.14 103 2.14 106 2.14  88 2.14  94 2.14   9 2.87  21 2.87
                            24 2.87   3 2.87  15 2.87  18 2.87  53 3.09  44 3.09  47 3.09  46 3.09
  28  0.000  0.500  0.000-  71 2.08  94 2.08  58 2.08 107 2.08 106 2.08  59 2.08   9 3.09  20 3.09
                             2 3.09  27 3.09  26 3.09   3 3.09
  29  0.889  0.833  0.222-  73 2.08  55 2.08  79 2.08  60 2.08  78 2.08  72 2.08   3 3.09  12 3.09
                             9 3.09  10 3.09   1 3.09  13 3.09
  30  0.111  0.167  0.111-  62 2.08  80 2.08  56 2.08  57 2.08  93 2.08  63 2.08   2 3.09  20 3.09
                             5 3.09   4 3.09  13 3.09   1 3.09
  31  0.333  0.500  0.000-  59 2.08 100 2.08  95 2.08  64 2.08  94 2.08  65 2.08   3 3.09  23 3.09
                            21 3.09   5 3.09  20 3.09   6 3.09
  32  0.222  0.833  0.222-  79 2.08  61 2.08  85 2.08  84 2.08  60 2.08  66 2.08  15 3.09   3 3.09
                             6 3.09  13 3.09   4 3.09  16 3.09
  33  0.444  0.167  0.111-  68 2.08  86 2.08  62 2.08  99 2.08  69 2.08  63 2.08  23 3.09   8 3.09
                             5 3.09   7 3.09  16 3.09   4 3.09
  34  0.667  0.500  0.000-  65 2.08 106 2.08 101 2.08  70 2.08  71 2.08 100 2.08   6 3.09  26 3.09
                            24 3.09   8 3.09   9 3.09  23 3.09
  35  0.556  0.833  0.222-  85 2.08  67 2.08  73 2.08  72 2.08  90 2.08  66 2.08   9 3.09  18 3.09
                             6 3.09  16 3.09   7 3.09  10 3.09
  36  0.778  0.167  0.111-  56 2.08  74 2.08  68 2.08  69 2.08 105 2.08  57 2.08   8 3.09  26 3.09
                             2 3.09   1 3.09  10 3.09   7 3.09
  37  0.667  0.500  0.333-  58 2.08  89 2.08  71 2.08  70 2.08  77 2.08  76 2.08   2 3.09  18 3.09
                             9 3.09  12 3.09   8 3.09  11 3.09
  38  0.556  0.833  0.556-  91 2.08  97 2.08  73 2.08  96 2.08  90 2.08  78 2.08  21 3.09  18 3.09
                            12 3.09  19 3.09  22 3.09  10 3.09
  39  0.778  0.167  0.444-  80 2.08  74 2.08  98 2.08  57 2.08  81 2.08  75 2.08   2 3.09  14 3.09
                            11 3.09  13 3.09  10 3.09  22 3.09
  40  0.000  0.500  0.333-  64 2.08  77 2.08  59 2.08  58 2.08  82 2.08  83 2.08   5 3.09  12 3.09
                             3 3.09   2 3.09  14 3.09  15 3.09
  41  0.889  0.833  0.556-  97 2.08  79 2.08 103 2.08 102 2.08  78 2.08  84 2.08  24 3.09  12 3.09
                            15 3.09  22 3.09  13 3.09  25 3.09
  42  0.111  0.167  0.444-  86 2.08 104 2.08  80 2.08  63 2.08  87 2.08  81 2.08   5 3.09  17 3.09
                            14 3.09  16 3.09  25 3.09  13 3.09
  43  0.333  0.500  0.333-  70 2.08  83 2.08  65 2.08  89 2.08  88 2.08  64 2.08   8 3.09  15 3.09
                             6 3.09  18 3.09  17 3.09   5 3.09
  44  0.222  0.833  0.556- 103 2.08  91 2.08  85 2.08 108 2.08  84 2.08  90 2.08  27 3.09  15 3.09
                            18 3.09  25 3.09  19 3.09  16 3.09
  45  0.444  0.167  0.444-  74 2.08  86 2.08  92 2.08  69 2.08  75 2.08  87 2.08   8 3.09  11 3.09
                            17 3.09  10 3.09  16 3.09  19 3.09
  46  0.333  0.500  0.667- 107 2.08  76 2.08  94 2.08  95 2.08  88 2.08  89 2.08  11 3.09  27 3.09
                            20 3.09  21 3.09  17 3.09  18 3.09
  47  0.222  0.833  0.889-  55 2.08  91 2.08  61 2.08  96 2.08  60 2.08 108 2.08  21 3.09   3 3.09
                            27 3.09   1 3.09  19 3.09   4 3.09
  48  0.444  0.167  0.778-  98 2.08  62 2.08  92 2.08  93 2.08  75 2.08  99 2.08  20 3.09  11 3.09
                            23 3.09  22 3.09   4 3.09  19 3.09
  49  0.667  0.500  0.667-  95 2.08  82 2.08 100 2.08  76 2.08  77 2.08 101 2.08  21 3.09  14 3.09
                            23 3.09  11 3.09  12 3.09  24 3.09
  50  0.556  0.833  0.889-  61 2.08  97 2.08  67 2.08  66 2.08  96 2.08 102 2.08   6 3.09  21 3.09
                            24 3.09   4 3.09  22 3.09   7 3.09
  51  0.778  0.167  0.778- 104 2.08  68 2.08  98 2.08  81 2.08 105 2.08  99 2.08  14 3.09  26 3.09
                            23 3.09  25 3.09   7 3.09  22 3.09
  52  0.000  0.500  0.667- 101 2.08  88 2.08 106 2.08 107 2.08  83 2.08  82 2.08  17 3.09  24 3.09
                            26 3.09  27 3.09  15 3.09  14 3.09
  53  0.889  0.833  0.889-  67 2.08 103 2.08  55 2.08 108 2.08  72 2.08 102 2.08  27 3.09   9 3.09
                            24 3.09   7 3.09  25 3.09   1 3.09
  54  0.111  0.167  0.778-  92 2.08  56 2.08 104 2.08 105 2.08  87 2.08  93 2.08  26 3.09  17 3.09
                            20 3.09  19 3.09   1 3.09  25 3.09
  55  0.000  0.754  0.000-  47 2.08  29 2.08  53 2.08   9 2.14  27 2.14   3 2.14
  56  0.000  0.246  0.000-  36 2.08  54 2.08  30 2.08  20 2.14   2 2.14  26 2.14
  57  0.889  0.087  0.222-  30 2.08  39 2.08  36 2.08  10 2.14   1 2.14  13 2.14
  58  0.889  0.580  0.222-  37 2.08  28 2.08  40 2.08   3 2.14  12 2.14   9 2.14
  59  0.111  0.420  0.111-  31 2.08  40 2.08  28 2.08   2 2.14  20 2.14   5 2.14
  60  0.111  0.913  0.111-  29 2.08  47 2.08  32 2.08   4 2.14  13 2.14   1 2.14
  61  0.333  0.754  0.000-  50 2.08  32 2.08  47 2.08   3 2.14  21 2.14   6 2.14
  62  0.333  0.246  0.000-  30 2.08  48 2.08  33 2.08  23 2.14   5 2.14  20 2.14
  63  0.222  0.087  0.222-  42 2.08  30 2.08  33 2.08  13 2.14   4 2.14  16 2.14
  64  0.222  0.580  0.222-  40 2.08  31 2.08  43 2.08  15 2.14   3 2.14   6 2.14
  65  0.444  0.420  0.111-  34 2.08  43 2.08  31 2.08  23 2.14   8 2.14   5 2.14
  66  0.444  0.913  0.111-  50 2.08  35 2.08  32 2.08   7 2.14  16 2.14   4 2.14
  67  0.667  0.754  0.000-  53 2.08  35 2.08  50 2.08   6 2.14  24 2.14   9 2.14
  68  0.667  0.246  0.000-  33 2.08  51 2.08  36 2.08  26 2.14   8 2.14  23 2.14
  69  0.556  0.087  0.222-  36 2.08  45 2.08  33 2.08  16 2.14   7 2.14  10 2.14
  70  0.556  0.580  0.222-  43 2.08  34 2.08  37 2.08   9 2.14  18 2.14   6 2.14
  71  0.778  0.420  0.111-  28 2.08  37 2.08  34 2.08   8 2.14  26 2.14   2 2.14
  72  0.778  0.913  0.111-  35 2.08  53 2.08  29 2.08   1 2.14  10 2.14   7 2.14
  73  0.667  0.754  0.333-  29 2.08  35 2.08  38 2.08  18 2.14   9 2.14  12 2.14
  74  0.667  0.246  0.333-  45 2.08  36 2.08  39 2.08   2 2.14   8 2.14  11 2.14
  75  0.556  0.087  0.556-  48 2.08  45 2.08  39 2.08  19 2.14  22 2.14  10 2.14
  76  0.556  0.580  0.556-  46 2.08  49 2.08  37 2.08  21 2.14  18 2.14  12 2.14
  77  0.778  0.420  0.444-  40 2.08  37 2.08  49 2.08   2 2.14  14 2.14  11 2.14
  78  0.778  0.913  0.444-  29 2.08  41 2.08  38 2.08  13 2.14  10 2.14  22 2.14
  79  0.000  0.754  0.333-  32 2.08  29 2.08  41 2.08  12 2.14   3 2.14  15 2.14
  80  0.000  0.246  0.333-  39 2.08  30 2.08  42 2.08   5 2.14   2 2.14  14 2.14
  81  0.889  0.087  0.556-  51 2.08  39 2.08  42 2.08  22 2.14  13 2.14  25 2.14
  82  0.889  0.580  0.556-  49 2.08  40 2.08  52 2.08  24 2.14  12 2.14  15 2.14
  83  0.111  0.420  0.444-  43 2.08  52 2.08  40 2.08   5 2.14  17 2.14  14 2.14
  84  0.111  0.913  0.444-  32 2.08  44 2.08  41 2.08  16 2.14  25 2.14  13 2.14
  85  0.333  0.754  0.333-  35 2.08  44 2.08  32 2.08  15 2.14   6 2.14  18 2.14
  86  0.333  0.246  0.333-  42 2.08  33 2.08  45 2.08   8 2.14  17 2.14   5 2.14
  87  0.222  0.087  0.556-  54 2.08  42 2.08  45 2.08  25 2.14  19 2.14  16 2.14
  88  0.222  0.580  0.556-  52 2.08  46 2.08  43 2.08  27 2.14  15 2.14  18 2.14
  89  0.444  0.420  0.444-  37 2.08  43 2.08  46 2.08   8 2.14  11 2.14  17 2.14
  90  0.444  0.913  0.444-  35 2.08  38 2.08  44 2.08  10 2.14  16 2.14  19 2.14
  91  0.333  0.754  0.667-  38 2.08  47 2.08  44 2.08  27 2.14  21 2.14  18 2.14
  92  0.333  0.246  0.667-  54 2.08  48 2.08  45 2.08  11 2.14  20 2.14  17 2.14
  93  0.222  0.087  0.889-  48 2.08  30 2.08  54 2.08   1 2.14  19 2.14   4 2.14
  94  0.222  0.580  0.889-  28 2.08  46 2.08  31 2.08  21 2.14   3 2.14  27 2.14
  95  0.444  0.420  0.778-  49 2.08  31 2.08  46 2.08  20 2.14  11 2.14  23 2.14
  96  0.444  0.913  0.778-  47 2.08  38 2.08  50 2.08  22 2.14   4 2.14  19 2.14
  97  0.667  0.754  0.667-  41 2.08  50 2.08  38 2.08  21 2.14  12 2.14  24 2.14
  98  0.667  0.246  0.667-  48 2.08  39 2.08  51 2.08  14 2.14  23 2.14  11 2.14
  99  0.556  0.087  0.889-  33 2.08  48 2.08  51 2.08   4 2.14  22 2.14   7 2.14
 100  0.556  0.580  0.889-  31 2.08  49 2.08  34 2.08   6 2.14  21 2.14  24 2.14
 101  0.778  0.420  0.778-  52 2.08  34 2.08  49 2.08  14 2.14  26 2.14  23 2.14
 102  0.778  0.913  0.778-  41 2.08  53 2.08  50 2.08  25 2.14   7 2.14  22 2.14
 103  0.000  0.754  0.667-  44 2.08  53 2.08  41 2.08  24 2.14  27 2.14  15 2.14
 104  0.000  0.246  0.667-  51 2.08  54 2.08  42 2.08  17 2.14  26 2.14  14 2.14
 105  0.889  0.087  0.889-  54 2.08  36 2.08  51 2.08   7 2.14  25 2.14   1 2.14
 106  0.889  0.580  0.889-  34 2.08  52 2.08  28 2.08  27 2.14   9 2.14  24 2.14
 107  0.111  0.420  0.778-  46 2.08  28 2.08  52 2.08  26 2.14  17 2.14  20 2.14
 108  0.111  0.913  0.778-  53 2.08  44 2.08  47 2.08  19 2.14   1 2.14  25 2.14
 
  LATTYP: Found a hexagonal cell.
 ALAT       =     8.6243060536
 C/A-ratio  =     1.8140237350
  
  Lattice vectors:
  
 A1 = (   4.3121530632,   0.0000000000,   7.4688681114)
 A2 = (  -8.6243060300,   0.0000000000,   0.0000000000)
 A3 = (   0.0000000000, -15.6446958790,   0.0000000000)


Analysis of symmetry for initial positions (statically):
=====================================================================
 Subroutine PRICEL returns following result:
 
  LATTYP: Found a trigonal (rhomboedric) cell.
 ALAT       =     5.4726531117
 COS(alpha) =     0.8620314975
  
  Lattice vectors:
  
 A1 = (   1.4373843293,  -5.2148985742,   0.8298742263)
 A2 = (  -1.4373843186,  -5.2148987306,   0.8298742263)
 A3 = (  -0.0000000107,  -5.2148985742,  -1.6597484526)
 
  27 primitive cells build up your supercell.
 

 Routine SETGRP: Setting up the symmetry group for a 
 hexagonal supercell.


 Subroutine GETGRP returns: Found 12 space group operations
 (whereof 12 operations were pure point group operations)
 out of a pool of 24 trial point group operations.


The static configuration has the point symmetry D_3d.


Analysis of symmetry for dynamics (positions and initial velocities):
=====================================================================
 Subroutine PRICEL returns following result:
 
  LATTYP: Found a trigonal (rhomboedric) cell.
 ALAT       =     5.4726531117
 COS(alpha) =     0.8620314975
  
  Lattice vectors:
  
 A1 = (   1.4373843293,  -5.2148985742,   0.8298742263)
 A2 = (  -1.4373843186,  -5.2148987306,   0.8298742263)
 A3 = (  -0.0000000107,  -5.2148985742,  -1.6597484526)
 
  27 primitive cells build up your supercell.
 

 Routine SETGRP: Setting up the symmetry group for a 
 hexagonal supercell.


 Subroutine GETGRP returns: Found 12 space group operations
 (whereof 12 operations were pure point group operations)
 out of a pool of 24 trial point group operations.


The dynamic configuration has the point symmetry D_3d.


Analysis of structural, dynamic, and magnetic symmetry:
=====================================================================
 Subroutine PRICEL returns following result:
 
  LATTYP: Found a trigonal (rhomboedric) cell.
 ALAT       =     5.4726531117
 COS(alpha) =     0.8620314975
  
  Lattice vectors:
  
 A1 = (   1.4373843293,  -5.2148985742,   0.8298742263)
 A2 = (  -1.4373843186,  -5.2148987306,   0.8298742263)
 A3 = (  -0.0000000107,  -5.2148985742,  -1.6597484526)
 
  27 primitive cells build up your supercell.
 

 Routine SETGRP: Setting up the symmetry group for a 
 hexagonal supercell.


 Subroutine GETGRP returns: Found 12 space group operations
 (whereof 12 operations were pure point group operations)
 out of a pool of 24 trial point group operations.


The magnetic configuration has the point symmetry D_3d.


 Subroutine INISYM returns: Found 12 space group operations
 (whereof 12 operations are pure point group operations),
 and found    27 'primitive' translations

 
 
 KPOINTS: Automatic mesh                          

Automatic generation of k-mesh.
Space group operators:
 irot       det(A)        alpha          n_x          n_y          n_z        tau_x        tau_y        tau_z
    1     1.000000     0.000001     1.000000     0.000000     0.000000     0.000000     0.000000     0.000000
    2    -1.000000     0.000001     1.000000     0.000000     0.000000     0.000000     0.000000     0.000000
    3     1.000000   120.000000     0.000000     1.000000     0.000000     0.000000     0.000000     0.000000
    4    -1.000000   120.000000     0.000000     1.000000     0.000000     0.000000     0.000000     0.000000
    5     1.000000   120.000000     0.000000    -1.000000     0.000000     0.000000     0.000000     0.000000
    6    -1.000000   120.000000     0.000000    -1.000000     0.000000     0.000000     0.000000     0.000000
    7     1.000000   179.999999    -0.500000     0.000000    -0.866025     0.000000     0.000000     0.000000
    8    -1.000000   179.999999    -0.500000     0.000000    -0.866025     0.000000     0.000000     0.000000
    9     1.000000   180.000000     1.000000     0.000000    -0.000000     0.000000     0.000000     0.000000
   10    -1.000000   180.000000     1.000000     0.000000    -0.000000     0.000000     0.000000     0.000000
   11     1.000000   180.000000     0.500000     0.000000    -0.866025     0.000000     0.000000     0.000000
   12    -1.000000   180.000000     0.500000     0.000000    -0.866025     0.000000     0.000000     0.000000
 
 Subroutine IBZKPT returns following result:
 ===========================================
 
 Found      1 irreducible k-points:
 
 Following reciprocal coordinates:
            Coordinates               Weight
  0.000000  0.000000  0.000000      1.000000
 
 Following cartesian coordinates:
            Coordinates               Weight
  0.000000  0.000000  0.000000      1.000000
 


--------------------------------------------------------------------------------------------------------




 Dimension of arrays:
   k-points           NKPTS =      1   k-points in BZ     NKDIM =      1   number of bands    NBANDS=    480
   number of dos      NEDOS =    301   number of ions     NIONS =    108
   non local maximal  LDIM  =      6   non local SUM 2l+1 LMDIM =     18
   total plane-waves  NPLWV = 491520
   max r-space proj   IRMAX =   8594   max aug-charges    IRDMAX=  27598
   dimension x,y,z NGX =    64 NGY =  120 NGZ =   64
   dimension x,y,z NGXF=   128 NGYF=  240 NGZF=  128
   support grid    NGXF=   128 NGYF=  240 NGZF=  128
   ions per type =              27  27  54
   NGX,Y,Z   is equivalent  to a cutoff of  12.34, 12.75, 12.34 a.u.
   NGXF,Y,Z  is equivalent  to a cutoff of  24.67, 25.50, 24.67 a.u.

 SYSTEM =  unknown system                          
 POSCAR =  ce1_1                                   

 Startparameter for this run:
   NWRITE =      1    write-flag & timer
   PREC   = accura    normal or accurate (medium, high low for compatibility)
   ISTART =      0    job   : 0-new  1-cont  2-samecut
   ICHARG =      2    charge: 1-file 2-atom 10-const
   ISPIN  =      2    spin polarized calculation?
   LNONCOLLINEAR =      F non collinear calculations
   LSORBIT =      F    spin-orbit coupling
   INIWAV =      1    electr: 0-lowe 1-rand  2-diag
   LASPH  =      F    aspherical Exc in radial PAW
   METAGGA=      F    non-selfconsistent MetaGGA calc.

 Electronic Relaxation 1
   ENCUT  =  500.0 eV  36.75 Ry    6.06 a.u.  15.72 28.52 15.72*2*pi/ulx,y,z
   ENINI  =  500.0     initial cutoff
   ENAUG  =  628.9 eV  augmentation charge cutoff
   NELM   =     80;   NELMIN=  2; NELMDL= -5     # of ELM steps 
   EDIFF  = 0.1E-04   stopping-criterion for ELM
   LREAL  =      T    real-space projection
   NLSPLINE    = F    spline interpolate recip. space projectors
   LCOMPAT=      F    compatible to vasp.4.4
   GGA_COMPAT  = T    GGA compatible to vasp.4.4-vasp.4.6
   LMAXPAW     = -100 max onsite density
   LMAXMIX     =    2 max onsite mixed and CHGCAR
   VOSKOWN=      1    Vosko Wilk Nusair interpolation
   ROPT   =   -0.00025  -0.00025  -0.00025
 Ionic relaxation
   EDIFFG = -.2E-01   stopping-criterion for IOM
   NSW    =     20    number of steps for IOM
   NBLOCK =      1;   KBLOCK =     20    inner block; outer block 
   IBRION =      1    ionic relax: 0-MD 1-quasi-New 2-CG
   NFREE  =      0    steps in history (QN), initial steepest desc. (CG)
   ISIF   =      3    stress and relaxation
   IWAVPR =     11    prediction:  0-non 1-charg 2-wave 3-comb
   ISYM   =      2    0-nonsym 1-usesym 2-fastsym
   LCORR  =      T    Harris-Foulkes like correction to forces

   POTIM  = 0.5000    time-step for ionic-motion
   TEIN   =    0.0    initial temperature
   TEBEG  =    0.0;   TEEND  =   0.0 temperature during run
   SMASS  =  -3.00    Nose mass-parameter (am)
   estimated Nose-frequenzy (Omega)   =  0.10E-29 period in steps =****** mass=  -0.170E-26a.u.
   SCALEE = 1.0000    scale energy and forces
   NPACO  =    256;   APACO  = 16.0  distance and # of slots for P.C.
   PSTRESS=    0.0 pullay stress

  Mass of Ions in am
   POMASS = 180.95  7.01 16.00
  Ionic Valenz
   ZVAL   =  11.00  3.00  6.00
  Atomic Wigner-Seitz radii
   RWIGS  =   1.34  1.23  0.73
  virtual crystal weights 
   VCA    =   1.00  1.00  1.00
   NELECT =     702.0000    total number of electrons
   NUPDOWN=      -1.0000    fix difference up-down

 DOS related values:
   EMIN   =  10.00;   EMAX   =-10.00  energy-range for DOS
   EFERMI =   0.00
   ISMEAR =     0;   SIGMA  =   0.05  broadening in eV -4-tet -1-fermi 0-gaus

 Electronic relaxation 2 (details)
   IALGO  =     38    algorithm
   LDIAG  =      T    sub-space diagonalisation (order eigenvalues)
   LSUBROT=      F    optimize rotation matrix (better conditioning)
   TURBO    =      0    0=normal 1=particle mesh
   IRESTART =      0    0=no restart 2=restart with 2 vectors
   NREBOOT  =      0    no. of reboots
   NMIN     =      0    reboot dimension
   EREF     =   0.00    reference energy to select bands
   IMIX   =      4    mixing-type and parameters
     AMIX     =   0.40;   BMIX     =  1.00
     AMIX_MAG =   1.60;   BMIX_MAG =  1.00
     AMIN     =   0.10
     WC   =   100.;   INIMIX=   1;  MIXPRE=   1;  MAXMIX= -45

 Intra band minimization:
   WEIMIN = 0.0010     energy-eigenvalue tresh-hold
   EBREAK =  0.52E-08  absolut break condition
   DEPER  =   0.30     relativ break condition  

   TIME   =   0.40     timestep for ELM

  volume/ion in A,a.u.               =       9.33        62.97
  Fermi-wavevector in a.u.,A,eV,Ry     =   1.451238  2.742441 28.655100  2.106090
  Thomas-Fermi vector in A             =   2.568758
 
 Write flags
   LWAVE        =      F    write WAVECAR
   LDOWNSAMPLE  =      F    k-point downsampling of WAVECAR
   LCHARG       =      T    write CHGCAR
   LVTOT        =      F    write LOCPOT, total local potential
   LVHAR        =      F    write LOCPOT, Hartree potential only
   LELF         =      F    write electronic localiz. function (ELF)
   LORBIT       =      0    0 simple, 1 ext, 2 COOP (PROOUT), +10 PAW based schemes


 Dipole corrections
   LMONO  =      F    monopole corrections only (constant potential shift)
   LDIPOL =      F    correct potential (dipole corrections)
   IDIPOL =      0    1-x, 2-y, 3-z, 4-all directions 
   EPSILON=  1.0000000 bulk dielectric constant

 Exchange correlation treatment:
   GGA     =    PS    GGA type
   LEXCH   =    14    internal setting for exchange type
   VOSKOWN=      1    Vosko Wilk Nusair interpolation
   LHFCALC =     F    Hartree Fock is set to
   LHFONE  =     F    Hartree Fock one center treatment
   AEXX    =    0.0000 exact exchange contribution

 Linear response parameters
   LEPSILON=     F    determine dielectric tensor
   LRPA    =     F    only Hartree local field effects (RPA)
   LNABLA  =     F    use nabla operator in PAW spheres
   LVEL    =     F    velocity operator in full k-point grid
   LINTERFAST=   F  fast interpolation
   KINTER  =     0    interpolate to denser k-point grid
   CSHIFT  =0.1000    complex shift for real part using Kramers Kronig
   OMEGAMAX=  -1.0    maximum frequency
   DEG_THRESHOLD= 0.2000000E-02 threshold for treating states as degnerate
   RTIME   =   -0.100 relaxation time in fs
  (WPLASMAI=    0.000 imaginary part of plasma frequency in eV, 0.658/RTIME)
   DFIELD  = 0.0000000 0.0000000 0.0000000 field for delta impulse in time
 
 Orbital magnetization related:
   ORBITALMAG=     F  switch on orbital magnetization
   LCHIMAG   =     F  perturbation theory with respect to B field
   DQ        =  0.001000  dq finite difference perturbation B field
   LLRAUG    =     F  two centre corrections for induced B field



--------------------------------------------------------------------------------------------------------


 quasi-Newton-method for relaxation of ions
 charge density and potential will be updated during run
 spin polarized calculation
 Variant of blocked Davidson
 Davidson routine will perform the subspace rotation
 perform sub-space diagonalisation
    after iterative eigenvector-optimisation
 modified Broyden-mixing scheme, WC =      100.0
 initial mixing is a Kerker type mixing with AMIX =  0.4000 and BMIX =      1.0000
 Hartree-type preconditioning will be used
 using additional bands          129
 real space projection scheme for non local part
 use partial core corrections
 calculate Harris-corrections to forces 
   (improved forces if not selfconsistent)
 use gradient corrections 
 use of overlap-Matrix (Vanderbilt PP)
 Gauss-broadening in eV      SIGMA  =   0.05


--------------------------------------------------------------------------------------------------------


  energy-cutoff  :      500.00
  volume of cell :     1007.73
      direct lattice vectors                 reciprocal lattice vectors
     8.624306030  0.000000000  0.000000000     0.115951358  0.000000000 -0.066944549
     0.000000000 15.644695879  0.000000000     0.000000000  0.063919427  0.000000000
     4.312153063  0.000000000  7.468868111     0.000000000  0.000000000  0.133889096

  length of vectors
     8.624306030 15.644695879  8.624306054     0.133889096  0.063919427  0.133889096


 
 k-points in units of 2pi/SCALE and weight: Automatic mesh                          
   0.00000000  0.00000000  0.00000000       1.000
 
 k-points in reciprocal lattice and weights: Automatic mesh                          
   0.00000000  0.00000000  0.00000000       1.000
 
 position of ions in fractional coordinates (direct lattice) 
   0.00000000  0.00000000  0.00000000
   0.88888889  0.33333333  0.22222222
   0.11111111  0.66666667  0.11111111
   0.33333333  0.00000000  0.00000000
   0.22222222  0.33333333  0.22222222
   0.44444445  0.66666667  0.11111111
   0.66666667  0.00000000  0.00000000
   0.55555556  0.33333333  0.22222222
   0.77777778  0.66666667  0.11111111
   0.66666667  0.00000000  0.33333333
   0.55555555  0.33333333  0.55555556
   0.77777778  0.66666667  0.44444444
   0.00000000  0.00000000  0.33333333
   0.88888888  0.33333333  0.55555556
   0.11111112  0.66666667  0.44444444
   0.33333334  0.00000000  0.33333333
   0.22222222  0.33333333  0.55555556
   0.44444445  0.66666667  0.44444444
   0.33333333  0.00000000  0.66666667
   0.22222222  0.33333333  0.88888889
   0.44444444  0.66666667  0.77777778
   0.66666666  0.00000000  0.66666667
   0.55555555  0.33333333  0.88888889
   0.77777778  0.66666667  0.77777778
   0.00000000  0.00000000  0.66666667
   0.88888889  0.33333333  0.88888889
   0.11111111  0.66666667  0.77777778
   0.00000000  0.50000000  0.00000000
   0.88888889  0.83333333  0.22222222
   0.11111111  0.16666667  0.11111111
   0.33333333  0.50000000  0.00000000
   0.22222222  0.83333333  0.22222222
   0.44444445  0.16666667  0.11111111
   0.66666667  0.50000000  0.00000000
   0.55555556  0.83333333  0.22222222
   0.77777778  0.16666667  0.11111111
   0.66666667  0.50000000  0.33333333
   0.55555555  0.83333333  0.55555556
   0.77777778  0.16666667  0.44444444
   0.00000000  0.50000000  0.33333333
   0.88888888  0.83333333  0.55555556
   0.11111112  0.16666667  0.44444444
   0.33333334  0.50000000  0.33333333
   0.22222222  0.83333333  0.55555556
   0.44444445  0.16666667  0.44444444
   0.33333333  0.50000000  0.66666667
   0.22222222  0.83333333  0.88888889
   0.44444444  0.16666667  0.77777778
   0.66666666  0.50000000  0.66666667
   0.55555555  0.83333333  0.88888889
   0.77777778  0.16666667  0.77777778
   0.00000000  0.50000000  0.66666667
   0.88888889  0.83333333  0.88888889
   0.11111111  0.16666667  0.77777778
   0.00000000  0.75350065  0.00000000
   0.00000000  0.24649935  0.00000000
   0.88888889  0.08683398  0.22222222
   0.88888889  0.57983268  0.22222222
   0.11111111  0.42016732  0.11111111
   0.11111111  0.91316602  0.11111111
   0.33333333  0.75350065  0.00000000
   0.33333333  0.24649935  0.00000000
   0.22222222  0.08683398  0.22222222
   0.22222222  0.57983268  0.22222222
   0.44444445  0.42016732  0.11111111
   0.44444445  0.91316602  0.11111111
   0.66666667  0.75350065  0.00000000
   0.66666667  0.24649935  0.00000000
   0.55555556  0.08683398  0.22222222
   0.55555556  0.57983268  0.22222222
   0.77777778  0.42016732  0.11111111
   0.77777778  0.91316602  0.11111111
   0.66666667  0.75350065  0.33333333
   0.66666667  0.24649935  0.33333333
   0.55555555  0.08683398  0.55555556
   0.55555555  0.57983268  0.55555556
   0.77777778  0.42016732  0.44444444
   0.77777778  0.91316602  0.44444444
   0.00000000  0.75350065  0.33333333
   0.00000000  0.24649935  0.33333333
   0.88888888  0.08683398  0.55555556
   0.88888888  0.57983268  0.55555556
   0.11111112  0.42016732  0.44444444
   0.11111112  0.91316602  0.44444444
   0.33333334  0.75350065  0.33333333
   0.33333334  0.24649935  0.33333333
   0.22222222  0.08683398  0.55555556
   0.22222222  0.57983268  0.55555556
   0.44444445  0.42016732  0.44444444
   0.44444445  0.91316602  0.44444444
   0.33333333  0.75350065  0.66666667
   0.33333333  0.24649935  0.66666667
   0.22222222  0.08683398  0.88888889
   0.22222222  0.57983268  0.88888889
   0.44444444  0.42016732  0.77777778
   0.44444444  0.91316602  0.77777778
   0.66666666  0.75350065  0.66666667
   0.66666666  0.24649935  0.66666667
   0.55555555  0.08683398  0.88888889
   0.55555555  0.57983268  0.88888889
   0.77777778  0.42016732  0.77777778
   0.77777778  0.91316602  0.77777778
   0.00000000  0.75350065  0.66666667
   0.00000000  0.24649935  0.66666667
   0.88888889  0.08683398  0.88888889
   0.88888889  0.57983268  0.88888889
   0.11111111  0.42016732  0.77777778
   0.11111111  0.91316602  0.77777778
 
 position of ions in cartesian coordinates  (Angst):
   0.00000000  0.00000000  0.00000000
   8.62430604  5.21489857  1.65974845
   1.43738433 10.42979730  0.82987423
   2.87476865  0.00000000  0.00000000
   2.87476866  5.21489857  1.65974845
   4.31215306 10.42979730  0.82987423
   5.74953738  0.00000000  0.00000000
   5.74953739  5.21489857  1.65974845
   7.18692171 10.42979730  0.82987423
   7.18692172  0.00000000  2.48962268
   7.18692169  5.21489857  4.14937121
   8.62430605 10.42979730  3.31949691
   1.43738434  0.00000000  2.48962268
  10.06169034  5.21489857  4.14937121
   2.87476876 10.42979730  3.31949691
   4.31215307  0.00000000  2.48962268
   4.31215304  5.21489857  4.14937121
   5.74953740 10.42979730  3.31949691
   5.74953737  0.00000000  4.97924543
   5.74953738  5.21489857  6.63899389
   7.18692170 10.42979730  5.80911966
   8.62430602  0.00000000  4.97924543
   8.62430603  5.21489857  6.63899389
  10.06169043 10.42979730  5.80911966
   2.87476872  0.00000000  4.97924543
  11.49907476  5.21489857  6.63899389
   4.31215305 10.42979730  5.80911966
   0.00000000  7.82234794  0.00000000
   8.62430604 13.03724651  1.65974845
   1.43738433  2.60744937  0.82987423
   2.87476865  7.82234794  0.00000000
   2.87476866 13.03724651  1.65974845
   4.31215306  2.60744937  0.82987423
   5.74953738  7.82234794  0.00000000
   5.74953739 13.03724651  1.65974845
   7.18692171  2.60744937  0.82987423
   7.18692172  7.82234794  2.48962268
   7.18692169 13.03724651  4.14937121
   8.62430605  2.60744937  3.31949691
   1.43738434  7.82234794  2.48962268
  10.06169034 13.03724651  4.14937121
   2.87476876  2.60744937  3.31949691
   4.31215307  7.82234794  2.48962268
   4.31215304 13.03724651  4.14937121
   5.74953740  2.60744937  3.31949691
   5.74953737  7.82234794  4.97924543
   5.74953738 13.03724651  6.63899389
   7.18692170  2.60744937  5.80911966
   8.62430602  7.82234794  4.97924543
   8.62430603 13.03724651  6.63899389
  10.06169043  2.60744937  5.80911966
   2.87476872  7.82234794  4.97924543
  11.49907476 13.03724651  6.63899389
   4.31215305  2.60744937  5.80911966
   0.00000000 11.78828851  0.00000000
   0.00000000  3.85640737  0.00000000
   8.62430604  1.35849121  1.65974845
   8.62430604  9.07130594  1.65974845
   1.43738433  6.57338994  0.82987423
   1.43738433 14.28620467  0.82987423
   2.87476865 11.78828851  0.00000000
   2.87476865  3.85640737  0.00000000
   2.87476866  1.35849121  1.65974845
   2.87476866  9.07130594  1.65974845
   4.31215306  6.57338994  0.82987423
   4.31215306 14.28620467  0.82987423
   5.74953738 11.78828851  0.00000000
   5.74953738  3.85640737  0.00000000
   5.74953739  1.35849121  1.65974845
   5.74953739  9.07130594  1.65974845
   7.18692171  6.57338994  0.82987423
   7.18692171 14.28620467  0.82987423
   7.18692172 11.78828851  2.48962268
   7.18692172  3.85640737  2.48962268
   7.18692169  1.35849121  4.14937121
   7.18692169  9.07130594  4.14937121
   8.62430605  6.57338994  3.31949691
   8.62430605 14.28620467  3.31949691
   1.43738434 11.78828851  2.48962268
   1.43738434  3.85640737  2.48962268
  10.06169034  1.35849121  4.14937121
  10.06169034  9.07130594  4.14937121
   2.87476876  6.57338994  3.31949691
   2.87476876 14.28620467  3.31949691
   4.31215307 11.78828851  2.48962268
   4.31215307  3.85640737  2.48962268
   4.31215304  1.35849121  4.14937121
   4.31215304  9.07130594  4.14937121
   5.74953740  6.57338994  3.31949691
   5.74953740 14.28620467  3.31949691
   5.74953737 11.78828851  4.97924543
   5.74953737  3.85640737  4.97924543
   5.74953738  1.35849121  6.63899389
   5.74953738  9.07130594  6.63899389
   7.18692170  6.57338994  5.80911966
   7.18692170 14.28620467  5.80911966
   8.62430602 11.78828851  4.97924543
   8.62430602  3.85640737  4.97924543
   8.62430603  1.35849121  6.63899389
   8.62430603  9.07130594  6.63899389
  10.06169043  6.57338994  5.80911966
  10.06169043 14.28620467  5.80911966
   2.87476872 11.78828851  4.97924543
   2.87476872  3.85640737  4.97924543
  11.49907476  1.35849121  6.63899389
  11.49907476  9.07130594  6.63899389
   4.31215305  6.57338994  5.80911966
   4.31215305 14.28620467  5.80911966
 


--------------------------------------------------------------------------------------------------------


 use serial FFT for orbitals x direction half grid
 k-point  1 :   0.0000 0.0000 0.0000  plane waves:   12833

 maximum and minimum number of plane-waves per node :     12833    12833

 maximum number of plane-waves:     12833
 maximum index in each direction: 
   IXMAX=   15   IYMAX=   28   IZMAX=   15
   IXMIN=    0   IYMIN=  -28   IZMIN=  -13

 The following grids will avoid any aliasing or wrap around errors in the Hartre
 e energy
  - symmetry arguments have not been applied
  - exchange correlation energies might require even more grid points
  - we recommend to set PREC=Normal or Accurate and rely on VASP defaults
 NGX is ok and might be reduce to    64
 NGY is ok and might be reduce to   120
 NGZ is ok and might be reduce to    60

 serial   3D FFT for wavefunctions
 parallel 3D FFT for charge:
    minimum data exchange during FFTs selected (reduces bandwidth)


 total amount of memory used by VASP MPI-rank0   164887. kBytes
=======================================================================

   base      :      30000. kBytes
   nonlr-proj:      48515. kBytes
   fftplans  :      10383. kBytes
   grid      :      61470. kBytes
   one-center:       1679. kBytes
   wavefun   :      12840. kBytes
 
     INWAV:  cpu time    0.0000: real time    0.0000
 Broyden mixing: mesh for mixing (old mesh)
   NGX = 31   NGY = 57   NGZ = 31
  (NGX  =128   NGY  =240   NGZ  =128)
  gives a total of  54777 points

 initial charge density was supplied:
 charge density of overlapping atoms calculated
 number of electron     702.0000000 magnetization     108.0000000
 keeping initial charge density in first step


--------------------------------------------------------------------------------------------------------


 Maximum index for non-local projection operator         8307
 Maximum index for augmentation-charges         1729 (set IRDMAX)


--------------------------------------------------------------------------------------------------------


 First call to EWALD:  gamma=   0.177
 Maximum number of real-space cells 4x 2x 4
 Maximum number of reciprocal cells 2x 4x 2

    FEWALD:  cpu time    0.0062: real time    0.0062


--------------------------------------- Iteration      1(   1)  ---------------------------------------


    POTLOK:  cpu time    0.2934: real time    0.2955
    SETDIJ:  cpu time    0.0429: real time    0.0430
     EDDAV:  cpu time    6.9406: real time    6.9770
    --------------------------------------------
      LOOP:  cpu time    7.2774: real time    7.3161

 eigenvalue-minimisations  :  1968
 total energy-change (2. order) : 0.9847394E+04  (-0.4020061E+05)
 number of electron     702.0000000 magnetization     108.0000000
 augmentation part      702.0000000 magnetization     108.0000000

 Free energy of the ion-electron system (eV)
  ---------------------------------------------------
  alpha Z        PSCENC =      4935.41623020
  Ewald energy   TEWEN  =    -47136.42184359
  -Hartree energ DENC   =    -10326.31288408
  -exchange      EXHF   =         0.00000000
  -V(xc)+E(xc)   XCENC  =      2557.35779212
  PAW double counting   =     42983.05298916   -43032.45504458
  entropy T*S    EENTRO =        -0.02442930
  eigenvalues    EBANDS =      2891.56669890
  atomic energy  EATOM  =     56975.21433987
  Solvation  Ediel_sol  =         0.00000000
  ---------------------------------------------------
  free energy    TOTEN  =      9847.39384871 eV

  energy without entropy =     9847.41827801  energy(sigma->0) =     9847.40606336


--------------------------------------------------------------------------------------------------------




--------------------------------------- Iteration      1(   2)  ---------------------------------------


     EDDAV:  cpu time    7.6464: real time    7.6646
    --------------------------------------------
      LOOP:  cpu time    7.6462: real time    7.6644

 eigenvalue-minimisations  :  2240
 total energy-change (2. order) :-0.9530248E+04  (-0.8801725E+04)
 number of electron     702.0000000 magnetization     108.0000000
 augmentation part      702.0000000 magnetization     108.0000000

 Free energy of the ion-electron system (eV)
  ---------------------------------------------------
  alpha Z        PSCENC =      4935.41623020
  Ewald energy   TEWEN  =    -47136.42184359
  -Hartree energ DENC   =    -10326.31288408
  -exchange      EXHF   =         0.00000000
  -V(xc)+E(xc)   XCENC  =      2557.35779212
  PAW double counting   =     42983.05298916   -43032.45504458
  entropy T*S    EENTRO =        -0.02792634
  eigenvalues    EBANDS =     -6638.67772680
  atomic energy  EATOM  =     56975.21433987
  Solvation  Ediel_sol  =         0.00000000
  ---------------------------------------------------
  free energy    TOTEN  =       317.14592596 eV

  energy without entropy =      317.17385230  energy(sigma->0) =      317.15988913


--------------------------------------------------------------------------------------------------------




--------------------------------------- Iteration      1(   3)  ---------------------------------------


     EDDAV:  cpu time    7.8110: real time    7.8296
    --------------------------------------------
      LOOP:  cpu time    7.8110: real time    7.8296

 eigenvalue-minimisations  :  2304
 total energy-change (2. order) :-0.1207188E+04  (-0.1172133E+04)
 number of electron     702.0000000 magnetization     108.0000000
 augmentation part      702.0000000 magnetization     108.0000000

 Free energy of the ion-electron system (eV)
  ---------------------------------------------------
  alpha Z        PSCENC =      4935.41623020
  Ewald energy   TEWEN  =    -47136.42184359
  -Hartree energ DENC   =    -10326.31288408
  -exchange      EXHF   =         0.00000000
  -V(xc)+E(xc)   XCENC  =      2557.35779212
  PAW double counting   =     42983.05298916   -43032.45504458
  entropy T*S    EENTRO =        -0.04351718
  eigenvalues    EBANDS =     -7845.84977869
  atomic energy  EATOM  =     56975.21433987
  Solvation  Ediel_sol  =         0.00000000
  ---------------------------------------------------
  free energy    TOTEN  =      -890.04171677 eV

  energy without entropy =     -889.99819959  energy(sigma->0) =     -890.01995818


--------------------------------------------------------------------------------------------------------




--------------------------------------- Iteration      1(   4)  ---------------------------------------


     EDDAV:  cpu time    9.4194: real time    9.4417
    --------------------------------------------
      LOOP:  cpu time    9.4194: real time    9.4417

 eigenvalue-minimisations  :  2912
 total energy-change (2. order) :-0.8204129E+02  (-0.8104982E+02)
 number of electron     702.0000000 magnetization     108.0000000
 augmentation part      702.0000000 magnetization     108.0000000

 Free energy of the ion-electron system (eV)
  ---------------------------------------------------
  alpha Z        PSCENC =      4935.41623020
  Ewald energy   TEWEN  =    -47136.42184359
  -Hartree energ DENC   =    -10326.31288408
  -exchange      EXHF   =         0.00000000
  -V(xc)+E(xc)   XCENC  =      2557.35779212
  PAW double counting   =     42983.05298916   -43032.45504458
  entropy T*S    EENTRO =        -0.00000171
  eigenvalues    EBANDS =     -7927.93458010
  atomic energy  EATOM  =     56975.21433987
  Solvation  Ediel_sol  =         0.00000000
  ---------------------------------------------------
  free energy    TOTEN  =      -972.08300271 eV

  energy without entropy =     -972.08300100  energy(sigma->0) =     -972.08300186


--------------------------------------------------------------------------------------------------------




--------------------------------------- Iteration      1(   5)  ---------------------------------------


     EDDAV:  cpu time    9.8566: real time    9.8800
    CHARGE:  cpu time    0.9372: real time    0.9394
    MIXING:  cpu time    0.0057: real time    0.0057
    --------------------------------------------
      LOOP:  cpu time   10.7991: real time   10.8248

 eigenvalue-minimisations  :  3088
 total energy-change (2. order) :-0.6447534E+01  (-0.6433906E+01)
 number of electron     701.9999942 magnetization      86.6659403
 augmentation part      156.5632933 magnetization      76.3646144

 Broyden mixing:
  rms(total) = 0.14908E+02    rms(broyden)= 0.14907E+02
  rms(prec ) = 0.15358E+02
  weight for this iteration     100.00

 Free energy of the ion-electron system (eV)
  ---------------------------------------------------
  alpha Z        PSCENC =      4935.41623020
  Ewald energy   TEWEN  =    -47136.42184359
  -Hartree energ DENC   =    -10326.31288408
  -exchange      EXHF   =         0.00000000
  -V(xc)+E(xc)   XCENC  =      2557.35779212
  PAW double counting   =     42983.05298916   -43032.45504458
  entropy T*S    EENTRO =        -0.00000110
  eigenvalues    EBANDS =     -7934.38211470
  atomic energy  EATOM  =     56975.21433987
  Solvation  Ediel_sol  =         0.00000000
  ---------------------------------------------------
  free energy    TOTEN  =      -978.53053670 eV

  energy without entropy =     -978.53053560  energy(sigma->0) =     -978.53053615


--------------------------------------------------------------------------------------------------------




--------------------------------------- Iteration      1(   6)  ---------------------------------------


    POTLOK:  cpu time    0.2735: real time    0.2742
    SETDIJ:  cpu time    0.0446: real time    0.0447
     EDDAV:  cpu time    7.9491: real time    7.9679
    CHARGE:  cpu time    0.9533: real time    0.9556
    MIXING:  cpu time    0.0064: real time    0.0065
    --------------------------------------------
      LOOP:  cpu time    9.2270: real time    9.2488

 eigenvalue-minimisations  :  2352
 total energy-change (2. order) : 0.1660642E+03  (-0.5476434E+02)
 number of electron     701.9999927 magnetization      69.5816252
 augmentation part      153.1788059 magnetization      55.1873801

 Broyden mixing:
  rms(total) = 0.65044E+01    rms(broyden)= 0.65035E+01
  rms(prec ) = 0.65462E+01
  weight for this iteration     100.00

 eigenvalues of (default mixing * dielectric matrix)
  average eigenvalue GAMMA=   0.8838
  0.8838

 Free energy of the ion-electron system (eV)
  ---------------------------------------------------
  alpha Z        PSCENC =      4935.41623020
  Ewald energy   TEWEN  =    -47136.42184359
  -Hartree energ DENC   =    -10674.18137513
  -exchange      EXHF   =         0.00000000
  -V(xc)+E(xc)   XCENC  =      2619.35388604
  PAW double counting   =     59615.08433955   -59716.97751116
  entropy T*S    EENTRO =        -0.08139319
  eigenvalues    EBANDS =     -7429.87305803
  atomic energy  EATOM  =     56975.21433987
  Solvation  Ediel_sol  =         0.00000000
  ---------------------------------------------------
  free energy    TOTEN  =      -812.46638545 eV

  energy without entropy =     -812.38499225  energy(sigma->0) =     -812.42568885


--------------------------------------------------------------------------------------------------------




--------------------------------------- Iteration      1(   7)  ---------------------------------------


    POTLOK:  cpu time    0.2841: real time    0.2848
    SETDIJ:  cpu time    0.0482: real time    0.0483
     EDDAV:  cpu time    8.0107: real time    8.0297
    CHARGE:  cpu time    0.9675: real time    0.9698
    MIXING:  cpu time    0.0069: real time    0.0069
    --------------------------------------------
      LOOP:  cpu time    9.3174: real time    9.3395

 eigenvalue-minimisations  :  2304
 total energy-change (2. order) :-0.8708043E+02  (-0.1058931E+02)
 number of electron     701.9999934 magnetization      49.0388373
 augmentation part      152.2470648 magnetization      37.1643394

 Broyden mixing:
  rms(total) = 0.46341E+01    rms(broyden)= 0.46340E+01
  rms(prec ) = 0.46547E+01
  weight for this iteration     100.00

 eigenvalues of (default mixing * dielectric matrix)
  average eigenvalue GAMMA=   1.0896
  1.5121  0.6672

 Free energy of the ion-electron system (eV)
  ---------------------------------------------------
  alpha Z        PSCENC =      4935.41623020
  Ewald energy   TEWEN  =    -47136.42184359
  -Hartree energ DENC   =    -10577.54227573
  -exchange      EXHF   =         0.00000000
  -V(xc)+E(xc)   XCENC  =      2581.60990489
  PAW double counting   =     72618.77726496   -72732.95015304
  entropy T*S    EENTRO =        -0.04984834
  eigenvalues    EBANDS =     -7563.60043850
  atomic energy  EATOM  =     56975.21433987
  Solvation  Ediel_sol  =         0.00000000
  ---------------------------------------------------
  free energy    TOTEN  =      -899.54681928 eV

  energy without entropy =     -899.49697094  energy(sigma->0) =     -899.52189511


--------------------------------------------------------------------------------------------------------




--------------------------------------- Iteration      1(   8)  ---------------------------------------


    POTLOK:  cpu time    0.2846: real time    0.2853
    SETDIJ:  cpu time    0.0474: real time    0.0475
     EDDAV:  cpu time    7.5915: real time    7.6095
    CHARGE:  cpu time    0.9454: real time    0.9477
    MIXING:  cpu time    0.0070: real time    0.0070
    --------------------------------------------
      LOOP:  cpu time    8.8760: real time    8.8970

 eigenvalue-minimisations  :  2368
 total energy-change (2. order) :-0.6663677E+01  (-0.1719610E+01)
 number of electron     701.9999936 magnetization      33.9392783
 augmentation part      152.7737343 magnetization      22.8033635

 Broyden mixing:
  rms(total) = 0.17509E+01    rms(broyden)= 0.17508E+01
  rms(prec ) = 0.17635E+01
  weight for this iteration     100.00

 eigenvalues of (default mixing * dielectric matrix)
  average eigenvalue GAMMA=   1.3508
  2.5094  0.8908  0.6523

 Free energy of the ion-electron system (eV)
  ---------------------------------------------------
  alpha Z        PSCENC =      4935.41623020
  Ewald energy   TEWEN  =    -47136.42184359
  -Hartree energ DENC   =    -10431.02091900
  -exchange      EXHF   =         0.00000000
  -V(xc)+E(xc)   XCENC  =      2567.40215620
  PAW double counting   =     86205.03585378   -86334.16502304
  entropy T*S    EENTRO =        -0.06770340
  eigenvalues    EBANDS =     -7687.60358760
  atomic energy  EATOM  =     56975.21433987
  Solvation  Ediel_sol  =         0.00000000
  ---------------------------------------------------
  free energy    TOTEN  =      -906.21049659 eV

  energy without entropy =     -906.14279319  energy(sigma->0) =     -906.17664489


--------------------------------------------------------------------------------------------------------




--------------------------------------- Iteration      1(   9)  ---------------------------------------


    POTLOK:  cpu time    0.2858: real time    0.2864
    SETDIJ:  cpu time    0.0473: real time    0.0474
     EDDAV:  cpu time    8.6908: real time    8.7114
    CHARGE:  cpu time    0.9863: real time    0.9886
    MIXING:  cpu time    0.0071: real time    0.0071
    --------------------------------------------
      LOOP:  cpu time   10.0173: real time   10.0410

 eigenvalue-minimisations  :  2688
 total energy-change (2. order) :-0.4707982E+01  (-0.2636060E+00)
 number of electron     701.9999936 magnetization      29.0160571
 augmentation part      152.5366418 magnetization      18.3345218

 Broyden mixing:
  rms(total) = 0.77963E+00    rms(broyden)= 0.77955E+00
  rms(prec ) = 0.78267E+00
  weight for this iteration     100.00

 eigenvalues of (default mixing * dielectric matrix)
  average eigenvalue GAMMA=   1.2415
  2.4412  1.0849  0.7943  0.6455

 Free energy of the ion-electron system (eV)
  ---------------------------------------------------
  alpha Z        PSCENC =      4935.41623020
  Ewald energy   TEWEN  =    -47136.42184359
  -Hartree energ DENC   =    -10412.64162674
  -exchange      EXHF   =         0.00000000
  -V(xc)+E(xc)   XCENC  =      2564.81738850
  PAW double counting   =     92796.08754416   -92934.33898526
  entropy T*S    EENTRO =        -0.06898484
  eigenvalues    EBANDS =     -7698.98254127
  atomic energy  EATOM  =     56975.21433987
  Solvation  Ediel_sol  =         0.00000000
  ---------------------------------------------------
  free energy    TOTEN  =      -910.91847897 eV

  energy without entropy =     -910.84949413  energy(sigma->0) =     -910.88398655


--------------------------------------------------------------------------------------------------------




--------------------------------------- Iteration      1(  10)  ---------------------------------------


    POTLOK:  cpu time    0.2905: real time    0.2912
    SETDIJ:  cpu time    0.0476: real time    0.0477
     EDDAV:  cpu time    8.5124: real time    8.5326
    CHARGE:  cpu time    0.9700: real time    0.9723
    MIXING:  cpu time    0.0073: real time    0.0073
    --------------------------------------------
      LOOP:  cpu time    9.8279: real time    9.8512

 eigenvalue-minimisations  :  2464
 total energy-change (2. order) :-0.1202977E+01  (-0.6056365E-01)
 number of electron     701.9999937 magnetization      14.5131082
 augmentation part      152.4199556 magnetization       3.9700321

 Broyden mixing:
  rms(total) = 0.54905E+00    rms(broyden)= 0.54904E+00
  rms(prec ) = 0.54931E+00
  weight for this iteration     100.00

 eigenvalues of (default mixing * dielectric matrix)
  average eigenvalue GAMMA=   1.5379
  3.0572  2.3328  0.8783  0.7740  0.6471

 Free energy of the ion-electron system (eV)
  ---------------------------------------------------
  alpha Z        PSCENC =      4935.41623020
  Ewald energy   TEWEN  =    -47136.42184359
  -Hartree energ DENC   =    -10436.95239180
  -exchange      EXHF   =         0.00000000
  -V(xc)+E(xc)   XCENC  =      2565.48783877
  PAW double counting   =     91047.01567765   -91183.84435498
  entropy T*S    EENTRO =        -0.06968463
  eigenvalues    EBANDS =     -7677.96726704
  atomic energy  EATOM  =     56975.21433987
  Solvation  Ediel_sol  =         0.00000000
  ---------------------------------------------------
  free energy    TOTEN  =      -912.12145555 eV

  energy without entropy =     -912.05177092  energy(sigma->0) =     -912.08661323


--------------------------------------------------------------------------------------------------------




--------------------------------------- Iteration      1(  11)  ---------------------------------------


    POTLOK:  cpu time    0.2894: real time    0.2901
    SETDIJ:  cpu time    0.0469: real time    0.0471
     EDDAV:  cpu time    8.0391: real time    8.0581
    CHARGE:  cpu time    0.9603: real time    0.9626
    MIXING:  cpu time    0.0081: real time    0.0081
    --------------------------------------------
      LOOP:  cpu time    9.3438: real time    9.3660

 eigenvalue-minimisations  :  2288
 total energy-change (2. order) :-0.1737795E+01  (-0.1597553E+00)
 number of electron     701.9999936 magnetization      11.7127745
 augmentation part      152.3661339 magnetization       2.6317455

 Broyden mixing:
  rms(total) = 0.16687E+00    rms(broyden)= 0.16683E+00
  rms(prec ) = 0.16838E+00
  weight for this iteration     100.00

 eigenvalues of (default mixing * dielectric matrix)
  average eigenvalue GAMMA=   1.5953
  4.2209  2.2930  0.9468  0.8133  0.6572  0.6405

 Free energy of the ion-electron system (eV)
  ---------------------------------------------------
  alpha Z        PSCENC =      4935.41623020
  Ewald energy   TEWEN  =    -47136.42184359
  -Hartree energ DENC   =    -10447.12755113
  -exchange      EXHF   =         0.00000000
  -V(xc)+E(xc)   XCENC  =      2565.15454298
  PAW double counting   =     90505.13694160   -90641.73369595
  entropy T*S    EENTRO =        -0.10762156
  eigenvalues    EBANDS =     -7669.39059284
  atomic energy  EATOM  =     56975.21433987
  Solvation  Ediel_sol  =         0.00000000
  ---------------------------------------------------
  free energy    TOTEN  =      -913.85925042 eV

  energy without entropy =     -913.75162886  energy(sigma->0) =     -913.80543964


--------------------------------------------------------------------------------------------------------




--------------------------------------- Iteration      1(  12)  ---------------------------------------


    POTLOK:  cpu time    0.2855: real time    0.2862
    SETDIJ:  cpu time    0.0473: real time    0.0474
     EDDAV:  cpu time    8.9454: real time    8.9666
    CHARGE:  cpu time    0.9730: real time    0.9753
    MIXING:  cpu time    0.0079: real time    0.0079
    --------------------------------------------
      LOOP:  cpu time   10.2591: real time   10.2834

 eigenvalue-minimisations  :  2624
 total energy-change (2. order) :-0.1273909E+00  (-0.1290532E-01)
 number of electron     701.9999936 magnetization      11.5332160
 augmentation part      152.4043658 magnetization       4.4082382

 Broyden mixing:
  rms(total) = 0.15895E+00    rms(broyden)= 0.15894E+00
  rms(prec ) = 0.16012E+00
  weight for this iteration     100.00

 eigenvalues of (default mixing * dielectric matrix)
  average eigenvalue GAMMA=   1.3813
  4.1796  2.2889  0.9461  0.8180  0.6622  0.6432  0.1311

 Free energy of the ion-electron system (eV)
  ---------------------------------------------------
  alpha Z        PSCENC =      4935.41623020
  Ewald energy   TEWEN  =    -47136.42184359
  -Hartree energ DENC   =    -10442.15505558
  -exchange      EXHF   =         0.00000000
  -V(xc)+E(xc)   XCENC  =      2564.75823859
  PAW double counting   =     90744.19108315   -90880.78789145
  entropy T*S    EENTRO =        -0.14393168
  eigenvalues    EBANDS =     -7674.05781089
  atomic energy  EATOM  =     56975.21433987
  Solvation  Ediel_sol  =         0.00000000
  ---------------------------------------------------
  free energy    TOTEN  =      -913.98664137 eV

  energy without entropy =     -913.84270969  energy(sigma->0) =     -913.91467553


--------------------------------------------------------------------------------------------------------




--------------------------------------- Iteration      1(  13)  ---------------------------------------


    POTLOK:  cpu time    0.2888: real time    0.2895
    SETDIJ:  cpu time    0.0475: real time    0.0476
     EDDAV:  cpu time    9.4671: real time    9.4896
    CHARGE:  cpu time    1.0440: real time    1.0465
    MIXING:  cpu time    0.0081: real time    0.0082
    --------------------------------------------
      LOOP:  cpu time   10.8555: real time   10.8813

 eigenvalue-minimisations  :  2800
 total energy-change (2. order) :-0.6987201E-02  (-0.6072697E-03)
 number of electron     701.9999936 magnetization      13.3486003
 augmentation part      152.4138554 magnetization       6.4405319

 Broyden mixing:
  rms(total) = 0.16284E+00    rms(broyden)= 0.16284E+00
  rms(prec ) = 0.16403E+00
  weight for this iteration     100.00

 eigenvalues of (default mixing * dielectric matrix)
  average eigenvalue GAMMA=   1.4295
  4.0363  2.2914  1.3358  0.9506  0.8885  0.6761  0.6761  0.5813

 Free energy of the ion-electron system (eV)
  ---------------------------------------------------
  alpha Z        PSCENC =      4935.41623020
  Ewald energy   TEWEN  =    -47136.42184359
  -Hartree energ DENC   =    -10442.05214776
  -exchange      EXHF   =         0.00000000
  -V(xc)+E(xc)   XCENC  =      2564.73475623
  PAW double counting   =     90744.14014523   -90880.70257605
  entropy T*S    EENTRO =        -0.14668944
  eigenvalues    EBANDS =     -7674.17584325
  atomic energy  EATOM  =     56975.21433987
  Solvation  Ediel_sol  =         0.00000000
  ---------------------------------------------------
  free energy    TOTEN  =      -913.99362857 eV

  energy without entropy =     -913.84693912  energy(sigma->0) =     -913.92028385


--------------------------------------------------------------------------------------------------------




--------------------------------------- Iteration      1(  14)  ---------------------------------------


    POTLOK:  cpu time    0.2871: real time    0.2878
    SETDIJ:  cpu time    0.0472: real time    0.0473
     EDDAV:  cpu time    7.8773: real time    7.8960
    CHARGE:  cpu time    0.9414: real time    0.9436
    MIXING:  cpu time    0.0096: real time    0.0096
    --------------------------------------------
      LOOP:  cpu time    9.1626: real time    9.1843

 eigenvalue-minimisations  :  2224
 total energy-change (2. order) : 0.6353015E-01  (-0.1455045E-02)
 number of electron     701.9999936 magnetization      16.0890580
 augmentation part      152.4164134 magnetization       7.1115170

 Broyden mixing:
  rms(total) = 0.13489E+00    rms(broyden)= 0.13489E+00
  rms(prec ) = 0.13557E+00
  weight for this iteration     100.00

 eigenvalues of (default mixing * dielectric matrix)
  average eigenvalue GAMMA=   1.4447
  3.8906  2.3496  2.3447  0.8523  0.8523  0.7413  0.7413  0.6913  0.5392

 Free energy of the ion-electron system (eV)
  ---------------------------------------------------
  alpha Z        PSCENC =      4935.41623020
  Ewald energy   TEWEN  =    -47136.42184359
  -Hartree energ DENC   =    -10439.90935044
  -exchange      EXHF   =         0.00000000
  -V(xc)+E(xc)   XCENC  =      2564.80949882
  PAW double counting   =     90677.69637241   -90814.35096894
  entropy T*S    EENTRO =        -0.10870438
  eigenvalues    EBANDS =     -7676.27567236
  atomic energy  EATOM  =     56975.21433987
  Solvation  Ediel_sol  =         0.00000000
  ---------------------------------------------------
  free energy    TOTEN  =      -913.93009841 eV

  energy without entropy =     -913.82139403  energy(sigma->0) =     -913.87574622


--------------------------------------------------------------------------------------------------------




--------------------------------------- Iteration      1(  15)  ---------------------------------------


    POTLOK:  cpu time    0.2875: real time    0.2882
    SETDIJ:  cpu time    0.0457: real time    0.0458
     EDDAV:  cpu time    7.9878: real time    8.0068
    CHARGE:  cpu time    1.0421: real time    1.0446
    MIXING:  cpu time    0.0094: real time    0.0095
    --------------------------------------------
      LOOP:  cpu time    9.3725: real time    9.3947

 eigenvalue-minimisations  :  2288
 total energy-change (2. order) : 0.1070679E+00  (-0.4070517E-02)
 number of electron     701.9999936 magnetization      14.0161539
 augmentation part      152.4218766 magnetization       4.0038759

 Broyden mixing:
  rms(total) = 0.22377E+00    rms(broyden)= 0.22376E+00
  rms(prec ) = 0.22503E+00
  weight for this iteration     100.00

 eigenvalues of (default mixing * dielectric matrix)
  average eigenvalue GAMMA=   1.3465
  4.3046  2.3248  1.1970  1.1970  0.8920  0.8920  0.7883  0.6899  0.6581  0.5211

 Free energy of the ion-electron system (eV)
  ---------------------------------------------------
  alpha Z        PSCENC =      4935.41623020
  Ewald energy   TEWEN  =    -47136.42184359
  -Hartree energ DENC   =    -10437.67350336
  -exchange      EXHF   =         0.00000000
  -V(xc)+E(xc)   XCENC  =      2565.03158167
  PAW double counting   =     90467.95379248   -90604.66473409
  entropy T*S    EENTRO =        -0.07637179
  eigenvalues    EBANDS =     -7678.60252192
  atomic energy  EATOM  =     56975.21433987
  Solvation  Ediel_sol  =         0.00000000
  ---------------------------------------------------
  free energy    TOTEN  =      -913.82303053 eV

  energy without entropy =     -913.74665874  energy(sigma->0) =     -913.78484464


--------------------------------------------------------------------------------------------------------




--------------------------------------- Iteration      1(  16)  ---------------------------------------


    POTLOK:  cpu time    0.3107: real time    0.3114
    SETDIJ:  cpu time    0.0511: real time    0.0512
     EDDAV:  cpu time    8.2893: real time    8.3089
    CHARGE:  cpu time    1.0440: real time    1.0465
    MIXING:  cpu time    0.0094: real time    0.0094
    --------------------------------------------
      LOOP:  cpu time    9.7045: real time    9.7274

 eigenvalue-minimisations  :  2160
 total energy-change (2. order) :-0.8481898E-01  (-0.1684827E-02)
 number of electron     701.9999936 magnetization      13.1321330
 augmentation part      152.4119411 magnetization       3.6150754

 Broyden mixing:
  rms(total) = 0.14018E+00    rms(broyden)= 0.14018E+00
  rms(prec ) = 0.14106E+00
  weight for this iteration     100.00

 eigenvalues of (default mixing * dielectric matrix)
  average eigenvalue GAMMA=   1.3277
  4.3535  2.3451  1.2567  1.2567  1.0311  1.0311  0.6688  0.6688  0.7258  0.6605
  0.6064

 Free energy of the ion-electron system (eV)
  ---------------------------------------------------
  alpha Z        PSCENC =      4935.41623020
  Ewald energy   TEWEN  =    -47136.42184359
  -Hartree energ DENC   =    -10439.07423426
  -exchange      EXHF   =         0.00000000
  -V(xc)+E(xc)   XCENC  =      2564.86026762
  PAW double counting   =     90570.91556856   -90707.45106175
  entropy T*S    EENTRO =        -0.09429358
  eigenvalues    EBANDS =     -7677.27282259
  atomic energy  EATOM  =     56975.21433987
  Solvation  Ediel_sol  =         0.00000000
  ---------------------------------------------------
  free energy    TOTEN  =      -913.90784952 eV

  energy without entropy =     -913.81355594  energy(sigma->0) =     -913.86070273


--------------------------------------------------------------------------------------------------------




--------------------------------------- Iteration      1(  17)  ---------------------------------------


    POTLOK:  cpu time    0.3007: real time    0.3014
    SETDIJ:  cpu time    0.0526: real time    0.0527
     EDDAV:  cpu time    8.7689: real time    8.7896
    CHARGE:  cpu time    1.0344: real time    1.0368
    MIXING:  cpu time    0.0110: real time    0.0111
    --------------------------------------------
      LOOP:  cpu time   10.1676: real time   10.1917

 eigenvalue-minimisations  :  2320
 total energy-change (2. order) :-0.2039788E-01  (-0.5627483E-03)
 number of electron     701.9999936 magnetization      11.1920536
 augmentation part      152.4303238 magnetization       2.0986879

 Broyden mixing:
  rms(total) = 0.13044E+00    rms(broyden)= 0.13044E+00
  rms(prec ) = 0.13122E+00
  weight for this iteration     100.00

 eigenvalues of (default mixing * dielectric matrix)
  average eigenvalue GAMMA=   1.3423
  4.4719  2.3922  1.3101  1.3101  1.5965  0.9745  0.8090  0.8090  0.6830  0.6404
  0.5557  0.5557

 Free energy of the ion-electron system (eV)
  ---------------------------------------------------
  alpha Z        PSCENC =      4935.41623020
  Ewald energy   TEWEN  =    -47136.42184359
  -Hartree energ DENC   =    -10435.85154759
  -exchange      EXHF   =         0.00000000
  -V(xc)+E(xc)   XCENC  =      2564.56990713
  PAW double counting   =     90627.07272413   -90763.28780635
  entropy T*S    EENTRO =        -0.10555360
  eigenvalues    EBANDS =     -7680.53469760
  atomic energy  EATOM  =     56975.21433987
  Solvation  Ediel_sol  =         0.00000000
  ---------------------------------------------------
  free energy    TOTEN  =      -913.92824740 eV

  energy without entropy =     -913.82269380  energy(sigma->0) =     -913.87547060


--------------------------------------------------------------------------------------------------------




--------------------------------------- Iteration      1(  18)  ---------------------------------------


    POTLOK:  cpu time    0.2983: real time    0.2991
    SETDIJ:  cpu time    0.0515: real time    0.0516
     EDDAV:  cpu time    7.2378: real time    7.2549
    CHARGE:  cpu time    0.9105: real time    0.9126
    MIXING:  cpu time    0.0093: real time    0.0093
    --------------------------------------------
      LOOP:  cpu time    8.5074: real time    8.5275

 eigenvalue-minimisations  :  2192
 total energy-change (2. order) :-0.6054528E-01  (-0.1214795E-02)
 number of electron     701.9999936 magnetization       8.1510803
 augmentation part      152.4330819 magnetization       0.9995825

 Broyden mixing:
  rms(total) = 0.15566E+00    rms(broyden)= 0.15566E+00
  rms(prec ) = 0.15696E+00
  weight for this iteration     100.00

 eigenvalues of (default mixing * dielectric matrix)
  average eigenvalue GAMMA=   1.4182
  5.5807  2.4181  2.1101  1.1510  1.1510  0.9599  0.9599  0.8348  0.7312  0.7312
  0.6297  0.6702  0.5089

 Free energy of the ion-electron system (eV)
  ---------------------------------------------------
  alpha Z        PSCENC =      4935.41623020
  Ewald energy   TEWEN  =    -47136.42184359
  -Hartree energ DENC   =    -10435.83934318
  -exchange      EXHF   =         0.00000000
  -V(xc)+E(xc)   XCENC  =      2564.33881803
  PAW double counting   =     90731.31892519   -90867.24434734
  entropy T*S    EENTRO =        -0.14329588
  eigenvalues    EBANDS =     -7680.62827598
  atomic energy  EATOM  =     56975.21433987
  Solvation  Ediel_sol  =         0.00000000
  ---------------------------------------------------
  free energy    TOTEN  =      -913.98879268 eV

  energy without entropy =     -913.84549680  energy(sigma->0) =     -913.91714474


--------------------------------------------------------------------------------------------------------




--------------------------------------- Iteration      1(  19)  ---------------------------------------


    POTLOK:  cpu time    0.2731: real time    0.2737
    SETDIJ:  cpu time    0.0443: real time    0.0444
     EDDAV:  cpu time    7.2149: real time    7.2320
    CHARGE:  cpu time    0.9830: real time    0.9853
    MIXING:  cpu time    0.0107: real time    0.0108
    --------------------------------------------
      LOOP:  cpu time    8.5261: real time    8.5463

 eigenvalue-minimisations  :  2240
 total energy-change (2. order) :-0.1487238E+00  (-0.3614386E-02)
 number of electron     701.9999936 magnetization       9.7210568
 augmentation part      152.4501274 magnetization       6.6672500

 Broyden mixing:
  rms(total) = 0.26991E+00    rms(broyden)= 0.26989E+00
  rms(prec ) = 0.27220E+00
  weight for this iteration     100.00

 eigenvalues of (default mixing * dielectric matrix)
  average eigenvalue GAMMA=   1.3269
  5.0318  2.5201  2.1477  1.1765  1.1765  0.9626  0.9626  0.8413  0.7222  0.7222
  0.6474  0.6474  0.5448  0.4742

 Free energy of the ion-electron system (eV)
  ---------------------------------------------------
  alpha Z        PSCENC =      4935.41623020
  Ewald energy   TEWEN  =    -47136.42184359
  -Hartree energ DENC   =    -10438.14143101
  -exchange      EXHF   =         0.00000000
  -V(xc)+E(xc)   XCENC  =      2564.16243621
  PAW double counting   =     90877.61243367   -91013.21630504
  entropy T*S    EENTRO =        -0.13845446
  eigenvalues    EBANDS =     -7678.62492229
  atomic energy  EATOM  =     56975.21433987
  Solvation  Ediel_sol  =         0.00000000
  ---------------------------------------------------
  free energy    TOTEN  =      -914.13751643 eV

  energy without entropy =     -913.99906198  energy(sigma->0) =     -914.06828920


--------------------------------------------------------------------------------------------------------




--------------------------------------- Iteration      1(  20)  ---------------------------------------


    POTLOK:  cpu time    0.2875: real time    0.2882
    SETDIJ:  cpu time    0.0522: real time    0.0524
     EDDAV:  cpu time    8.7143: real time    8.7349
    CHARGE:  cpu time    0.9926: real time    0.9950
    MIXING:  cpu time    0.0111: real time    0.0111
    --------------------------------------------
      LOOP:  cpu time   10.0578: real time   10.0816

 eigenvalue-minimisations  :  2144
[...]
      5.72822      0.00000      4.96078         0.000000      0.000000     -0.000000
      5.72822      5.29585      6.61437         0.000000      0.000000      0.000000
      7.16027     10.59171      5.78758        -0.000000      0.000000     -0.000000
      8.59232      0.00000      4.96078         0.000000      0.000000     -0.000000
      8.59232      5.29585      6.61437         0.000000      0.000000      0.000000
     10.02438     10.59171      5.78758         0.000000      0.000000     -0.000000
      2.86411      0.00000      4.96078         0.000000      0.000000     -0.000000
     11.45643      5.29585      6.61437         0.000000      0.000000      0.000000
      4.29616     10.59171      5.78758         0.000000      0.000000      0.000000
      0.00000      7.94378      0.00000         0.000000      0.000000      0.000000
      8.59232     13.23964      1.65359         0.000000      0.000000      0.000000
      1.43205      2.64793      0.82680        -0.000000      0.000000      0.000000
      2.86411      7.94378     -0.00000        -0.000000      0.000000      0.000000
      2.86411     13.23964      1.65359         0.000000      0.000000      0.000000
      4.29616      2.64793      0.82680        -0.000000      0.000000     -0.000000
      5.72822      7.94378     -0.00000        -0.000000      0.000000      0.000000
      5.72822     13.23964      1.65359         0.000000      0.000000     -0.000000
      7.16027      2.64793      0.82680        -0.000000      0.000000      0.000000
      7.16027      7.94378      2.48039         0.000000      0.000000      0.000000
      7.16027     13.23964      4.13398        -0.000000      0.000000      0.000000
      8.59232      2.64793      3.30719        -0.000000      0.000000     -0.000000
      1.43205      7.94378      2.48039         0.000000      0.000000     -0.000000
     10.02438     13.23964      4.13398         0.000000      0.000000      0.000000
      2.86411      2.64793      3.30719         0.000000      0.000000      0.000000
      4.29616      7.94378      2.48039         0.000000      0.000000      0.000000
      4.29616     13.23964      4.13398        -0.000000      0.000000     -0.000000
      5.72822      2.64793      3.30719         0.000000      0.000000     -0.000000
      5.72822      7.94378      4.96078         0.000000      0.000000      0.000000
      5.72822     13.23964      6.61437         0.000000      0.000000      0.000000
      7.16027      2.64793      5.78758        -0.000000      0.000000     -0.000000
      8.59232      7.94378      4.96078         0.000000      0.000000     -0.000000
      8.59232     13.23964      6.61437        -0.000000      0.000000      0.000000
     10.02438      2.64793      5.78758         0.000000      0.000000      0.000000
      2.86411      7.94378      4.96078        -0.000000      0.000000      0.000000
     11.45643     13.23964      6.61437        -0.000000      0.000000      0.000000
      4.29616      2.64793      5.78758         0.000000      0.000000      0.000000
     -0.00000     11.96993      0.00000         0.000000     -0.007085      0.000000
      0.00000      3.91763      0.00000         0.000000      0.007085     -0.000000
      8.59232      1.37822      1.65359        -0.000000     -0.007085      0.000000
      8.59232      9.21348      1.65359        -0.000000      0.007085      0.000000
      1.43205      6.67408      0.82680        -0.000000     -0.007085     -0.000000
      1.43205     14.50934      0.82680        -0.000000      0.007085     -0.000000
      2.86411     11.96993     -0.00000        -0.000000     -0.007085      0.000000
      2.86411      3.91763     -0.00000        -0.000000      0.007085     -0.000000
      2.86411      1.37822      1.65359        -0.000000     -0.007085     -0.000000
      2.86411      9.21348      1.65359         0.000000      0.007085      0.000000
      4.29616      6.67408      0.82680        -0.000000     -0.007085     -0.000000
      4.29616     14.50934      0.82680        -0.000000      0.007085     -0.000000
      5.72822     11.96993     -0.00000        -0.000000     -0.007085     -0.000000
      5.72822      3.91763     -0.00000        -0.000000      0.007085      0.000000
      5.72822      1.37822      1.65359        -0.000000     -0.007085      0.000000
      5.72822      9.21348      1.65359        -0.000000      0.007085      0.000000
      7.16027      6.67408      0.82680        -0.000000     -0.007085      0.000000
      7.16027     14.50934      0.82680         0.000000      0.007085      0.000000
      7.16027     11.96993      2.48039        -0.000000     -0.007085      0.000000
      7.16027      3.91763      2.48039         0.000000      0.007085     -0.000000
      7.16027      1.37822      4.13398         0.000000     -0.007085      0.000000
      7.16027      9.21348      4.13398         0.000000      0.007085     -0.000000
      8.59232      6.67408      3.30719         0.000000     -0.007085      0.000000
      8.59232     14.50934      3.30719         0.000000      0.007085     -0.000000
      1.43205     11.96993      2.48039         0.000000     -0.007085     -0.000000
      1.43205      3.91763      2.48039         0.000000      0.007085     -0.000000
     10.02438      1.37822      4.13398         0.000000     -0.007085     -0.000000
     10.02438      9.21348      4.13398         0.000000      0.007085      0.000000
      2.86411      6.67408      3.30719         0.000000     -0.007085      0.000000
      2.86411     14.50934      3.30719        -0.000000      0.007085      0.000000
      4.29616     11.96993      2.48039        -0.000000     -0.007085     -0.000000
      4.29616      3.91763      2.48039         0.000000      0.007085      0.000000
      4.29616      1.37822      4.13398         0.000000     -0.007085      0.000000
      4.29616      9.21348      4.13398         0.000000      0.007085     -0.000000
      5.72822      6.67408      3.30719        -0.000000     -0.007085      0.000000
      5.72822     14.50934      3.30719        -0.000000      0.007085      0.000000
      5.72822     11.96993      4.96078         0.000000     -0.007085      0.000000
      5.72822      3.91763      4.96078         0.000000      0.007085      0.000000
      5.72822      1.37822      6.61437         0.000000     -0.007085      0.000000
      5.72822      9.21348      6.61437        -0.000000      0.007085      0.000000
      7.16027      6.67408      5.78758        -0.000000     -0.007085     -0.000000
      7.16027     14.50934      5.78758         0.000000      0.007085      0.000000
      8.59232     11.96993      4.96078         0.000000     -0.007085     -0.000000
      8.59232      3.91763      4.96078         0.000000      0.007085      0.000000
      8.59232      1.37822      6.61437        -0.000000     -0.007085     -0.000000
      8.59232      9.21348      6.61437         0.000000      0.007085      0.000000
     10.02438      6.67408      5.78758        -0.000000     -0.007085      0.000000
     10.02438     14.50934      5.78758         0.000000      0.007085     -0.000000
      2.86411     11.96993      4.96078         0.000000     -0.007085      0.000000
      2.86411      3.91763      4.96078         0.000000      0.007085     -0.000000
     11.45643      1.37822      6.61437        -0.000000     -0.007085      0.000000
     11.45643      9.21348      6.61437        -0.000000      0.007085      0.000000
      4.29616      6.67408      5.78758         0.000000     -0.007085      0.000000
      4.29616     14.50934      5.78758         0.000000      0.007085      0.000000
 -----------------------------------------------------------------------------------
    total drift:                                0.000000      0.000000      0.000000


--------------------------------------------------------------------------------------------------------



  FREE ENERGIE OF THE ION-ELECTRON SYSTEM (eV)
  ---------------------------------------------------
  free  energy   TOTEN  =      -914.2556686468 eV

  energy  without entropy=     -914.1287732038  energy(sigma->0) =     -914.19222093
 
 d Force = 0.1004660E-03[ 0.198E-03, 0.291E-05]  d Energy = 0.1407745E-02-0.131E-02
 d Force =-0.6194338E+01[-0.620E+01,-0.619E+01]  d Ewald  =-0.1800339E+02 0.118E+02


--------------------------------------------------------------------------------------------------------


    POTLOK:  cpu time    0.3135: real time    0.3143


--------------------------------------------------------------------------------------------------------


 Quasi-Newton relaxation of ions (Broydens 2nd method)
  g(Force)  = 0.131E-03   g(Stress)= 0.848E-03

 retain information from N=  2 steps
 eigenvalues of (default step * inverse Hessian matrix)
  average eigenvalue of G=   0.5971
 eigenvalue spectrum of G is  0.4597  0.7345


--------------------------------------------------------------------------------------------------------


  
 reached required accuracy - stopping structural energy minimisation
     LOOP+:  cpu time  228.5278: real time  229.1464
    4ORBIT:  cpu time    0.0000: real time    0.0000

volume of typ            1:    26.8 %

volume of typ            2:    20.7 %

volume of typ            3:     8.7 %
 
total charge     
 
# of ion       s       p       d       tot
------------------------------------------
    1        0.223   6.068   2.259   8.550
    2        0.223   6.068   2.259   8.550
    3        0.223   6.068   2.259   8.550
    4        0.223   6.068   2.259   8.550
    5        0.223   6.068   2.259   8.550
    6        0.223   6.068   2.259   8.550
    7        0.223   6.068   2.259   8.550
    8        0.223   6.068   2.259   8.550
    9        0.223   6.068   2.259   8.550
   10        0.223   6.068   2.259   8.550
   11        0.223   6.068   2.259   8.550
   12        0.223   6.068   2.259   8.550
   13        0.223   6.068   2.259   8.550
   14        0.223   6.068   2.259   8.550
   15        0.223   6.068   2.259   8.550
   16        0.223   6.068   2.259   8.550
   17        0.223   6.068   2.259   8.550
   18        0.223   6.068   2.259   8.550
   19        0.223   6.068   2.259   8.550
   20        0.223   6.068   2.259   8.550
   21        0.223   6.068   2.259   8.550
   22        0.223   6.068   2.259   8.550
   23        0.223   6.068   2.259   8.550
   24        0.223   6.068   2.259   8.550
   25        0.223   6.068   2.259   8.550
   26        0.223   6.068   2.259   8.550
   27        0.223   6.068   2.259   8.550
   28        2.085   0.274   0.115   2.474
   29        2.085   0.274   0.115   2.474
   30        2.085   0.274   0.115   2.474
   31        2.085   0.274   0.115   2.474
   32        2.085   0.274   0.115   2.474
   33        2.085   0.274   0.115   2.474
   34        2.085   0.274   0.115   2.474
   35        2.085   0.274   0.115   2.474
   36        2.085   0.274   0.115   2.474
   37        2.085   0.274   0.115   2.474
   38        2.085   0.274   0.115   2.474
   39        2.085   0.274   0.115   2.474
   40        2.085   0.274   0.115   2.474
   41        2.085   0.274   0.115   2.474
   42        2.085   0.274   0.115   2.474
   43        2.085   0.274   0.115   2.474
   44        2.085   0.274   0.115   2.474
   45        2.085   0.274   0.115   2.474
   46        2.085   0.274   0.115   2.474
   47        2.085   0.274   0.115   2.474
   48        2.085   0.274   0.115   2.474
   49        2.085   0.274   0.115   2.474
   50        2.085   0.274   0.115   2.474
   51        2.085   0.274   0.115   2.474
   52        2.085   0.274   0.115   2.474
   53        2.085   0.274   0.115   2.474
   54        2.085   0.274   0.115   2.474
   55        1.243   2.846   0.006   4.095
   56        1.243   2.846   0.006   4.095
   57        1.243   2.846   0.006   4.095
   58        1.243   2.846   0.006   4.095
   59        1.243   2.846   0.006   4.095
   60        1.243   2.846   0.006   4.095
   61        1.243   2.846   0.006   4.095
   62        1.243   2.846   0.006   4.095
   63        1.243   2.846   0.006   4.095
   64        1.243   2.846   0.006   4.095
   65        1.243   2.846   0.006   4.095
   66        1.243   2.846   0.006   4.095
   67        1.243   2.846   0.006   4.095
   68        1.243   2.846   0.006   4.095
   69        1.243   2.846   0.006   4.095
   70        1.243   2.846   0.006   4.095
   71        1.243   2.846   0.006   4.095
   72        1.243   2.846   0.006   4.095
   73        1.243   2.846   0.006   4.095
   74        1.243   2.846   0.006   4.095
   75        1.243   2.846   0.006   4.095
   76        1.243   2.846   0.006   4.095
   77        1.243   2.846   0.006   4.095
   78        1.243   2.846   0.006   4.095
   79        1.243   2.846   0.006   4.095
   80        1.243   2.846   0.006   4.095
   81        1.243   2.846   0.006   4.095
   82        1.243   2.846   0.006   4.095
   83        1.243   2.846   0.006   4.095
   84        1.243   2.846   0.006   4.095
   85        1.243   2.846   0.006   4.095
   86        1.243   2.846   0.006   4.095
   87        1.243   2.846   0.006   4.095
   88        1.243   2.846   0.006   4.095
   89        1.243   2.846   0.006   4.095
   90        1.243   2.846   0.006   4.095
   91        1.243   2.846   0.006   4.095
   92        1.243   2.846   0.006   4.095
   93        1.243   2.846   0.006   4.095
   94        1.243   2.846   0.006   4.095
   95        1.243   2.846   0.006   4.095
   96        1.243   2.846   0.006   4.095
   97        1.243   2.846   0.006   4.095
   98        1.243   2.846   0.006   4.095
   99        1.243   2.846   0.006   4.095
  100        1.243   2.846   0.006   4.095
  101        1.243   2.846   0.006   4.095
  102        1.243   2.846   0.006   4.095
  103        1.243   2.846   0.006   4.095
  104        1.243   2.846   0.006   4.095
  105        1.243   2.846   0.006   4.095
  106        1.243   2.846   0.006   4.095
  107        1.243   2.846   0.006   4.095
  108        1.243   2.846   0.006   4.095
--------------------------------------------------
tot         129.41  324.94   64.40  518.75
 
magnetization (x)
 
# of ion       s       p       d       tot
------------------------------------------
    1        0.002   0.004   0.244   0.250
    2        0.002   0.004   0.244   0.250
    3        0.002   0.004   0.244   0.250
    4        0.002   0.004   0.244   0.250
    5        0.002   0.004   0.244   0.250
    6        0.002   0.004   0.244   0.250
    7        0.002   0.004   0.244   0.250
    8        0.002   0.004   0.244   0.250
    9        0.002   0.004   0.244   0.250
   10        0.002   0.004   0.244   0.250
   11        0.002   0.004   0.244   0.250
   12        0.002   0.004   0.244   0.250
   13        0.002   0.004   0.244   0.250
   14        0.002   0.004   0.244   0.250
   15        0.002   0.004   0.244   0.250
   16        0.002   0.004   0.244   0.250
   17        0.002   0.004   0.244   0.250
   18        0.002   0.004   0.244   0.250
   19        0.002   0.004   0.244   0.250
   20        0.002   0.004   0.244   0.250
   21        0.002   0.004   0.244   0.250
   22        0.002   0.004   0.244   0.250
   23        0.002   0.004   0.244   0.250
   24        0.002   0.004   0.244   0.250
   25        0.002   0.004   0.244   0.250
   26        0.002   0.004   0.244   0.250
   27        0.002   0.004   0.244   0.250
   28        0.001  -0.000   0.000   0.001
   29        0.001  -0.000   0.000   0.001
   30        0.001  -0.000   0.000   0.001
   31        0.001  -0.000   0.000   0.001
   32        0.001  -0.000   0.000   0.001
   33        0.001  -0.000   0.000   0.001
   34        0.001  -0.000   0.000   0.001
   35        0.001  -0.000   0.000   0.001
   36        0.001  -0.000   0.000   0.001
   37        0.001  -0.000   0.000   0.001
   38        0.001  -0.000   0.000   0.001
   39        0.001  -0.000   0.000   0.001
   40        0.001  -0.000   0.000   0.001
   41        0.001  -0.000   0.000   0.001
   42        0.001  -0.000   0.000   0.001
   43        0.001  -0.000   0.000   0.001
   44        0.001  -0.000   0.000   0.001
   45        0.001  -0.000   0.000   0.001
   46        0.001  -0.000   0.000   0.001
   47        0.001  -0.000   0.000   0.001
   48        0.001  -0.000   0.000   0.001
   49        0.001  -0.000   0.000   0.001
   50        0.001  -0.000   0.000   0.001
   51        0.001  -0.000   0.000   0.001
   52        0.001  -0.000   0.000   0.001
   53        0.001  -0.000   0.000   0.001
   54        0.001  -0.000   0.000   0.001
   55        0.001   0.020   0.000   0.021
   56        0.001   0.020   0.000   0.021
   57        0.001   0.020   0.000   0.021
   58        0.001   0.020   0.000   0.021
   59        0.001   0.020   0.000   0.021
   60        0.001   0.020   0.000   0.021
   61        0.001   0.020   0.000   0.021
   62        0.001   0.020   0.000   0.021
   63        0.001   0.020   0.000   0.021
   64        0.001   0.020   0.000   0.021
   65        0.001   0.020   0.000   0.021
   66        0.001   0.020   0.000   0.021
   67        0.001   0.020   0.000   0.021
   68        0.001   0.020   0.000   0.021
   69        0.001   0.020   0.000   0.021
   70        0.001   0.020   0.000   0.021
   71        0.001   0.020   0.000   0.021
   72        0.001   0.020   0.000   0.021
   73        0.001   0.020   0.000   0.021
   74        0.001   0.020   0.000   0.021
   75        0.001   0.020   0.000   0.021
   76        0.001   0.020   0.000   0.021
   77        0.001   0.020   0.000   0.021
   78        0.001   0.020   0.000   0.021
   79        0.001   0.020   0.000   0.021
   80        0.001   0.020   0.000   0.021
   81        0.001   0.020   0.000   0.021
   82        0.001   0.020   0.000   0.021
   83        0.001   0.020   0.000   0.021
   84        0.001   0.020   0.000   0.021
   85        0.001   0.020   0.000   0.021
   86        0.001   0.020   0.000   0.021
   87        0.001   0.020   0.000   0.021
   88        0.001   0.020   0.000   0.021
   89        0.001   0.020   0.000   0.021
   90        0.001   0.020   0.000   0.021
   91        0.001   0.020   0.000   0.021
   92        0.001   0.020   0.000   0.021
   93        0.001   0.020   0.000   0.021
   94        0.001   0.020   0.000   0.021
   95        0.001   0.020   0.000   0.021
   96        0.001   0.020   0.000   0.021
   97        0.001   0.020   0.000   0.021
   98        0.001   0.020   0.000   0.021
   99        0.001   0.020   0.000   0.021
  100        0.001   0.020   0.000   0.021
  101        0.001   0.020   0.000   0.021
  102        0.001   0.020   0.000   0.021
  103        0.001   0.020   0.000   0.021
  104        0.001   0.020   0.000   0.021
  105        0.001   0.020   0.000   0.021
  106        0.001   0.020   0.000   0.021
  107        0.001   0.020   0.000   0.021
  108        0.001   0.020   0.000   0.021
--------------------------------------------------
tot           0.10    1.20    6.62    7.92
 

 total amount of memory used by VASP MPI-rank0   164887. kBytes
=======================================================================

   base      :      30000. kBytes
   nonlr-proj:      48515. kBytes
   fftplans  :      10383. kBytes
   grid      :      61470. kBytes
   one-center:       1679. kBytes
   wavefun   :      12840. kBytes
 
  
  
 General timing and accounting informations for this job:
 ========================================================
  
                  Total CPU time used (sec):     1912.553
                            User time (sec):     1902.562
                          System time (sec):        9.990
                         Elapsed time (sec):     1922.937
  
                   Maximum memory used (kb):      223752.
                   Average memory used (kb):           0.
  
                          Minor page faults:        40937
                          Major page faults:           59
                 Voluntary context switches:         1342
